 DBCSR| Multiplication driver                                               BLAS
 DBCSR| Multrec recursion limit                                              512
 DBCSR| Multiplication stack size                                           1000
 DBCSR| Maximum elements for images                                    UNLIMITED
 DBCSR| Multiplicative factor virtual images                                   1
 DBCSR| Multiplication size stacks                                             3
 DBCSR| Number of 3D layers                                               SINGLE
 DBCSR| Use MPI memory allocation                                              T
 DBCSR| Use RMA algorithm                                                      F
 DBCSR| Use Communication thread                                               T
 DBCSR| Communication thread load                                             87


  **** **** ******  **  PROGRAM STARTED AT               2019-05-27 13:36:30.148
 ***** ** ***  *** **   PROGRAM STARTED ON        blg9216.int.ets1.calculquebec.
 **    ****   ******    PROGRAM STARTED BY                                   rzk
 ***** **    ** ** **   PROGRAM PROCESS ID                                307126
  **** **  *******  **  PROGRAM STARTED IN /lustre03/project/6004141/rzk/GaN-car
                                           bene/334-native/05-2Methanol/00-vacuu
                                           m

 CP2K| version string:                    CP2K version 7.0 (Development Version)
 CP2K| source code revision number:                                    svn:18619
 CP2K| cp2kflags: libint fftw3 libxc parallel mpi3 scalapack mkl                
 CP2K| is freely available from                            https://www.cp2k.org/
 CP2K| Program compiled at                          Sun Apr  7 00:48:11 EDT 2019
 CP2K| Program compiled on                      beluga2.int.ets1.calculquebec.ca
 CP2K| Program compiled for                    Beluga-Linux-x86-64-intel-openmpi
 CP2K| Data directory path    /home/rzk/projects/def-rzk/group/cp2k/cp2k-mcgill/
 CP2K| Input file name                                                 start.inp
 
 GLOBAL| Force Environment number                                              1
 GLOBAL| Basis set file name                                        BASIS_MOLOPT
 GLOBAL| Potential file name                                      GTH_POTENTIALS
 GLOBAL| MM Potential file name                                     MM_POTENTIAL
 GLOBAL| Coordinate file name                                      __STD_INPUT__
 GLOBAL| Method name                                                        CP2K
 GLOBAL| Project name                                                       TEST
 GLOBAL| Preferred FFT library                                             FFTW3
 GLOBAL| Preferred diagonalization lib.                                       SL
 GLOBAL| Run type                                                        GEO_OPT
 GLOBAL| All-to-all communication in single precision                          F
 GLOBAL| FFTs using library dependent lengths                                  F
 GLOBAL| Global print level                                               MEDIUM
 GLOBAL| MPI I/O enabled                                                       T
 GLOBAL| Total number of message passing processes                            40
 GLOBAL| Number of threads for this process                                    1
 GLOBAL| This output is from process                                           0
 GLOBAL| CPU model name :  Intel(R) Xeon(R) Gold 6148 CPU @ 2.40GHz

 MEMORY| system memory details [Kb]
 MEMORY|                        rank 0           min           max       average
 MEMORY| MemTotal            196614300     196614300     196614300     196614300
 MEMORY| MemFree             178151544     178151544     178151544     178151544
 MEMORY| Buffers                    76            76            76            76
 MEMORY| Cached                4148044       4148044       4148044       4148044
 MEMORY| Slab                  2994416       2994416       2994416       2994416
 MEMORY| SReclaimable           360312        360312        360312        360312
 MEMORY| MemLikelyFree       182659976     182659976     182659976     182659976


 *** Fundamental physical constants (SI units) ***

 *** Literature: B. J. Mohr and B. N. Taylor,
 ***             CODATA recommended values of the fundamental physical
 ***             constants: 2006, Web Version 5.1
 ***             http://physics.nist.gov/constants

 Speed of light in vacuum [m/s]                             2.99792458000000E+08
 Magnetic constant or permeability of vacuum [N/A**2]       1.25663706143592E-06
 Electric constant or permittivity of vacuum [F/m]          8.85418781762039E-12
 Planck constant (h) [J*s]                                  6.62606896000000E-34
 Planck constant (h-bar) [J*s]                              1.05457162825177E-34
 Elementary charge [C]                                      1.60217648700000E-19
 Electron mass [kg]                                         9.10938215000000E-31
 Electron g factor [ ]                                     -2.00231930436220E+00
 Proton mass [kg]                                           1.67262163700000E-27
 Fine-structure constant                                    7.29735253760000E-03
 Rydberg constant [1/m]                                     1.09737315685270E+07
 Avogadro constant [1/mol]                                  6.02214179000000E+23
 Boltzmann constant [J/K]                                   1.38065040000000E-23
 Atomic mass unit [kg]                                      1.66053878200000E-27
 Bohr radius [m]                                            5.29177208590000E-11

 *** Conversion factors ***

 [u] -> [a.u.]                                              1.82288848426455E+03
 [Angstrom] -> [Bohr] = [a.u.]                              1.88972613288564E+00
 [a.u.] = [Bohr] -> [Angstrom]                              5.29177208590000E-01
 [a.u.] -> [s]                                              2.41888432650478E-17
 [a.u.] -> [fs]                                             2.41888432650478E-02
 [a.u.] -> [J]                                              4.35974393937059E-18
 [a.u.] -> [N]                                              8.23872205491840E-08
 [a.u.] -> [K]                                              3.15774647902944E+05
 [a.u.] -> [kJ/mol]                                         2.62549961709828E+03
 [a.u.] -> [kcal/mol]                                       6.27509468713739E+02
 [a.u.] -> [Pa]                                             2.94210107994716E+13
 [a.u.] -> [bar]                                            2.94210107994716E+08
 [a.u.] -> [atm]                                            2.90362800883016E+08
 [a.u.] -> [eV]                                             2.72113838565563E+01
 [a.u.] -> [Hz]                                             6.57968392072181E+15
 [a.u.] -> [1/cm] (wave numbers)                            2.19474631370540E+05
 [a.u./Bohr**2] -> [1/cm]                                   5.14048714338585E+03
 

 CELL_TOP| Volume [angstrom^3]:                                         2519.385
 CELL_TOP| Vector a [angstrom     9.737     0.000     0.000    |a| =       9.737
 CELL_TOP| Vector b [angstrom    -4.859     8.416     0.000    |b| =       9.718
 CELL_TOP| Vector c [angstrom     0.000     0.000    30.744    |c| =      30.744
 CELL_TOP| Angle (b,c), alpha [degree]:                                   90.000
 CELL_TOP| Angle (a,c), beta  [degree]:                                   90.000
 CELL_TOP| Angle (a,b), gamma [degree]:                                  120.000
 CELL_TOP| Numerically orthorhombic:                                          NO
 
 GENERATE|  Preliminary Number of Bonds generated:                             0
 GENERATE|  Achieved consistency in connectivity generation.

 CELL| Volume [angstrom^3]:                                             2519.385
 CELL| Vector a [angstrom]:       9.737     0.000     0.000    |a| =       9.737
 CELL| Vector b [angstrom]:      -4.859     8.416     0.000    |b| =       9.718
 CELL| Vector c [angstrom]:       0.000     0.000    30.744    |c| =      30.744
 CELL| Angle (b,c), alpha [degree]:                                       90.000
 CELL| Angle (a,c), beta  [degree]:                                       90.000
 CELL| Angle (a,b), gamma [degree]:                                      120.000
 CELL| Numerically orthorhombic:                                              NO

 CELL_REF| Volume [angstrom^3]:                                         2432.344
 CELL_REF| Vector a [angstrom     9.558     0.000     0.000    |a| =       9.558
 CELL_REF| Vector b [angstrom    -4.779     8.277     0.000    |b| =       9.558
 CELL_REF| Vector c [angstrom     0.000     0.000    30.744    |c| =      30.744
 CELL_REF| Angle (b,c), alpha [degree]:                                   90.000
 CELL_REF| Angle (a,c), beta  [degree]:                                   90.000
 CELL_REF| Angle (a,b), gamma [degree]:                                  120.000
 CELL_REF| Numerically orthorhombic:                                          NO

 *******************************************************************************
 *******************************************************************************
 **                                                                           **
 **     #####                         ##              ##                      **
 **    ##   ##            ##          ##              ##                      **
 **   ##     ##                       ##            ######                    **
 **   ##     ##  ##   ##  ##   #####  ##  ##   ####   ##    #####    #####    **
 **   ##     ##  ##   ##  ##  ##      ## ##   ##      ##   ##   ##  ##   ##   **
 **   ##  ## ##  ##   ##  ##  ##      ####     ###    ##   ######   ######    **
 **    ##  ###   ##   ##  ##  ##      ## ##      ##   ##   ##       ##        **
 **     #######   #####   ##   #####  ##  ##  ####    ##    #####   ##        **
 **           ##                                                    ##        **
 **                                                                           **
 **                                                ... make the atoms dance   **
 **                                                                           **
 **            Copyright (C) by CP2K developers group (2000 - 2018)           **
 **                                                                           **
 *******************************************************************************

 DFT| Spin restricted Kohn-Sham (RKS) calculation                            RKS
 DFT| Multiplicity                                                             1
 DFT| Number of spin states                                                    1
 DFT| Charge                                                                   0
 DFT| Self-interaction correction (SIC)                                       NO
 DFT| Cutoffs: density                                              1.000000E-10
 DFT|          gradient                                             1.000000E-10
 DFT|          tau                                                  1.000000E-10
 DFT|          cutoff_smoothing_range                               0.000000E+00
 DFT| XC density smoothing                                                  NONE
 DFT| XC derivatives                                                          PW
 FUNCTIONAL| ROUTINE=NEW
 FUNCTIONAL| PBE:
 FUNCTIONAL| J.P.Perdew, K.Burke, M.Ernzerhof, Phys. Rev. Letter, vol. 77, n 18,
 FUNCTIONAL|  pp. 3865-3868, (1996){spin unpolarized}                           
 vdW POTENTIAL|                                                   Pair Potential
 vdW POTENTIAL|          DFT-D3 (Version 3.1)
 vdW POTENTIAL|          Potential Form: S. Grimme et al, JCP 132: 154104 (2010)
 vdW POTENTIAL|          Zero Damping
 vdW POTENTIAL|          Cutoff Radius [Bohr]:                             18.90
 vdW POTENTIAL|          s6 Scaling Factor:                               1.0000
 vdW POTENTIAL|          sr6 Scaling Factor:                              1.2170
 vdW POTENTIAL|          s8 Scaling Factor:                               0.7220
 vdW POTENTIAL|          Cutoff for CN calculation:                   0.1000E-05

 QS| Method:                                                                 GPW
 QS| Density plane wave grid type                        NON-SPHERICAL FULLSPACE
 QS| Number of grid levels:                                                    5
 QS| Density cutoff [a.u.]:                                                600.0
 QS| Multi grid cutoff [a.u.]: 1) grid level                               600.0
 QS|                           2) grid level                               200.0
 QS|                           3) grid level                                66.7
 QS|                           4) grid level                                22.2
 QS|                           5) grid level                                 7.4
 QS| Grid level progression factor:                                          3.0
 QS| Relative density cutoff [a.u.]:                                        20.0
 QS| Consistent realspace mapping and integration 
 QS| Interaction thresholds: eps_pgf_orb:                                1.0E-07
 QS|                         eps_filter_matrix:                          0.0E+00
 QS|                         eps_core_charge:                            1.0E-16
 QS|                         eps_rho_gspace:                             1.0E-14
 QS|                         eps_rho_rspace:                             1.0E-14
 QS|                         eps_gvg_rspace:                             1.0E-07
 QS|                         eps_ppl:                                    1.0E-02
 QS|                         eps_ppnl:                                   1.0E-09


 ATOMIC KIND INFORMATION

  1. Atomic kind: O                                     Number of atoms:       2

     Orbital Basis Set                                     DZVP-MOLOPT-SR-GTH-q6

       Number of orbital shell sets:                                           1
       Number of orbital shells:                                               5
       Number of primitive Cartesian functions:                                5
       Number of Cartesian basis functions:                                   14
       Number of spherical basis functions:                                   13
       Norm type:                                                              2

       Normalised Cartesian orbitals:

                        Set   Shell   Orbital            Exponent    Coefficient

                          1       1    2s               10.389228       0.396646
                                                         3.849621       0.208811
                                                         1.388401      -0.301641
                                                         0.496955      -0.274061
                                                         0.162492      -0.033677

                          1       2    3s               10.389228       0.303673
                                                         3.849621       0.240943
                                                         1.388401      -0.313066
                                                         0.496955      -0.043055
                                                         0.162492       0.213991

                          1       3    3px              10.389228      -1.530415
                                                         3.849621      -1.371928
                                                         1.388401      -0.761951
                                                         0.496955      -0.253695
                                                         0.162492      -0.035541
                          1       3    3py              10.389228      -1.530415
                                                         3.849621      -1.371928
                                                         1.388401      -0.761951
                                                         0.496955      -0.253695
                                                         0.162492      -0.035541
                          1       3    3pz              10.389228      -1.530415
                                                         3.849621      -1.371928
                                                         1.388401      -0.761951
                                                         0.496955      -0.253695
                                                         0.162492      -0.035541

                          1       4    4px              10.389228      -0.565392
                                                         3.849621      -0.038231
                                                         1.388401      -0.382373
                                                         0.496955       0.179070
                                                         0.162492       0.122714
                          1       4    4py              10.389228      -0.565392
                                                         3.849621      -0.038231
                                                         1.388401      -0.382373
                                                         0.496955       0.179070
                                                         0.162492       0.122714
                          1       4    4pz              10.389228      -0.565392
                                                         3.849621      -0.038231
                                                         1.388401      -0.382373
                                                         0.496955       0.179070
                                                         0.162492       0.122714

                          1       5    4dx2             10.389228       1.867377
                                                         3.849621       0.670994
                                                         1.388401       1.353441
                                                         0.496955       0.273538
                                                         0.162492       0.006620
                          1       5    4dxy             10.389228       3.234392
                                                         3.849621       1.162195
                                                         1.388401       2.344229
                                                         0.496955       0.473781
                                                         0.162492       0.011466
                          1       5    4dxz             10.389228       3.234392
                                                         3.849621       1.162195
                                                         1.388401       2.344229
                                                         0.496955       0.473781
                                                         0.162492       0.011466
                          1       5    4dy2             10.389228       1.867377
                                                         3.849621       0.670994
                                                         1.388401       1.353441
                                                         0.496955       0.273538
                                                         0.162492       0.006620
                          1       5    4dyz             10.389228       3.234392
                                                         3.849621       1.162195
                                                         1.388401       2.344229
                                                         0.496955       0.473781
                                                         0.162492       0.011466
                          1       5    4dz2             10.389228       1.867377
                                                         3.849621       0.670994
                                                         1.388401       1.353441
                                                         0.496955       0.273538
                                                         0.162492       0.006620

     GTH Potential information for                                    GTH-PBE-q6

       Description:                       Goedecker-Teter-Hutter pseudopotential
                                           Goedecker et al., PRB 54, 1703 (1996)
                                          Hartwigsen et al., PRB 58, 3641 (1998)
                                                      Krack, TCA 114, 145 (2005)

       Gaussian exponent of the core charge distribution:               8.360253
       Electronic configuration (s p d ...):                               2   4

       Parameters of the local part of the GTH pseudopotential:

                          rloc        C1          C2          C3          C4
                        0.244554  -16.667215    2.487311

       Parameters of the non-local part of the GTH pseudopotential:

                   l      r(l)      h(i,j,l)

                   0    0.220956   18.337458
                   1    0.211332

  2. Atomic kind: H                                     Number of atoms:       8

     Orbital Basis Set                                     DZVP-MOLOPT-SR-GTH-q1

       Number of orbital shell sets:                                           1
       Number of orbital shells:                                               3
       Number of primitive Cartesian functions:                                5
       Number of Cartesian basis functions:                                    5
       Number of spherical basis functions:                                    5
       Norm type:                                                              2

       Normalised Cartesian orbitals:

                        Set   Shell   Orbital            Exponent    Coefficient

                          1       1    2s               10.068468      -0.133023
                                                         2.680223      -0.177618
                                                         0.791502      -0.258419
                                                         0.239116      -0.107525
                                                         0.082193      -0.014019

                          1       2    3s               10.068468       0.344673
                                                         2.680223       1.819821
                                                         0.791502      -0.999069
                                                         0.239116       0.017430
                                                         0.082193       0.082660

                          1       3    3px              10.068468       0.155326
                                                         2.680223       0.367157
                                                         0.791502       0.311480
                                                         0.239116       0.080105
                                                         0.082193       0.033440
                          1       3    3py              10.068468       0.155326
                                                         2.680223       0.367157
                                                         0.791502       0.311480
                                                         0.239116       0.080105
                                                         0.082193       0.033440
                          1       3    3pz              10.068468       0.155326
                                                         2.680223       0.367157
                                                         0.791502       0.311480
                                                         0.239116       0.080105
                                                         0.082193       0.033440

     GTH Potential information for                                    GTH-PBE-q1

       Description:                       Goedecker-Teter-Hutter pseudopotential
                                           Goedecker et al., PRB 54, 1703 (1996)
                                          Hartwigsen et al., PRB 58, 3641 (1998)
                                                      Krack, TCA 114, 145 (2005)

       Gaussian exponent of the core charge distribution:              12.500000
       Electronic configuration (s p d ...):                                   1

       Parameters of the local part of the GTH pseudopotential:

                          rloc        C1          C2          C3          C4
                        0.200000   -4.178900    0.724463

  3. Atomic kind: C                                     Number of atoms:       2

     Orbital Basis Set                                     DZVP-MOLOPT-SR-GTH-q4

       Number of orbital shell sets:                                           1
       Number of orbital shells:                                               5
       Number of primitive Cartesian functions:                                5
       Number of Cartesian basis functions:                                   14
       Number of spherical basis functions:                                   13
       Norm type:                                                              2

       Normalised Cartesian orbitals:

                        Set   Shell   Orbital            Exponent    Coefficient

                          1       1    2s                5.605331       0.322515
                                                         2.113016       0.213043
                                                         0.769911      -0.209686
                                                         0.348157      -0.219794
                                                         0.128212      -0.022789

                          1       2    3s                5.605331       0.552234
                                                         2.113016       0.082072
                                                         0.769911       0.007843
                                                         0.348157       0.136893
                                                         0.128212       0.074283

                          1       3    3px               5.605331      -0.703879
                                                         2.113016      -0.642521
                                                         0.769911      -0.374851
                                                         0.348157      -0.139743
                                                         0.128212      -0.027849
                          1       3    3py               5.605331      -0.703879
                                                         2.113016      -0.642521
                                                         0.769911      -0.374851
                                                         0.348157      -0.139743
                                                         0.128212      -0.027849
                          1       3    3pz               5.605331      -0.703879
                                                         2.113016      -0.642521
                                                         0.769911      -0.374851
                                                         0.348157      -0.139743
                                                         0.128212      -0.027849

                          1       4    4px               5.605331      -0.480376
                                                         2.113016      -0.552894
                                                         0.769911      -0.316145
                                                         0.348157       0.210505
                                                         0.128212       0.076095
                          1       4    4py               5.605331      -0.480376
                                                         2.113016      -0.552894
                                                         0.769911      -0.316145
                                                         0.348157       0.210505
                                                         0.128212       0.076095
                          1       4    4pz               5.605331      -0.480376
                                                         2.113016      -0.552894
                                                         0.769911      -0.316145
                                                         0.348157       0.210505
                                                         0.128212       0.076095

                          1       5    4dx2              5.605331       0.640026
                                                         2.113016       0.274300
                                                         0.769911       0.446711
                                                         0.348157       0.028674
                                                         0.128212       0.029790
                          1       5    4dxy              5.605331       1.108557
                                                         2.113016       0.475102
                                                         0.769911       0.773726
                                                         0.348157       0.049666
                                                         0.128212       0.051599
                          1       5    4dxz              5.605331       1.108557
                                                         2.113016       0.475102
                                                         0.769911       0.773726
                                                         0.348157       0.049666
                                                         0.128212       0.051599
                          1       5    4dy2              5.605331       0.640026
                                                         2.113016       0.274300
                                                         0.769911       0.446711
                                                         0.348157       0.028674
                                                         0.128212       0.029790
                          1       5    4dyz              5.605331       1.108557
                                                         2.113016       0.475102
                                                         0.769911       0.773726
                                                         0.348157       0.049666
                                                         0.128212       0.051599
                          1       5    4dz2              5.605331       0.640026
                                                         2.113016       0.274300
                                                         0.769911       0.446711
                                                         0.348157       0.028674
                                                         0.128212       0.029790

     GTH Potential information for                                    GTH-PBE-q4

       Description:                       Goedecker-Teter-Hutter pseudopotential
                                           Goedecker et al., PRB 54, 1703 (1996)
                                          Hartwigsen et al., PRB 58, 3641 (1998)
                                                      Krack, TCA 114, 145 (2005)

       Gaussian exponent of the core charge distribution:               4.364419
       Electronic configuration (s p d ...):                               2   2

       Parameters of the local part of the GTH pseudopotential:

                          rloc        C1          C2          C3          C4
                        0.338471   -8.803674    1.339211

       Parameters of the non-local part of the GTH pseudopotential:

                   l      r(l)      h(i,j,l)

                   0    0.302576    9.622487
                   1    0.291507


 MOLECULE KIND INFORMATION


 All atoms are their own molecule, skipping detailed information


 TOTAL NUMBERS AND MAXIMUM NUMBERS

  Total number of            - Atomic kinds:                                   3
                             - Atoms:                                         12
                             - Shell sets:                                    12
                             - Shells:                                        44
                             - Primitive Cartesian functions:                 60
                             - Cartesian basis functions:                     96
                             - Spherical basis functions:                     92

  Maximum angular momentum of- Orbital basis functions:                        2
                             - Local part of the GTH pseudopotential:          2
                             - Non-local part of the GTH pseudopotential:      0


 MODULE QUICKSTEP:  ATOMIC COORDINATES IN angstrom

  Atom  Kind  Element       X           Y           Z          Z(eff)       Mass

       1     1 O    8    1.577373    5.058296   21.238993      6.00      15.9994
       2     2 H    1    0.989353    5.394807   20.482621      1.00       1.0079
       3     3 C    6    0.846204    3.992323   21.879629      4.00      12.0107
       4     2 H    1    0.118770    3.544187   21.186736      1.00       1.0079
       5     2 H    1    1.550733    3.209309   22.187417      1.00       1.0079
       6     2 H    1    0.318697    4.373928   22.766353      1.00       1.0079
       7     1 O    8    4.230228    4.715273   21.072632      6.00      15.9994
       8     2 H    1    3.221957    4.866838   21.075915      1.00       1.0079
       9     3 C    6    4.551102    3.598188   21.942041      4.00      12.0107
      10     2 H    1    4.118366    2.663288   21.560051      1.00       1.0079
      11     2 H    1    5.642835    3.504189   21.964873      1.00       1.0079
      12     2 H    1    4.179123    3.811639   22.952057      1.00       1.0079




 SCF PARAMETERS         Density guess:                                    ATOMIC
                        --------------------------------------------------------
                        max_scf:                                             100
                        max_scf_history:                                       0
                        max_diis:                                              4
                        --------------------------------------------------------
                        eps_scf:                                        5.00E-06
                        eps_scf_history:                                0.00E+00
                        eps_diis:                                       1.00E-01
                        eps_eigval:                                     1.00E-05
                        --------------------------------------------------------
                        level_shift [a.u.]:                                 0.00
                        --------------------------------------------------------
                        Outer loop SCF in use 
                        No variables optimised in outer loop
                        eps_scf                                         5.00E-06
                        max_scf                                                4
                        No outer loop optimization
                        step_size                                       5.00E-01

 PW_GRID| Information for grid number                                          1
 PW_GRID| Grid distributed over                                    40 processors
 PW_GRID| Real space group dimensions                                    40    1
 PW_GRID| the grid is blocked:                                                NO
 PW_GRID| Cutoff [a.u.]                                                    600.0
 PW_GRID| spherical cutoff:                                                   NO
 PW_GRID|   Bounds   1           -100      99                Points:         200
 PW_GRID|   Bounds   2           -100      99                Points:         200
 PW_GRID|   Bounds   3           -324     323                Points:         648
 PW_GRID| Volume element (a.u.^3)  0.6333E-03     Volume (a.u.^3)     16414.2734
 PW_GRID| Grid span                                                    FULLSPACE
 PW_GRID|   Distribution                         Average         Max         Min
 PW_GRID|   G-Vectors                           648000.0      648000      648000
 PW_GRID|   G-Rays                                3240.0        3240        3240
 PW_GRID|   Real Space Points                   648000.0      648000      648000

 PW_GRID| Information for grid number                                          2
 PW_GRID| Grid distributed over                                    40 processors
 PW_GRID| Real space group dimensions                                    40    1
 PW_GRID| the grid is blocked:                                                NO
 PW_GRID| Cutoff [a.u.]                                                    200.0
 PW_GRID| spherical cutoff:                                                   NO
 PW_GRID|   Bounds   1            -60      59                Points:         120
 PW_GRID|   Bounds   2            -60      59                Points:         120
 PW_GRID|   Bounds   3           -187     187                Points:         375
 PW_GRID| Volume element (a.u.^3)  0.3040E-02     Volume (a.u.^3)     16414.2734
 PW_GRID| Grid span                                                    FULLSPACE
 PW_GRID|   Distribution                         Average         Max         Min
 PW_GRID|   G-Vectors                           135000.0      135960      134040
 PW_GRID|   G-Rays                                1125.0        1133        1117
 PW_GRID|   Real Space Points                   135000.0      135000      135000

 PW_GRID| Information for grid number                                          3
 PW_GRID| Grid distributed over                                    40 processors
 PW_GRID| Real space group dimensions                                    40    1
 PW_GRID| the grid is blocked:                                                NO
 PW_GRID| Cutoff [a.u.]                                                     66.7
 PW_GRID| spherical cutoff:                                                   NO
 PW_GRID|   Bounds   1            -36      35                Points:          72
 PW_GRID|   Bounds   2            -36      35                Points:          72
 PW_GRID|   Bounds   3           -108     107                Points:         216
 PW_GRID| Volume element (a.u.^3)  0.1466E-01     Volume (a.u.^3)     16414.2734
 PW_GRID| Grid span                                                    FULLSPACE
 PW_GRID|   Distribution                         Average         Max         Min
 PW_GRID|   G-Vectors                            27993.6       28584       27000
 PW_GRID|   G-Rays                                 388.8         397         375
 PW_GRID|   Real Space Points                    27993.6       31104       15552

 PW_GRID| Information for grid number                                          4
 PW_GRID| Grid distributed over                                    40 processors
 PW_GRID| Real space group dimensions                                    40    1
 PW_GRID| the grid is blocked:                                                NO
 PW_GRID| Cutoff [a.u.]                                                     22.2
 PW_GRID| spherical cutoff:                                                   NO
 PW_GRID|   Bounds   1            -20      19                Points:          40
 PW_GRID|   Bounds   2            -20      19                Points:          40
 PW_GRID|   Bounds   3            -62      62                Points:         125
 PW_GRID| Volume element (a.u.^3)  0.8207E-01     Volume (a.u.^3)     16414.2734
 PW_GRID| Grid span                                                    FULLSPACE
 PW_GRID|   Distribution                         Average         Max         Min
 PW_GRID|   G-Vectors                             5000.0        5360        4640
 PW_GRID|   G-Rays                                 125.0         134         116
 PW_GRID|   Real Space Points                     5000.0        5000        5000

 PW_GRID| Information for grid number                                          5
 PW_GRID| Grid distributed over                                    40 processors
 PW_GRID| Real space group dimensions                                     5    8
 PW_GRID| the grid is blocked:                                                NO
 PW_GRID| Cutoff [a.u.]                                                      7.4
 PW_GRID| spherical cutoff:                                                   NO
 PW_GRID|   Bounds   1            -12      11                Points:          24
 PW_GRID|   Bounds   2            -12      11                Points:          24
 PW_GRID|   Bounds   3            -36      35                Points:          72
 PW_GRID| Volume element (a.u.^3)  0.3958         Volume (a.u.^3)     16414.2734
 PW_GRID| Grid span                                                    FULLSPACE
 PW_GRID|   Distribution                         Average         Max         Min
 PW_GRID|   G-Vectors                             1036.8        1152         864
 PW_GRID|   G-Rays                                  43.2          48          36
 PW_GRID|   Real Space Points                     1036.8        1080         864

 POISSON| Solver                                                        PERIODIC
 POISSON| Periodicity                                                        XYZ

 RS_GRID| Information for grid number                                          1
 RS_GRID|   Bounds   1           -100      99                Points:         200
 RS_GRID|   Bounds   2           -100      99                Points:         200
 RS_GRID|   Bounds   3           -324     323                Points:         648
 RS_GRID| Real space distribution over                                 40 groups
 RS_GRID| Real space distribution along direction                              3
 RS_GRID| Border size                                                         51
 RS_GRID|   Distribution                         Average         Max         Min
 RS_GRID|   Planes                                 118.2         119         118

 RS_GRID| Information for grid number                                          2
 RS_GRID|   Bounds   1            -60      59                Points:         120
 RS_GRID|   Bounds   2            -60      59                Points:         120
 RS_GRID|   Bounds   3           -187     187                Points:         375
 RS_GRID| Real space distribution over                                 40 groups
 RS_GRID| Real space distribution along direction                              3
 RS_GRID| Border size                                                         36
 RS_GRID|   Distribution                         Average         Max         Min
 RS_GRID|   Planes                                  81.4          82          81

 RS_GRID| Information for grid number                                          3
 RS_GRID|   Bounds   1            -36      35                Points:          72
 RS_GRID|   Bounds   2            -36      35                Points:          72
 RS_GRID|   Bounds   3           -108     107                Points:         216
 RS_GRID| Real space fully replicated
 RS_GRID| Group size                                                           1

 RS_GRID| Information for grid number                                          4
 RS_GRID|   Bounds   1            -20      19                Points:          40
 RS_GRID|   Bounds   2            -20      19                Points:          40
 RS_GRID|   Bounds   3            -62      62                Points:         125
 RS_GRID| Real space fully replicated
 RS_GRID| Group size                                                           1

 RS_GRID| Information for grid number                                          5
 RS_GRID|   Bounds   1            -12      11                Points:          24
 RS_GRID|   Bounds   2            -12      11                Points:          24
 RS_GRID|   Bounds   3            -36      35                Points:          72
 RS_GRID| Real space fully replicated
 RS_GRID| Group size                                                           1

 BFGS| Use rational function optimization for step estimation:                NO
 BFGS| Use model Hessian for initial guess:                                  YES
 BFGS| Restart Hessian:                                                       NO
 BFGS| Trust radius:                                                       0.472

 *******************************************************************************
 ***                     STARTING GEOMETRY OPTIMIZATION                      ***
 ***                                   BFGS                                  ***
 *******************************************************************************

 Number of electrons:                                                         28
 Number of occupied orbitals:                                                 14
 Number of molecular orbitals:                                                14

 Number of orbital functions:                                                 92
 Number of independent orbital functions:                                     92

 Extrapolation method: initial_guess

 Atomic guess: The first density matrix is obtained in terms of atomic orbitals
               and electronic configurations assigned to each atomic kind

 Guess for atomic kind: O

 Electronic structure
    Total number of core electrons                                          2.00
    Total number of valence electrons                                       6.00
    Total number of electrons                                               8.00
    Multiplicity                                                   not specified
    S   [  2.00] 2.00
    P      4.00
 

 *******************************************************************************
                  Iteration          Convergence                     Energy [au]
 *******************************************************************************
                          1        0.702811                     -15.577904332270
                          2        0.612408                     -15.588447180504
                          3        0.955344E-02                 -15.655871208406
                          4        0.223754E-02                 -15.655885053552
                          5        0.157183E-02                 -15.655885461027
                          6        0.124953E-02                 -15.655885607150
                          7        0.312011E-06                 -15.655885858066

 Energy components [Hartree]           Total Energy ::          -15.655885858066
                                        Band Energy ::           -2.983128125584
                                     Kinetic Energy ::           11.754765134683
                                   Potential Energy ::          -27.410650992750
                                      Virial (-V/T) ::            2.331875684345
                                        Core Energy ::          -26.153522949072
                                          XC Energy ::           -3.157392363346
                                     Coulomb Energy ::           13.655029454351
                       Total Pseudopotential Energy ::          -37.943026860963
                       Local Pseudopotential Energy ::          -39.220419683052
                    Nonlocal Pseudopotential Energy ::            1.277392822089
                                        Confinement ::            0.347387772086

 Orbital energies  State     L     Occupation   Energy[a.u.]          Energy[eV]

                       1     0          2.000      -0.861522          -23.443215
 
                       1     1          4.000      -0.315021           -8.572154
 

 Total Electron Density at R=0:                                         0.000093

 Guess for atomic kind: H

 Electronic structure
    Total number of core electrons                                          0.00
    Total number of valence electrons                                       1.00
    Total number of electrons                                               1.00
    Multiplicity                                                   not specified
    S      1.00
 

 *******************************************************************************
                  Iteration          Convergence                     Energy [au]
 *******************************************************************************
                          1        0.250972E-02                  -0.375256815885
                          2        0.570752E-04                  -0.375258666164
                          3        0.832405E-09                  -0.375258667122

 Energy components [Hartree]           Total Energy ::           -0.375258667122
                                        Band Energy ::           -0.076317618391
                                     Kinetic Energy ::            0.771356566341
                                   Potential Energy ::           -1.146615233463
                                      Virial (-V/T) ::            1.486491829455
                                        Core Energy ::           -0.456090715790
                                          XC Energy ::           -0.314218627334
                                     Coulomb Energy ::            0.395050676003
                       Total Pseudopotential Energy ::           -1.238482237174
                       Local Pseudopotential Energy ::           -1.238482237174
                    Nonlocal Pseudopotential Energy ::            0.000000000000
                                        Confinement ::            0.110349550431

 Orbital energies  State     L     Occupation   Energy[a.u.]          Energy[eV]

                       1     0          1.000      -0.076318           -2.076708
 

 Total Electron Density at R=0:                                         0.425022

 Guess for atomic kind: C

 Electronic structure
    Total number of core electrons                                          2.00
    Total number of valence electrons                                       4.00
    Total number of electrons                                               6.00
    Multiplicity                                                   not specified
    S   [  2.00] 2.00
    P      2.00
 

 *******************************************************************************
                  Iteration          Convergence                     Energy [au]
 *******************************************************************************
                          1        0.261814E-01                  -5.246264729087
                          2        0.905236E-02                  -5.246529568708
                          3        0.681743E-04                  -5.246565167452
                          4        0.792829E-08                  -5.246565169473

 Energy components [Hartree]           Total Energy ::           -5.246565169473
                                        Band Energy ::           -1.058732595430
                                     Kinetic Energy ::            3.518928170589
                                   Potential Energy ::           -8.765493340062
                                      Virial (-V/T) ::            2.490955460053
                                        Core Energy ::           -8.429377169956
                                          XC Energy ::           -1.450183342358
                                     Coulomb Energy ::            4.632995342842
                       Total Pseudopotential Energy ::          -11.978048809389
                       Local Pseudopotential Energy ::          -12.816738187351
                    Nonlocal Pseudopotential Energy ::            0.838689377962
                                        Confinement ::            0.297434688432

 Orbital energies  State     L     Occupation   Energy[a.u.]          Energy[eV]

                       1     0          2.000      -0.410911          -11.181458
 
                       1     1          2.000      -0.118455           -3.223332
 

 Total Electron Density at R=0:                                         0.001337
 Re-scaling the density matrix to get the right number of electrons
                  # Electrons              Trace(P)               Scaling factor
                           28                28.000                        1.000


 SCF WAVEFUNCTION OPTIMIZATION

  ----------------------------------- OT ---------------------------------------
  Minimizer      : CG                  : conjugate gradient
  Preconditioner : FULL_ALL            : diagonalization, state selective
  Precond_solver : DEFAULT
  Line search    : 2PNT                : 2 energies, one gradient
  stepsize       :    0.15000000                  energy_gap     :    0.08000000
  eps_taylor     :   0.10000E-15                  max_taylor     :             4
  ----------------------------------- OT ---------------------------------------

  Step     Update method      Time    Convergence         Total energy    Change
  ------------------------------------------------------------------------------
     1 OT CG       0.15E+00    1.6     0.18776089       -45.0318368560 -4.50E+01
     2 OT LS       0.86E-01    0.9                      -45.9225247580
     3 OT CG       0.86E-01    1.9     0.18271216       -46.8755940899 -1.84E+00
     4 OT LS       0.32E-01    0.9                      -45.7958446196
     5 OT CG       0.32E-01    1.8     0.12096452       -47.4716339382 -5.96E-01
     6 OT LS       0.64E-01    0.9                      -47.9238394189
     7 OT CG       0.64E-01    1.9     0.05760859       -48.0059252934 -5.34E-01
     8 OT LS       0.58E-01    0.9                      -48.0865756358
     9 OT CG       0.58E-01    2.2     0.04344001       -48.0878492735 -8.19E-02
    10 OT LS       0.47E-01    0.9                      -48.1417564436
    11 OT CG       0.47E-01    1.9     0.01470931       -48.1449693469 -5.71E-02
    12 OT LS       0.98E-01    0.9                      -48.1548717538
    13 OT CG       0.98E-01    2.2     0.00961501       -48.1585375085 -1.36E-02
    14 OT LS       0.96E-01    1.1                      -48.1642782669
    15 OT CG       0.96E-01    2.6     0.00625435       -48.1642798690 -5.74E-03
    16 OT LS       0.63E-01    1.3                      -48.1654278915
    17 OT CG       0.63E-01    2.7     0.00288059       -48.1658682315 -1.59E-03
    18 OT LS       0.90E-01    1.3                      -48.1663061962
    19 OT CG       0.90E-01    2.5     0.00187122       -48.1663484038 -4.80E-04
    20 OT LS       0.96E-01    1.3                      -48.1665647492
    21 OT CG       0.96E-01    2.5     0.00109000       -48.1665657695 -2.17E-04
    22 OT LS       0.90E-01    1.2                      -48.1666344675
    23 OT CG       0.90E-01    2.5     0.00065223       -48.1666348022 -6.90E-05
    24 OT LS       0.10E+00    1.3                      -48.1666627930
    25 OT CG       0.10E+00    2.6     0.00040596       -48.1666632963 -2.85E-05
    26 OT LS       0.83E-01    1.3                      -48.1666714964
    27 OT CG       0.83E-01    2.6     0.00027210       -48.1666720769 -8.78E-06
    28 OT LS       0.74E-01    1.2                      -48.1666755487
    29 OT CG       0.74E-01    2.5     0.00015339       -48.1666755994 -3.52E-06
    30 OT LS       0.10E+00    1.2                      -48.1666770297
    31 OT CG       0.10E+00    2.5     0.00009610       -48.1666771493 -1.55E-06
    32 OT LS       0.96E-01    1.2                      -48.1666777197
    33 OT CG       0.96E-01    2.4     0.00006266       -48.1666777219 -5.73E-07
    34 OT LS       0.82E-01    1.2                      -48.1666779227
    35 OT CG       0.82E-01    2.5     0.00003799       -48.1666779291 -2.07E-07
    36 OT LS       0.91E-01    1.2                      -48.1666780131
    37 OT CG       0.91E-01    1.8     0.00002078       -48.1666780140 -8.49E-08
    38 OT LS       0.11E+00    0.9                      -48.1666780432
    39 OT CG       0.11E+00    1.8     0.00001415       -48.1666780438 -2.99E-08
    40 OT LS       0.79E-01    0.9                      -48.1666780526
    41 OT CG       0.79E-01    1.9     0.00000936       -48.1666780540 -1.02E-08
    42 OT LS       0.76E-01    0.9                      -48.1666780583
    43 OT CG       0.76E-01    2.1     0.00000504       -48.1666780583 -4.29E-09
    44 OT LS       0.10E+00    0.9                      -48.1666780599
    45 OT CG       0.10E+00    1.8     0.00000317       -48.1666780600 -1.70E-09

  *** SCF run converged in    45 steps ***


  Electronic density on regular grids:        -28.0000000000        0.0000000000
  Core density on regular grids:               28.0000000000       -0.0000000000
  Total charge density on r-space grids:        0.0000000000
  Total charge density g-space grids:           0.0000000000

  Overlap energy of the core charge distribution:               0.00000151181723
  Self energy of the core charge distribution:               -121.00622168248329
  Core Hamiltonian energy:                                     36.06665256430897
  Hartree energy:                                              50.13143737232812
  Exchange-correlation energy:                                -13.35532547567002
  Dispersion energy:                                           -0.00322235028152

  Total energy:                                               -48.16667805998051

  outer SCF iter =    1 RMS gradient =   0.32E-05 energy =        -48.1666780600
  outer SCF loop converged in   1 iterations or   45 steps


 !-----------------------------------------------------------------------------!
                     Mulliken Population Analysis

 #  Atom  Element  Kind  Atomic population                           Net charge
       1     O        1          6.231711                             -0.231711
       2     H        2          0.809925                              0.190075
       3     C        3          4.148875                             -0.148875
       4     H        2          0.911505                              0.088495
       5     H        2          0.911736                              0.088264
       6     H        2          0.909855                              0.090145
       7     O        1          6.266308                             -0.266308
       8     H        2          0.857286                              0.142714
       9     C        3          4.192063                             -0.192063
      10     H        2          0.923435                              0.076565
      11     H        2          0.916539                              0.083461
      12     H        2          0.920763                              0.079237
 # Total charge                             28.000000                  0.000000

 !-----------------------------------------------------------------------------!

 !-----------------------------------------------------------------------------!
                           Hirshfeld Charges

  #Atom  Element  Kind  Ref Charge     Population                    Net charge
      1       O      1       6.000          6.849                        -0.849
      2       H      2       1.000          0.429                         0.571
      3       C      3       4.000          5.047                        -1.047
      4       H      2       1.000          0.559                         0.441
      5       H      2       1.000          0.555                         0.445
      6       H      2       1.000          0.559                         0.441
      7       O      1       6.000          6.797                        -0.797
      8       H      2       1.000          0.414                         0.586
      9       C      3       4.000          5.088                        -1.088
     10       H      2       1.000          0.566                         0.434
     11       H      2       1.000          0.560                         0.440
     12       H      2       1.000          0.566                         0.434

  Total Charge                                                            0.011
 !-----------------------------------------------------------------------------!

 ENERGY| Total FORCE_EVAL ( QS ) energy (a.u.):              -48.166678060593945


 --------  Informations at step =     0 ------------
  Optimization Method        =                 BFGS
  Total Energy               =       -48.1666780606
  Used time                  =               78.811
 ---------------------------------------------------

 --------------------------
 OPTIMIZATION STEP:      1
 --------------------------

 Number of electrons:                                                         28
 Number of occupied orbitals:                                                 14
 Number of molecular orbitals:                                                14

 Number of orbital functions:                                                 92
 Number of independent orbital functions:                                     92

 Parameters for the always stable predictor-corrector (ASPC) method:

  ASPC order: 0

  B(1) =   1.000000

 Extrapolation method: ASPC


 SCF WAVEFUNCTION OPTIMIZATION

  ----------------------------------- OT ---------------------------------------
  Minimizer      : CG                  : conjugate gradient
  Preconditioner : FULL_ALL            : diagonalization, state selective
  Precond_solver : DEFAULT
  Line search    : 2PNT                : 2 energies, one gradient
  stepsize       :    0.15000000                  energy_gap     :    0.08000000
  eps_taylor     :   0.10000E-15                  max_taylor     :             4
  ----------------------------------- OT ---------------------------------------

  Step     Update method      Time    Convergence         Total energy    Change
  ------------------------------------------------------------------------------
     1 OT CG       0.15E+00    1.4     0.00320525       -48.1683657286 -4.82E+01
     2 OT LS       0.22E+00    0.9                      -48.1696812456
     3 OT CG       0.22E+00    2.1     0.00114984       -48.1698378144 -1.47E-03
     4 OT LS       0.96E-01    1.1                      -48.1697768844
     5 OT CG       0.96E-01    2.5     0.00021342       -48.1699195271 -8.17E-05
     6 OT LS       0.17E+00    1.3                      -48.1699235385
     7 OT CG       0.17E+00    2.6     0.00002848       -48.1699244319 -4.90E-06
     8 OT LS       0.16E+00    1.3                      -48.1699245170
     9 OT CG       0.16E+00    2.5     0.00000979       -48.1699245171 -8.52E-08
    10 OT LS       0.14E+00    1.2                      -48.1699245252
    11 OT CG       0.14E+00    2.6     0.00000186       -48.1699245255 -8.39E-09

  *** SCF run converged in    11 steps ***


  Electronic density on regular grids:        -28.0000000000        0.0000000000
  Core density on regular grids:               28.0000000000       -0.0000000000
  Total charge density on r-space grids:        0.0000000000
  Total charge density g-space grids:           0.0000000000

  Overlap energy of the core charge distribution:               0.00000146038042
  Self energy of the core charge distribution:               -121.00622168248329
  Core Hamiltonian energy:                                     36.11650942527113
  Hartree energy:                                              50.09256494407150
  Exchange-correlation energy:                                -13.36954196653985
  Dispersion energy:                                           -0.00323670618797

  Total energy:                                               -48.16992452548807

  outer SCF iter =    1 RMS gradient =   0.19E-05 energy =        -48.1699245255
  outer SCF loop converged in   1 iterations or   11 steps


 !-----------------------------------------------------------------------------!
                     Mulliken Population Analysis

 #  Atom  Element  Kind  Atomic population                           Net charge
       1     O        1          6.223890                             -0.223890
       2     H        2          0.828520                              0.171480
       3     C        3          4.148064                             -0.148064
       4     H        2          0.911864                              0.088136
       5     H        2          0.911588                              0.088412
       6     H        2          0.909958                              0.090042
       7     O        1          6.243003                             -0.243003
       8     H        2          0.860897                              0.139103
       9     C        3          4.201705                             -0.201705
      10     H        2          0.923241                              0.076759
      11     H        2          0.915105                              0.084895
      12     H        2          0.922164                              0.077836
 # Total charge                             28.000000                  0.000000

 !-----------------------------------------------------------------------------!

 !-----------------------------------------------------------------------------!
                           Hirshfeld Charges

  #Atom  Element  Kind  Ref Charge     Population                    Net charge
      1       O      1       6.000          6.852                        -0.852
      2       H      2       1.000          0.433                         0.567
      3       C      3       4.000          5.041                        -1.041
      4       H      2       1.000          0.558                         0.442
      5       H      2       1.000          0.555                         0.445
      6       H      2       1.000          0.559                         0.441
      7       O      1       6.000          6.768                        -0.768
      8       H      2       1.000          0.421                         0.579
      9       C      3       4.000          5.106                        -1.106
     10       H      2       1.000          0.567                         0.433
     11       H      2       1.000          0.562                         0.438
     12       H      2       1.000          0.566                         0.434

  Total Charge                                                            0.011
 !-----------------------------------------------------------------------------!

 ENERGY| Total FORCE_EVAL ( QS ) energy (a.u.):              -48.169924525795167


 --------  Informations at step =     1 ------------
  Optimization Method        =                 BFGS
  Total Energy               =       -48.1699245258
  Real energy change         =        -0.0032464652
  Predicted change in energy =        -0.0034649360
  Scaling factor             =         0.0000000000
  Step size                  =         0.0629093303
  Trust radius               =         0.4724315332
  Decrease in energy         =                  YES
  Used time                  =               23.554

  Convergence check :
  Max. step size             =         0.0629093303
  Conv. limit for step size  =         0.0030000000
  Convergence in step size   =                   NO
  RMS step size              =         0.0302450747
  Conv. limit for RMS step   =         0.0015000000
  Convergence in RMS step    =                   NO
  Max. gradient              =         0.0156860041
  Conv. limit for gradients  =         0.0004500000
  Conv. for gradients        =                   NO
  RMS gradient               =         0.0056517857
  Conv. limit for RMS grad.  =         0.0003000000
  Conv. for gradients        =                   NO
 ---------------------------------------------------

 --------------------------
 OPTIMIZATION STEP:      2
 --------------------------

 Number of electrons:                                                         28
 Number of occupied orbitals:                                                 14
 Number of molecular orbitals:                                                14

 Number of orbital functions:                                                 92
 Number of independent orbital functions:                                     92

 Parameters for the always stable predictor-corrector (ASPC) method:

  ASPC order: 0

  B(1) =   2.000000
  B(2) =  -1.000000

 Extrapolation method: ASPC


 SCF WAVEFUNCTION OPTIMIZATION

  ----------------------------------- OT ---------------------------------------
  Minimizer      : CG                  : conjugate gradient
  Preconditioner : FULL_ALL            : diagonalization, state selective
  Precond_solver : DEFAULT
  Line search    : 2PNT                : 2 energies, one gradient
  stepsize       :    0.15000000                  energy_gap     :    0.08000000
  eps_taylor     :   0.10000E-15                  max_taylor     :             4
  ----------------------------------- OT ---------------------------------------

  Step     Update method      Time    Convergence         Total energy    Change
  ------------------------------------------------------------------------------
     1 OT CG       0.15E+00    2.0     0.00376881       -48.1689140714 -4.82E+01
     2 OT LS       0.24E+00    1.3                      -48.1708106687
     3 OT CG       0.24E+00    2.6     0.00047889       -48.1711354094 -2.22E-03
     4 OT LS       0.13E+00    1.3                      -48.1711385395
     5 OT CG       0.13E+00    2.6     0.00017891       -48.1711541653 -1.88E-05
     6 OT LS       0.11E+00    1.3                      -48.1711564700
     7 OT CG       0.11E+00    2.5     0.00002671       -48.1711565033 -2.34E-06
     8 OT LS       0.15E+00    1.2                      -48.1711565684
     9 OT CG       0.15E+00    2.5     0.00000890       -48.1711565727 -6.94E-08
    10 OT LS       0.14E+00    1.3                      -48.1711565796
    11 OT CG       0.14E+00    2.4     0.00000234       -48.1711565797 -6.98E-09

  *** SCF run converged in    11 steps ***


  Electronic density on regular grids:        -28.0000000000        0.0000000000
  Core density on regular grids:               28.0000000000       -0.0000000000
  Total charge density on r-space grids:        0.0000000000
  Total charge density g-space grids:           0.0000000000

  Overlap energy of the core charge distribution:               0.00000148966681
  Self energy of the core charge distribution:               -121.00622168248329
  Core Hamiltonian energy:                                     36.19929281532141
  Hartree energy:                                              50.03101651592824
  Exchange-correlation energy:                                -13.39201881160966
  Dispersion energy:                                           -0.00322690648885

  Total energy:                                               -48.17115657966533

  outer SCF iter =    1 RMS gradient =   0.23E-05 energy =        -48.1711565797
  outer SCF loop converged in   1 iterations or   11 steps


 !-----------------------------------------------------------------------------!
                     Mulliken Population Analysis

 #  Atom  Element  Kind  Atomic population                           Net charge
       1     O        1          6.214270                             -0.214270
       2     H        2          0.842671                              0.157329
       3     C        3          4.148670                             -0.148670
       4     H        2          0.913135                              0.086865
       5     H        2          0.910858                              0.089142
       6     H        2          0.910410                              0.089590
       7     O        1          6.226767                             -0.226767
       8     H        2          0.869855                              0.130145
       9     C        3          4.203453                             -0.203453
      10     H        2          0.922591                              0.077409
      11     H        2          0.915834                              0.084166
      12     H        2          0.921485                              0.078515
 # Total charge                             28.000000                  0.000000

 !-----------------------------------------------------------------------------!

 !-----------------------------------------------------------------------------!
                           Hirshfeld Charges

  #Atom  Element  Kind  Ref Charge     Population                    Net charge
      1       O      1       6.000          6.847                        -0.847
      2       H      2       1.000          0.438                         0.562
      3       C      3       4.000          5.041                        -1.041
      4       H      2       1.000          0.557                         0.443
      5       H      2       1.000          0.556                         0.444
      6       H      2       1.000          0.559                         0.441
      7       O      1       6.000          6.776                        -0.776
      8       H      2       1.000          0.424                         0.576
      9       C      3       4.000          5.094                        -1.094
     10       H      2       1.000          0.568                         0.432
     11       H      2       1.000          0.561                         0.439
     12       H      2       1.000          0.567                         0.433

  Total Charge                                                            0.011
 !-----------------------------------------------------------------------------!

 ENERGY| Total FORCE_EVAL ( QS ) energy (a.u.):              -48.171156580120233


 --------  Informations at step =     2 ------------
  Optimization Method        =                 BFGS
  Total Energy               =       -48.1711565801
  Real energy change         =        -0.0012320543
  Predicted change in energy =        -0.0014414849
  Scaling factor             =         0.0000000000
  Step size                  =         0.0396018266
  Trust radius               =         0.4724315332
  Decrease in energy         =                  YES
  Used time                  =               25.378

  Convergence check :
  Max. step size             =         0.0396018266
  Conv. limit for step size  =         0.0030000000
  Convergence in step size   =                   NO
  RMS step size              =         0.0194224383
  Conv. limit for RMS step   =         0.0015000000
  Convergence in RMS step    =                   NO
  Max. gradient              =         0.0083460236
  Conv. limit for gradients  =         0.0004500000
  Conv. for gradients        =                   NO
  RMS gradient               =         0.0026281968
  Conv. limit for RMS grad.  =         0.0003000000
  Conv. for gradients        =                   NO
 ---------------------------------------------------

 --------------------------
 OPTIMIZATION STEP:      3
 --------------------------

 Number of electrons:                                                         28
 Number of occupied orbitals:                                                 14
 Number of molecular orbitals:                                                14

 Number of orbital functions:                                                 92
 Number of independent orbital functions:                                     92

 Parameters for the always stable predictor-corrector (ASPC) method:

  ASPC order: 1

  B(1) =   2.500000
  B(2) =  -2.000000
  B(3) =   0.500000

 Extrapolation method: ASPC


 SCF WAVEFUNCTION OPTIMIZATION

  ----------------------------------- OT ---------------------------------------
  Minimizer      : CG                  : conjugate gradient
  Preconditioner : FULL_ALL            : diagonalization, state selective
  Precond_solver : DEFAULT
  Line search    : 2PNT                : 2 energies, one gradient
  stepsize       :    0.15000000                  energy_gap     :    0.08000000
  eps_taylor     :   0.10000E-15                  max_taylor     :             4
  ----------------------------------- OT ---------------------------------------

  Step     Update method      Time    Convergence         Total energy    Change
  ------------------------------------------------------------------------------
     1 OT CG       0.15E+00    1.4     0.00385837       -48.1691116629 -4.82E+01
     2 OT LS       0.23E+00    0.9                      -48.1710376996
     3 OT CG       0.23E+00    2.0     0.00136068       -48.1712869760 -2.18E-03
     4 OT LS       0.94E-01    1.3                      -48.1711768629
     5 OT CG       0.94E-01    2.5     0.00020281       -48.1713991616 -1.12E-04
     6 OT LS       0.16E+00    1.2                      -48.1714026767
     7 OT CG       0.16E+00    2.5     0.00003108       -48.1714033777 -4.22E-06
     8 OT LS       0.16E+00    1.2                      -48.1714034799
     9 OT CG       0.16E+00    2.4     0.00001113       -48.1714034800 -1.02E-07
    10 OT LS       0.11E+00    1.2                      -48.1714034871
    11 OT CG       0.11E+00    2.5     0.00000313       -48.1714034890 -8.97E-09

  *** SCF run converged in    11 steps ***


  Electronic density on regular grids:        -28.0000000000       -0.0000000000
  Core density on regular grids:               28.0000000000       -0.0000000000
  Total charge density on r-space grids:       -0.0000000000
  Total charge density g-space grids:          -0.0000000000

  Overlap energy of the core charge distribution:               0.00000148109951
  Self energy of the core charge distribution:               -121.00622168248329
  Core Hamiltonian energy:                                     36.18721476810202
  Hartree energy:                                              50.03950426228994
  Exchange-correlation energy:                                -13.38868357042601
  Dispersion energy:                                           -0.00321874759474

  Total energy:                                               -48.17140348901256

  outer SCF iter =    1 RMS gradient =   0.31E-05 energy =        -48.1714034890
  outer SCF loop converged in   1 iterations or   11 steps


 !-----------------------------------------------------------------------------!
                     Mulliken Population Analysis

 #  Atom  Element  Kind  Atomic population                           Net charge
       1     O        1          6.218960                             -0.218960
       2     H        2          0.838857                              0.161143
       3     C        3          4.149227                             -0.149227
       4     H        2          0.912984                              0.087016
[...]
  ----------------------------------- OT ---------------------------------------

  Step     Update method      Time    Convergence         Total energy    Change
  ------------------------------------------------------------------------------
     1 OT CG       0.15E+00    1.4     0.00228661       -48.1724015060 -4.82E+01
     2 OT LS       0.25E+00    0.9                      -48.1731033051
     3 OT CG       0.25E+00    1.9     0.00020388       -48.1732286809 -8.27E-04
     4 OT LS       0.14E+00    0.9                      -48.1732305591
     5 OT CG       0.14E+00    1.9     0.00005139       -48.1732325161 -3.84E-06
     6 OT LS       0.13E+00    0.9                      -48.1732327409
     7 OT CG       0.13E+00    2.2     0.00001208       -48.1732327423 -2.26E-07
     8 OT LS       0.14E+00    0.9                      -48.1732327557
     9 OT CG       0.14E+00    1.9     0.00000433       -48.1732327558 -1.36E-08

  *** SCF run converged in     9 steps ***


  Electronic density on regular grids:        -28.0000000000        0.0000000000
  Core density on regular grids:               28.0000000000       -0.0000000000
  Total charge density on r-space grids:        0.0000000000
  Total charge density g-space grids:           0.0000000000

  Overlap energy of the core charge distribution:               0.00000147432953
  Self energy of the core charge distribution:               -121.00622168248329
  Core Hamiltonian energy:                                     36.15676935850874
  Hartree energy:                                              50.06068630233536
  Exchange-correlation energy:                                -13.38125735319521
  Dispersion energy:                                           -0.00321085532805

  Total energy:                                               -48.17323275583293

  outer SCF iter =    1 RMS gradient =   0.43E-05 energy =        -48.1732327558
  outer SCF loop converged in   1 iterations or    9 steps


 !-----------------------------------------------------------------------------!
                     Mulliken Population Analysis

 #  Atom  Element  Kind  Atomic population                           Net charge
       1     O        1          6.224810                             -0.224810
       2     H        2          0.839019                              0.160981
       3     C        3          4.159424                             -0.159424
       4     H        2          0.911225                              0.088775
       5     H        2          0.907499                              0.092501
       6     H        2          0.912242                              0.087758
       7     O        1          6.226151                             -0.226151
       8     H        2          0.864597                              0.135403
       9     C        3          4.198096                             -0.198096
      10     H        2          0.922381                              0.077619
      11     H        2          0.915399                              0.084601
      12     H        2          0.919160                              0.080840
 # Total charge                             28.000000                  0.000000

 !-----------------------------------------------------------------------------!

 !-----------------------------------------------------------------------------!
                           Hirshfeld Charges

  #Atom  Element  Kind  Ref Charge     Population                    Net charge
      1       O      1       6.000          6.837                        -0.837
      2       H      2       1.000          0.439                         0.561
      3       C      3       4.000          5.054                        -1.054
      4       H      2       1.000          0.560                         0.440
      5       H      2       1.000          0.555                         0.445
      6       H      2       1.000          0.559                         0.441
      7       O      1       6.000          6.779                        -0.779
      8       H      2       1.000          0.429                         0.571
      9       C      3       4.000          5.083                        -1.083
     10       H      2       1.000          0.568                         0.432
     11       H      2       1.000          0.561                         0.439
     12       H      2       1.000          0.566                         0.434

  Total Charge                                                            0.011
 !-----------------------------------------------------------------------------!

 ENERGY| Total FORCE_EVAL ( QS ) energy (a.u.):              -48.173232755832927


 -------------------------------------------------------------------------------
 -                                                                             -
 -                                DBCSR STATISTICS                             -
 -                                                                             -
 -------------------------------------------------------------------------------
 COUNTER                                    TOTAL       BLAS       SMM       ACC
 flops    14 x    14 x    14             26671680     100.0%      0.0%      0.0%
 flops     5 x     5 x    14             29584800     100.0%      0.0%      0.0%
 flops    13 x     5 x    14             29913520     100.0%      0.0%      0.0%
 flops    23 x    14 x     5             32509120     100.0%      0.0%      0.0%
 flops    23 x    14 x    14             33548536     100.0%      0.0%      0.0%
 flops    25 x    14 x     5             35336000     100.0%      0.0%      0.0%
 flops    25 x    14 x    14             36465800     100.0%      0.0%      0.0%
 flops     5 x    13 x    14             38460240     100.0%      0.0%      0.0%
 flops    23 x    14 x    13             42261856     100.0%      0.0%      0.0%
 flops    14 x    14 x     5             42649600     100.0%      0.0%      0.0%
 flops    25 x    14 x    13             45936800     100.0%      0.0%      0.0%
 flops    14 x    14 x    13             55444480     100.0%      0.0%      0.0%
 flops    13 x    13 x    14             55553680     100.0%      0.0%      0.0%
 flops    44 x    14 x     5             62191360     100.0%      0.0%      0.0%
 flops    44 x    14 x    14             64179808     100.0%      0.0%      0.0%
 flops    44 x    14 x    13             80848768     100.0%      0.0%      0.0%
 flops     5 x    14 x     5            111507200     100.0%      0.0%      0.0%
 flops     5 x    14 x    13            144959360     100.0%      0.0%      0.0%
 flops    13 x    14 x     5            144959360     100.0%      0.0%      0.0%
 flops    13 x    14 x    13            188447168     100.0%      0.0%      0.0%
 flops inhomo. stacks                           0       0.0%      0.0%      0.0%
 flops total                         1.301429E+09     100.0%      0.0%      0.0%
 flops max/rank                    646.149112E+06     100.0%      0.0%      0.0%
 matmuls inhomo. stacks                         0       0.0%      0.0%      0.0%
 matmuls total                             544083     100.0%      0.0%      0.0%
 number of processed stacks                281003     100.0%      0.0%      0.0%
 average stack size                                     1.9       0.0       0.0
 marketing flops                     1.429305E+09
 -------------------------------------------------------------------------------
 # multiplications                          16313
 max memory usage/rank             695.934976E+06
 # max total images/rank                        5
 # max 3D layers                                1
 # MPI messages exchanged                41108760
 MPI messages size (bytes):
  total size                         3.890720E+09
  min size                           0.000000E+00
  max size                           4.928000E+03
  average size                      94.644554E+00
 MPI breakdown and total messages size (bytes):
             size <=      128            38563146                        0
       128 < size <=     8192             2545614               3890720160
      8192 < size <=    32768                   0                        0
     32768 < size <=   131072                   0                        0
    131072 < size <=  4194304                   0                        0
   4194304 < size <= 16777216                   0                        0
  16777216 < size                               0                        0
 -------------------------------------------------------------------------------

 *** WARNING in dbcsr/mm/dbcsr_mm.F:268 :: Using a non-square number of ***
 *** MPI ranks might lead to poor performance.                          ***
 *** Used ranks: 40                                                     ***
 *** Suggested: 36 81                                                   ***

 -------------------------------------------------------------------------------
 
 MEMORY| Estimated peak process memory [MiB]                                 665

 -------------------------------------------------------------------------------
 ----                             MULTIGRID INFO                            ----
 -------------------------------------------------------------------------------
 count for grid        1:         244827          cutoff [a.u.]          600.00
 count for grid        2:         271263          cutoff [a.u.]          200.00
 count for grid        3:         276734          cutoff [a.u.]           66.67
 count for grid        4:         237178          cutoff [a.u.]           22.22
 count for grid        5:         140335          cutoff [a.u.]            7.41
 total gridlevel count  :        1170337

 -------------------------------------------------------------------------------
 -                                                                             -
 -                         MESSAGE PASSING PERFORMANCE                         -
 -                                                                             -
 -------------------------------------------------------------------------------

 ROUTINE             CALLS      AVE VOLUME [Bytes]
 MP_Group             1737
 MP_Bcast            10205                  55169.
 MP_Allreduce       115781                     44.
 MP_Sync               617
 MP_Alltoall         92195                4394141.
 MP_SendRecv         13416                    103.
 MP_ISendRecv       201006                  99157.
 MP_Wait           1967553
 MP_comm_split         612
 MP_ISend          2318302                  40677.
 MP_IRecv          2315668                  40609.
 MP_Recv               680                   1152.
 MP_Memory         2065776
 -------------------------------------------------------------------------------


 -------------------------------------------------------------------------------
 -                                                                             -
 -                           R E F E R E N C E S                               -
 -                                                                             -
 -------------------------------------------------------------------------------
 
 CP2K version 7.0 (Development Version), the CP2K developers group (2018).
 CP2K is freely available from https://www.cp2k.org/ .

 Schuett, Ole; Messmer, Peter; Hutter, Juerg; VandeVondele, Joost. 
 Electronic Structure Calculations on Graphics Processing Units, John Wiley & Sons, Ltd, 173-190 (2016). 
 GPU-Accelerated Sparse Matrix-Matrix Multiplication for Linear Scaling Density Functional Theory.
 http://dx.doi.org/10.1002/9781118670712.ch8


 Borstnik, U; VandeVondele, J; Weber, V; Hutter, J. 
 PARALLEL COMPUTING, 40 (5-6), 47-58 (2014). 
 Sparse matrix multiplication: The distributed block-compressed sparse
 row library.
 http://dx.doi.org/10.1016/j.parco.2014.03.012


 Hutter, J; Iannuzzi, M; Schiffmann, F; VandeVondele, J. 
 WILEY INTERDISCIPLINARY REVIEWS-COMPUTATIONAL MOLECULAR SCIENCE, 4 (1), 15-25 (2014). 
 CP2K: atomistic simulations of condensed matter systems.
 http://dx.doi.org/10.1002/wcms.1159


 Grimme, S; Ehrlich, S; Goerigk, L. 
 JOURNAL OF COMPUTATIONAL CHEMISTRY, 32, 1456 (2011). 
 Effect of the damping function in dispersion corrected density functional theory.
 http://dx.doi.org/10.1002/jcc.21759


 Grimme, S; Antony, J; Ehrlich, S; Krieg, H. 
 JOURNAL OF CHEMICAL PHYSICS, 132 (15), 154104 (2010). 
 A consistent and accurate ab initio parametrization of density
 functional dispersion correction (DFT-D) for the 94 elements H-Pu.
 http://dx.doi.org/10.1063/1.3382344


 VandeVondele, J; Hutter, J. 
 JOURNAL OF CHEMICAL PHYSICS, 127 (11), 114105 (2007). 
 Gaussian basis sets for accurate calculations on molecular systems in
 gas and condensed phases.
 http://dx.doi.org/10.1063/1.2770708


 Krack, M. 
 THEORETICAL CHEMISTRY ACCOUNTS, 114 (1-3), 145-152 (2005). 
 Pseudopotentials for H to Kr optimized for gradient-corrected
 exchange-correlation functionals.
 http://dx.doi.org/10.1007/s00214-005-0655-y


 VandeVondele, J; Krack, M; Mohamed, F; Parrinello, M; Chassaing, T;
 Hutter, J. COMPUTER PHYSICS COMMUNICATIONS, 167 (2), 103-128 (2005). 
 QUICKSTEP: Fast and accurate density functional calculations using a
 mixed Gaussian and plane waves approach.
 http://dx.doi.org/10.1016/j.cpc.2004.12.014


 Frigo, M; Johnson, SG. 
 PROCEEDINGS OF THE IEEE, 93 (2), 216-231 (2005). 
 The design and implementation of FFTW3.
 http://dx.doi.org/10.1109/JPROC.2004.840301


 Kolafa, J. 
 JOURNAL OF COMPUTATIONAL CHEMISTRY, 25 (3), 335-342 (2004). 
 Time-reversible always stable predictor-corrector method for molecular dynamics of polarizable molecules.
 http://dx.doi.org/10.1002/jcc.10385


 VandeVondele, J; Hutter, J. 
 JOURNAL OF CHEMICAL PHYSICS, 118 (10), 4365-4369 (2003). 
 An efficient orbital transformation method for electronic structure
 calculations.
 http://dx.doi.org/10.1063/1.1543154


 Hartwigsen, C; Goedecker, S; Hutter, J. 
 PHYSICAL REVIEW B, 58 (7), 3641-3662 (1998). 
 Relativistic separable dual-space Gaussian pseudopotentials from H to Rn.
 http://dx.doi.org/10.1103/PhysRevB.58.3641


 Lippert, G; Hutter, J; Parrinello, M. 
 MOLECULAR PHYSICS, 92 (3), 477-487 (1997). 
 A hybrid Gaussian and plane wave density functional scheme.
 http://dx.doi.org/10.1080/002689797170220


 Perdew, JP; Burke, K; Ernzerhof, M. 
 PHYSICAL REVIEW LETTERS, 77 (18), 3865-3868 (1996). 
 Generalized gradient approximation made simple.
 http://dx.doi.org/10.1103/PhysRevLett.77.3865


 Goedecker, S; Teter, M; Hutter, J. 
 PHYSICAL REVIEW B, 54 (3), 1703-1710 (1996). 
 Separable dual-space Gaussian pseudopotentials.
 http://dx.doi.org/10.1103/PhysRevB.54.1703


 -------------------------------------------------------------------------------
 -                                                                             -
 -                                T I M I N G                                  -
 -                                                                             -
 -------------------------------------------------------------------------------
 SUBROUTINE                       CALLS  ASD         SELF TIME        TOTAL TIME
                                MAXIMUM       AVERAGE  MAXIMUM  AVERAGE  MAXIMUM
 CP2K                                 1  1.0    0.288    0.292 2029.976 2029.977
 cp_geo_opt                           1  2.0    0.032    0.032 2028.279 2028.279
 geoopt_bfgs                          1  3.0    0.124    0.129 2028.247 2028.249
 cp_eval_at                          87  4.0    0.020    0.027 2011.009 2011.011
 qs_forces                           86  5.0    0.018    0.018 1996.413 1996.413
 qs_energies                         87  6.0    0.020    0.055 1835.865 1835.879
 scf_env_do_scf                      87  7.0    0.011    0.080 1721.511 1721.601
 scf_env_do_scf_inner_loop         1001  8.0    0.040    0.083 1576.495 1576.548
 rebuild_ks_matrix                 1087  9.8    0.003    0.003 1285.269 1285.565
 qs_ks_build_kohn_sham_matrix      1087 10.8    0.149    0.175 1285.266 1285.561
 qs_ks_update_qs_env               1088  9.0    0.009    0.010 1111.778 1111.992
 pw_transfer                      18350 13.2    1.942    2.285 1083.781 1096.435
 fft_wrap_pw1pw2                  16176 14.3    0.184    0.222 1068.516 1081.025
 fft_wrap_pw1pw2_600               9304 15.5  108.468  115.383  996.460 1006.539
 fft3d_ps                         16176 16.3  355.150  362.507  818.470  845.563
 qs_vxc_create                     1087 11.8    0.024    0.038  818.851  819.754
 xc_vxc_pw_create                   630 12.6   38.957   41.651  620.350  621.248
 qs_rho_update_rho                 1088  9.1    0.008    0.030  618.409  618.475
 calculate_rho_elec                1088 10.1   18.710   54.825  618.401  618.466
 density_rs2pw                     1088 11.1    0.080    0.096  548.374  562.123
 rs_pw_transfer                    8937 12.9    0.093    0.121  479.208  493.453
 xc_rho_set_and_dset_create        1087 13.8    5.802    6.014  440.869  446.207
 mp_alltoall_z22v                 16176 18.3  351.418  368.246  351.418  368.246
 sum_up_and_integrate               630 11.6    4.371    4.437  299.939  300.074
 integrate_v_rspace                 630 12.6    8.528   26.730  295.567  295.756
 potential_pw2rs                    630 13.6    0.505    0.549  266.216  266.430
 x_to_yz                           7499 18.0   64.867   65.683  255.356  260.252
 mp_waitany                      181584 14.8  213.159  241.063  213.159  241.063
 yz_to_x                           6959 16.7   45.786   49.295  206.581  221.919
 rs_pw_transfer_RS2PW_600          1262 12.9   82.523   93.840  192.773  207.260
 xc_exc_calc                        457 13.0    2.058    2.111  198.477  198.522
 qs_ks_update_qs_env_forces          86  6.0    0.000    0.001  173.983  174.037
 init_scf_loop                       87  8.0    0.008    0.009  144.775  144.788
 rs_pw_transfer_PW2RS_600           803 14.7   54.372   58.245  143.379  144.396
 mp_waitall_1                   1785969 16.8   77.007   94.553   77.007   94.553
 pw_scatter_p                      8129 17.0   80.933   82.757   80.933   82.757
 pw_poisson_solve                  1087 11.8   35.650   36.277   66.760   66.818
 mp_sum_d                         16927 13.7   62.175   65.974   62.175   65.974
 pw_gather_p                       8047 15.6   55.548   59.573   55.548   59.573
 pw_derive                         5409 14.1   58.004   59.539   58.004   59.539
 fft_wrap_pw1pw2_200               1718 15.0    4.088    4.408   54.065   56.336
 init_scf_run                        87  7.0    0.004    0.010   51.206   51.208
 scf_env_initial_rho_setup           87  8.0    0.002    0.005   51.201   51.201
 wfi_extrapolate                     87  9.0    0.011    0.049   50.407   50.424
 pw_copy                          11017 14.1   48.001   48.441   48.001   48.441
 rs_grid_zero                      7047 12.1   44.698   45.902   44.698   45.902
 rs_pw_transfer_RS2PW_200          1088 13.1   14.789   16.608   40.992   41.554
 -------------------------------------------------------------------------------

 The number of warnings for this run is : 1
 
 -------------------------------------------------------------------------------
  **** **** ******  **  PROGRAM ENDED AT                 2019-05-27 14:10:47.782
 ***** ** ***  *** **   PROGRAM RAN ON            blg9216.int.ets1.calculquebec.
 **    ****   ******    PROGRAM RAN BY                                       rzk
 ***** **    ** ** **   PROGRAM PROCESS ID                                307126
  **** **  *******  **  PROGRAM STOPPED IN /lustre03/project/6004141/rzk/GaN-car
                                           bene/334-native/05-2Methanol/00-vacuu
                                           m
