      12
 i =        1, E =       -48.1699245258
  O         1.5504208201        5.0598076339       21.2285770894
  H         1.0072800547        5.4068668286       20.4870482203
  C         0.8341464917        3.9857376049       21.8812611108
  H         0.1112335481        3.5333131383       21.1907910088
  H         1.5588998329        3.2183848451       22.1863854186
  H         0.3144015696        4.3720740290       22.7698472444
  O         4.2509941308        4.7314417487       21.0413929208
  H         3.2552475039        4.8453103395       21.0898380258
  C         4.5271243253        3.6285457717       21.9263121478
  H         4.1258727957        2.6622584454       21.5775418043
  H         5.6187600407        3.5071521360       21.9659863768
  H         4.1905502626        3.7812644898       22.9641781404
      12
 i =        2, E =       -48.1711565801
  O         1.5384713741        5.0646249736       21.2245591132
  H         1.0167599161        5.4087014102       20.4973052727
  C         0.8217341031        3.9877289166       21.8754759567
  H         0.1001750061        3.5167368774       21.1994944699
  H         1.5601586367        3.2330297164       22.1824416851
  H         0.3083769373        4.3653632038       22.7704801375
  O         4.2460336803        4.7104853646       21.0562397249
  H         3.2751417750        4.8609101770       21.0727321047
  C         4.5428569670        3.6210526117       21.9303960372
  H         4.1147067313        2.6680347401       21.5734603699
  H         5.6352702009        3.5116868155       21.9651825104
  H         4.1854054482        3.7836066608       22.9613691688
      12
 i =        3, E =       -48.1714034898
  O         1.5354507588        5.0669687483       21.2291574143
  H         1.0087584528        5.4108736656       20.4952229324
  C         0.8199945864        3.9881187104       21.8759293168
  H         0.0971735407        3.5134461037       21.2020044966
  H         1.5591985811        3.2347940480       22.1810030061
  H         0.3015781039        4.3636482263       22.7690447489
  O         4.2581693582        4.7106165913       21.0588736316
  H         3.2858604617        4.8605533060       21.0717148895
  C         4.5414594156        3.6174848735       21.9304032788
  H         4.1164807685        2.6645720077       21.5707578375
  H         5.6342378036        3.5110222929       21.9647744104
  H         4.1865006208        3.7900715675       22.9604937918
      12
 i =        4, E =       -48.1715978228
  O         1.5259189736        5.0702032384       21.2322535653
  H         0.9942634867        5.4145708927       20.4953574654
  C         0.8146439633        3.9889342242       21.8772284420
  H         0.0929805668        3.5080633864       21.2041406117
  H         1.5569604486        3.2397485366       22.1805903855
  H         0.2887872199        4.3592194785       22.7684097576
  O         4.2753082355        4.7100018824       21.0568988565
  H         3.3043786030        4.8642190209       21.0670815599
  C         4.5463626675        3.6179236011       21.9293233534
  H         4.1193323505        2.6649260848       21.5708292233
  H         5.6376819705        3.5015659760       21.9691889759
  H         4.1876157495        3.7930665527       22.9582216854
      12
 i =        5, E =       -48.1717954544
  O         1.5089822333        5.0745168303       21.2337610441
  H         0.9685231302        5.4197205287       20.5011607443
  C         0.8035617792        3.9898328777       21.8776245215
  H         0.0870846985        3.4994619688       21.2040698578
  H         1.5521042913        3.2492834907       22.1836430471
  H         0.2692384395        4.3523342990       22.7677580253
  O         4.3041196674        4.7080793050       21.0527876631
  H         3.3360267753        4.8724482013       21.0579371079
  C         4.5557312813        3.6163852939       21.9285682625
  H         4.1221683295        2.6662141930       21.5693075790
  H         5.6453109938        3.4861569540       21.9787239914
  H         4.1912428169        3.7985889709       22.9545283938
      12
 i =        6, E =       -48.1719295777
  O         1.4935872883        5.0759249695       21.2319891179
  H         0.9432222710        5.4258872100       20.5104519607
  C         0.7936202324        3.9893606042       21.8783318575
  H         0.0844242781        3.4929274098       21.2015289082
  H         1.5466957081        3.2558860498       22.1896696120
  H         0.2514121777        4.3486326284       22.7656130771
  O         4.3285633886        4.7066103247       21.0475695721
  H         3.3630477387        4.8818499639       21.0481321826
  C         4.5659755543        3.6142472419       21.9290067397
  H         4.1239355997        2.6687378782       21.5681080171
  H         5.6538223850        3.4708687333       21.9886768829
  H         4.1950547571        3.8026905033       22.9511518550
      12
 i =        7, E =       -48.1720151429
  O         1.4823554529        5.0752946084       21.2278364572
  H         0.9163935953        5.4333234729       20.5257650600
  C         0.7830981168        3.9895715637       21.8765904874
  H         0.0829381741        3.4838839072       21.1981695317
  H         1.5389225540        3.2627887953       22.1985521241
  H         0.2339792617        4.3468623980       22.7607257032
  O         4.3533556161        4.7063774547       21.0421448091
  H         3.3904701848        4.8905215661       21.0378476350
  C         4.5754231369        3.6113368167       21.9298785751
  H         4.1250436485        2.6711512500       21.5671419942
  H         5.6614843561        3.4569682961       21.9976836562
  H         4.1995722302        3.8066024124       22.9481738257
      12
 i =        8, E =       -48.1720668692
  O         1.4771786209        5.0693413575       21.2223160445
  H         0.9010486484        5.4435223952       20.5381494109
  C         0.7778812415        3.9870754252       21.8770843839
  H         0.0845432779        3.4784823393       21.1947631209
  H         1.5346321704        3.2641873600       22.2067642824
  H         0.2225707702        4.3502038322       22.7548924324
  O         4.3661059853        4.7063790546       21.0399618661
  H         3.4045746204        4.8951380387       21.0309202208
  C         4.5810931498        3.6092258647       21.9309259828
  H         4.1249625588        2.6730906757       21.5665590915
  H         5.6659178126        3.4498634471       22.0015986639
  H         4.2022723521        3.8089549251       22.9466564407
      12
 i =        9, E =       -48.1721736913
  O         1.4756590634        5.0527547868       21.2074216121
  H         0.8702618252        5.4688010763       20.5716501951
  C         0.7674563035        3.9836628493       21.8738345226
  H         0.0878869556        3.4614133151       21.1889733620
  H         1.5224368849        3.2686816513       22.2269896215
  H         0.1995882501        4.3585427578       22.7386350144
  O         4.3904994236        4.7079635200       21.0360988829
  H         3.4314445018        4.9015865073       21.0169055984
  C         4.5907428028        3.6066250926       21.9322935844
  H         4.1247774259        2.6772515936       21.5660343693
  H         5.6730548189        3.4367846431       22.0075017477
  H         4.2084814396        3.8129269104       22.9444317299
      12
 i =       10, E =       -48.1722624175
  O         1.4812099669        5.0259385102       21.1855203663
  H         0.8465017170        5.5066699055       20.6168851843
  C         0.7588959489        3.9769334098       21.8683770081
  H         0.0933560876        3.4367438278       21.1835801035
  H         1.5084990294        3.2715586218       22.2543404028
  H         0.1758414411        4.3747691236       22.7133155498
  O         4.4101046153        4.7107621204       21.0357041222
  H         3.4525522652        4.9030918183       21.0023703112
  C         4.5974831267        3.6054942415       21.9329879352
  H         4.1232074110        2.6818135424       21.5652948515
  H         5.6777365537        3.4281226486       22.0085523110
  H         4.2155375225        3.8169415161       22.9437159722
      12
 i =       11, E =       -48.1724356790
  O         1.4932009962        5.0192263257       21.1819770811
  H         0.8687950214        5.5115180858       20.6219788603
  C         0.7649645949        3.9749708479       21.8654332022
  H         0.0962586477        3.4318681494       21.1857077121
  H         1.5089313106        3.2683177588       22.2577516250
  H         0.1833093760        4.3827799168       22.7057465315
  O         4.3937408346        4.7126127620       21.0410427675
  H         3.4339661461        4.8941565813       21.0063947097
  C         4.5902318586        3.6086558719       21.9319906505
  H         4.1212130492        2.6814832089       21.5658355330
  H         5.6717758620        3.4385509457       21.9997338973
  H         4.2145548913        3.8145832577       22.9468051328
      12
 i =       12, E =       -48.1725601267
  O         1.5179725858        4.9873998864       21.1615712671
  H         0.8925112693        5.5415683838       20.6577051454
  C         0.7670123268        3.9699562074       21.8594374864
  H         0.1048986642        3.4101795486       21.1837295908
  H         1.5024789138        3.2702946450       22.2781492082
  H         0.1777015139        4.4019104519       22.6815938122
  O         4.3782950899        4.7179362158       21.0482377850
  H         3.4139185513        4.8809768435       21.0038350483
  C         4.5842565473        3.6153216984       21.9300576137
  H         4.1171528966        2.6850607898       21.5663315093
  H         5.6671916866        3.4461959068       21.9883970659
  H         4.2168648050        3.8127084332       22.9510287971
      12
 i =       13, E =       -48.1725884954
  O         1.5187895062        4.9880613923       21.1639588098
  H         0.9048034299        5.5363925322       20.6521908027
  C         0.7685684756        3.9707716408       21.8600023911
  H         0.1044670335        3.4126775121       21.1839629278
  H         1.5050709151        3.2732505764       22.2769331813
  H         0.1788217919        4.3987798000       22.6831023315
  O         4.3721354120        4.7186741599       21.0489976068
  H         3.4057881895        4.8783606275       21.0066272023
  C         4.5827781747        3.6173759390       21.9291478567
  H         4.1164978443        2.6852771197       21.5659193553
  H         5.6668232365        3.4472687474       21.9877553502
  H         4.2158748736        3.8121418987       22.9515405718
      12
 i =       14, E =       -48.1726185366
  O         1.5167497423        4.9815315405       21.1588991337
  H         0.9005369093        5.5463945733       20.6644700278
  C         0.7650339892        3.9685517988       21.8580715400
  H         0.1050898501        3.4047816616       21.1823048487
  H         1.5005225740        3.2768658498       22.2869945813
  H         0.1681526943        4.4012231398       22.6747074150
  O         4.3803786036        4.7193970090       21.0483169140
  H         3.4143385476        4.8790423816       21.0022815847
  C         4.5858634948        3.6169598928       21.9292614705
  H         4.1158307878        2.6871915726       21.5646850841
  H         5.6694054723        3.4429931071       21.9893627839
  H         4.2184542451        3.8144541361       22.9508994650
      12
 i =       15, E =       -48.1726364498
  O         1.5158580980        4.9695750486       21.1503488542
  H         0.8985128660        5.5604118009       20.6848977776
  C         0.7585920823        3.9663690759       21.8555974889
  H         0.1086201931        3.3908487876       21.1791043665
  H         1.4916764609        3.2835867890       22.3023969225
  H         0.1504961509        4.4060629409       22.6609730242
  O         4.3910020583        4.7208721523       21.0474462222
  H         3.4254014103        4.8794717764       20.9964373712
  C         4.5901216742        3.6167547685       21.9293770500
  H         4.1148507018        2.6905048282       21.5632044410
  H         5.6726454520        3.4372906625       21.9906859912
  H         4.2224517919        3.8174380716       22.9500738281
      12
 i =       16, E =       -48.1726460185
  O         1.5141728809        4.9709018780       21.1517337253
  H         0.8987960467        5.5586539022       20.6843412530
  C         0.7576255008        3.9663738203       21.8556759762
  H         0.1090879395        3.3909210107       21.1786749909
  H         1.4903591002        3.2842045147       22.3033165221
  H         0.1484086727        4.4055433156       22.6602044592
  O         4.3923644715        4.7206083061       21.0466605262
  H         3.4272019487        4.8807704751       20.9966533524
  C         4.5910549718        3.6162593752       21.9295206744
  H         4.1151888441        2.6907020927       21.5633048306
  H         5.6731864191        3.4363847553       21.9913007632
  H         4.2227203570        3.8175928467       22.9495827073
      12
 i =       17, E =       -48.1726514265
  O         1.5162558585        4.9673952460       21.1503263011
  H         0.9031514483        5.5610133629       20.6894545283
  C         0.7564874890        3.9655367194       21.8550005199
  H         0.1113931506        3.3877982791       21.1774526006
  H         1.4871704032        3.2850202505       22.3080731633
  H         0.1443837590        4.4080492816       22.6549944684
  O         4.3916004948        4.7211323118       21.0467154301
  H         3.4263635475        4.8808326334       20.9968689948
  C         4.5913390690        3.6165222225       21.9293253905
  H         4.1151374247        2.6912425437       21.5637648081
  H         5.6731965117        3.4365033492       21.9902267985
  H         4.2235418950        3.8173844400       22.9495408478
      12
 i =       18, E =       -48.1726537442
  O         1.5179700306        4.9645898428       21.1492573335
  H         0.9062347867        5.5634976393       20.6939126317
  C         0.7552886230        3.9648890563       21.8545323073
  H         0.1131732078        3.3850550880       21.1761085764
  H         1.4841775232        3.2855387403       22.3122735321
  H         0.1404248567        4.4100700226       22.6504958623
  O         4.3915389670        4.7213479154       21.0467519352
  H         3.4263209332        4.8811716417       20.9973786426
  C         4.5915702613        3.6165996088       21.9291861643
  H         4.1151843706        2.6913558113       21.5639991002
  H         5.6734109205        3.4366127438       21.9892823810
  H         4.2243786591        3.8174003445       22.9496212903
      12
 i =       19, E =       -48.1726554766
  O         1.5191979504        4.9626657899       21.1490918806
  H         0.9086988590        5.5655582309       20.6974444029
  C         0.7539224158        3.9643270841       21.8541107211
  H         0.1144078619        3.3830187770       21.1744764863
  H         1.4812315831        3.2860004654       22.3160536263
  H         0.1362599536        4.4114577665       22.6464686658
  O         4.3919255845        4.7213025168       21.0466776494
  H         3.4267878300        4.8819016521       20.9984449891
  C         4.5920186111        3.6165672892       21.9290006830
  H         4.1154247073        2.6911870435       21.5642073798
  H         5.6739338419        3.4365067942       21.9886368893
  H         4.2252584779        3.8174292426       22.9496183834
      12
 i =       20, E =       -48.1726579988
  O         1.5205500976        4.9613851015       21.1503869236
  H         0.9117736649        5.5673632090       20.7006677693
  C         0.7518705904        3.9639124143       21.8537051734
  H         0.1157452482        3.3814389779       21.1717255545
  H         1.4769854595        3.2863763808       22.3202884464
  H         0.1303170768        4.4124949218       22.6418205360
  O         4.3925878580        4.7208530692       21.0465290260
  H         3.4275990054        4.8833146136       21.0009312251
  C         4.5928305717        3.6163023308       21.9287882503
  H         4.1161502594        2.6905939868       21.5644599471
  H         5.6748937775        3.4363171135       21.9879709635
  H         4.2265149482        3.8173517838       22.9495760268
      12
 i =       21, E =       -48.1726625474
  O         1.5222248516        4.9611259146       21.1549356998
  H         0.9164695495        5.5691117220       20.7039002634
  C         0.7480679409        3.9636061261       21.8530688094
  H         0.1174571057        3.3805428746       21.1662211301
  H         1.4696233904        3.2867325024       22.3262005686
  H         0.1200332293        4.4130508239       22.6352171824
  O         4.3938510524        4.7197832440       21.0463476495
  H         3.4291516231        4.8859417189       21.0062631705
  C         4.5945784552        3.6155786218       21.9285008061
  H         4.1179327026        2.6892656094       21.5648916085
  H         5.6768538733        3.4358234482       21.9872458399
  H         4.2287792435        3.8168927459       22.9494603952
      12
 i =       22, E =       -48.1726692180
  O         1.5239194353        4.9634846306       21.1647639954
  H         0.9226544717        5.5699040855       20.7054654017
  C         0.7421940370        3.9639962368       21.8523448240
  H         0.1195862185        3.3817369931       21.1571224419
  H         1.4584296549        3.2867387731       22.3328358516
  H         0.1046368743        4.4120877381       22.6274665002
  O         4.3956836047        4.7179682633       21.0464585009
  H         3.4314295503        4.8895904115       21.0151738396
  C         4.5975758454        3.6141200416       21.9283708756
  H         4.1212642747        2.6870658452       21.5654265841
  H         5.6801017451        3.4349946294       21.9865871142
  H         4.2323164483        3.8156262669       22.9494499022
      12
 i =       23, E =       -48.1726766425
  O         1.5248843841        4.9669644274       21.1750714601
  H         0.9277514061        5.5696522060       20.7046728646
  C         0.7371379695        3.9648420222       21.8515534785
  H         0.1212697901        3.3845234898       21.1486202122
  H         1.4489709454        3.2866096079       22.3371356405
  H         0.0915844931        4.4101279562       22.6221408991
  O         4.3967000985        4.7168524599       21.0474785264
  H         3.4326961140        4.8911987724       21.0224901353
  C         4.6003625358        3.6127629357       21.9286301239
  H         4.1243816547        2.6855032239       21.5656774096
  H         5.6830087795        3.4343247441       21.9861857476
  H         4.2356343323        3.8137894442       22.9498971895
      12
 i =       24, E =       -48.1726930441
  O         1.5297317946        4.9806342589       21.2140257235
  H         0.9489870773        5.5672139791       20.7000587912
  C         0.7197871605        3.9686850319       21.8487849060
  H         0.1287335059        3.3961479676       21.1174732004
  H         1.4151196993        3.2854370891       22.3511686346
  H         0.0458084755        4.4029972003       22.6034753713
  O         4.3972849990        4.7141198881       21.0533524843
  H         3.4335536563        4.8934471541       21.0474374481
  C         4.6095741972        3.6081188506       21.9302773072
  H         4.1354173693        2.6803774827       21.5664872582
  H         5.6928707713        3.4334837925       21.9834974848
  H         4.2478568586        3.8054584925       22.9530299577
      12
 i =       25, E =       -48.1727057955
  O         1.5285043526        4.9809453825       21.2144227816
  H         0.9491808105        5.5673171134       20.7004307921
  C         0.7198438920        3.9688134878       21.8485134683
  H         0.1297009032        3.3960774435       21.1176405724
  H         1.4152136757        3.2860289864       22.3511804698
  H         0.0456717462        4.4030340347       22.6028783535
  O         4.3970967277        4.7154210303       21.0548258687
  H         3.4330935334        4.8906710821       21.0445340396
  C         4.6097192022        3.6082684374       21.9308433931
  H         4.1350062156        2.6814559334       21.5661181696
  H         5.6929119233        3.4333244398       21.9833804567
  H         4.2484443599        3.8047395632       22.9538899628
      12
 i =       26, E =       -48.1727378096
  O         1.5302385528        4.9913944460       21.2474651907
  H         0.9710314704        5.5684804136       20.7028231175
  C         0.7042864888        3.9723474891       21.8449925898
  H         0.1419946747        3.4025521126       21.0903790156
  H         1.3840629356        3.2879258109       22.3673050673
  H         0.0025859383        4.3991495919       22.5798416652
  O         4.3963487740        4.7181120249       21.0660716566
  H         3.4308161844        4.8817790789       21.0544795622
  C         4.6179215063        3.6052270762       21.9344974936
  H         4.1426930955        2.6810404497       21.5658514073
  H         5.7016168717        3.4326891750       21.9789676075
  H         4.2620295247        3.7942744369       22.9607141901
      12
 i =       27, E =       -48.1727551282
  O         1.5341317578        5.0007253574       21.2773327823
  H         0.9931539697        5.5703333883       20.7068177244
  C         0.6904758213        3.9756402631       21.8419106643
  H         0.1548012801        3.4084155752       21.0655532772
  H         1.3544208376        3.2891614830       22.3823087463
  H        -0.0360423882        4.3966496414       22.5557168340
  O         4.3931178395        4.7196196871       21.0765739384
  H         3.4255454207        4.8736373786       21.0650714125
  C         4.6244066847        3.6027421438       21.9376557775
  H         4.1498333250        2.6794112001       21.5665501453
  H         5.7090942517        3.4338927895       21.9731489879
  H         4.2749002735        3.7836278249       22.9678075664
      12
 i =       28, E =       -48.1727624701
  O         1.5348918834        5.0004552641       21.2807960448
  H         0.9985649216        5.5746496892       20.7147257481
  C         0.6873224111        3.9759097036       21.8406153299
  H         0.1613103660        3.4061887024       21.0610695065
  H         1.3463640131        3.2913036609       22.3884840674
  H        -0.0459279882        4.3987497917       22.5432980564
  O         4.3917490531        4.7204994246       21.0806206018
  H         3.4227898926        4.8687713299       21.0637548638
  C         4.6255874122        3.6025912074       21.9387255264
  H         4.1506311038        2.6793269888       21.5673672786
  H         5.7106952819        3.4346475155       21.9700589427
  H         4.2795568675        3.7801868623       22.9709113484
      12
 i =       29, E =       -48.1727769257
  O         1.5356310298        5.0067486977       21.3038873713
  H         1.0119725697        5.5797720237       20.7231141340
  C         0.6738186058        3.9772421569       21.8374238711
  H         0.1718827712        3.4078707336       21.0402747467
  H         1.3196623770        3.2942691006       22.4041719387
  H        -0.0826223363        4.3977301251       22.5183574061
  O         4.3938814685        4.7191476108       21.0864475764
  H         3.4248940707        4.8673077595       21.0757926804
  C         4.6329435309        3.5993356553       21.9401913344
  H         4.1575711698        2.6760336410       21.5689471112
  H         5.7184926478        3.4328739052       21.9667357301
  H         4.2913359765        3.7737745776       22.9744214543
      12
 i =       30, E =       -48.1727850912
  O         1.5341999846        5.0151046872       21.3214224981
  H         1.0164211917        5.5818694415       20.7248349537
  C         0.6662151959        3.9793165858       21.8351341541
  H         0.1794374843        3.4125104763       21.0278527938
  H         1.3030002178        3.2959450011       22.4090413038
  H        -0.1017585493        4.3949334202       22.5031361585
  O         4.3933501005        4.7157912649       21.0898886612
  H         3.4250679579        4.8670390351       21.0877100695
  C         4.6376814218        3.5961869645       21.9412305521
  H         4.1635011463        2.6714009856       21.5712342252
  H         5.7236979842        3.4319927491       21.9644060457
  H         4.2992093936        3.7690996849       22.9766296388
      12
 i =       31, E =       -48.1728042597
  O         1.5327871853        5.0144992808       21.3280336601
  H         1.0193878563        5.5922258064       20.7396157129
  C         0.6584086868        3.9795449581       21.8310899251
  H         0.1893866382        3.4066550659       21.0172378058
  H         1.2857890054        3.3018868453       22.4232587339
  H        -0.1256812855        4.3968413775       22.4803783780
  O         4.3966143711        4.7123608182       21.0907790494
  H         3.4291624453        4.8680922687       21.0968045406
  C         4.6431619456        3.5935030169       21.9417786503
  H         4.1677933615        2.6684541177       21.5733318901
  H         5.7290816636        3.4285722263       21.9621697873
  H         4.3073849330        3.7675138354       22.9775737532
      12
 i =       32, E =       -48.1728270766
  O         1.5309477194        5.0188294438       21.3458830928
  H         1.0280534679        5.6070900406       20.7599025602
  C         0.6458330887        3.9824231442       21.8237709080
  H         0.2101784064        3.4011483951       20.9962486589
  H         1.2560304584        3.3120985633       22.4428802287
  H        -0.1642070455        4.3981999878       22.4424489624
  O         4.3956466717        4.7076902621       21.0962418108
  H         3.4280633916        4.8633943351       21.1131698855
  C         4.6514254645        3.5884039037       21.9439002929
  H         4.1756264477        2.6626033383       21.5778526586
  H         5.7379241505        3.4259275051       21.9559448479
  H         4.3229297569        3.7604006307       22.9823846063
      12
 i =       33, E =       -48.1728411152
  O         1.5277840794        5.0226884644       21.3522555404
  H         1.0284382066        5.6237997804       20.7788222104
  C         0.6426139588        3.9859687178       21.8150241602
  H         0.2325042828        3.3944676268       20.9852818019
  H         1.2402858121        3.3246311050       22.4531705399
  H        -0.1825126497        4.3999100017       22.4100933636
  O         4.3865536834        4.7011535306       21.1001551302
  H         3.4186674876        4.8553029298       21.1287485961
  C         4.6554693761        3.5830459749       21.9459916903
  H         4.1809930314        2.6550098732       21.5846351644
  H         5.7428740944        3.4259855181       21.9482976305
  H         4.3353475792        3.7539080898       22.9873690280
      12
 i =       34, E =       -48.1727016900
  O         1.5265818991        5.0510481305       21.4287969743
  H         1.0716525124        5.6647230548       20.8293822287
  C         0.6048555046        3.9984586344       21.7900221320
  H         0.3053529981        3.3921345243       20.9104278766
  H         1.1427351440        3.3542666606       22.5078141364
  H        -0.3063345944        4.3978668833       22.2869138062
  O         4.3652413644        4.6871259902       21.1277319972
  H         3.3947535448        4.8279280588       21.1882037453
  C         4.6794967273        3.5650957410       21.9560145664
  H         4.2088176059        2.6329063657       21.6013985389
  H         5.7704463445        3.4262232962       21.9214839048
  H         4.3894206412        3.7204358575       23.0100476423
      12
 i =       35, E =       -48.1728730695
  O         1.5285601782        5.0336295507       21.3709032110
  H         1.0392221502        5.6224317389       20.7747943818
  C         0.6376655638        3.9889901164       21.8131858035
  H         0.2407574568        3.4019253167       20.9725312359
  H         1.2286414338        3.3255412138       22.4546458904
  H        -0.1973519661        4.3955396737       22.4005600729
  O         4.3797713881        4.7004723378       21.1070714291
  H         3.4110112530        4.8486940336       21.1367072829
  C         4.6575467362        3.5805271314       21.9484825252
  H         4.1852933494        2.6519040392       21.5864101959
  H         5.7457503496        3.4288413087       21.9439543243
  H         4.3423744323        3.7463944519       22.9922983962
      12
 i =       36, E =       -48.1728910219
  O         1.5258004348        5.0418652039       21.3842819402
  H         1.0435967230        5.6287863737       20.7796999264
  C         0.6327475648        3.9915595359       21.8090337315
  H         0.2536767923        3.4034716818       20.9607492611
  H         1.2157809698        3.3309635925       22.4603533761
  H        -0.2146718947        4.3934716270       22.3821076484
  O         4.3746736809        4.6967203624       21.1116141214
  H         3.4058344109        4.8438526347       21.1479623667
  C         4.6611578985        3.5767406835       21.9503741513
  H         4.1902092151        2.6467268600       21.5902503695
  H         5.7498805800        3.4291460730       21.9395253273
  H         4.3514549006        3.7403847998       22.9961128060
      12
 i =       37, E =       -43.7852558681
  O         1.3273837954        5.2485139264       21.2165801683