     212
 i =       58, E =     -8504.7359832237
  N         0.0036175072        2.0474784839        2.4970806719
 Ga         0.0213097012        0.0808558858        2.8366653205
  N        -0.0081083438        0.0546049689        5.0095188744
 Ga        -0.0042855535        1.8822418079        5.7939806943
  N        -0.0062698379        1.8946521448        7.7954431143
 Ga        -0.0017423668        0.0492674230        8.4346985016
  N        -0.0043241950        0.0496472217       10.4127957437
 Ga        -0.0043518660        1.8878936774       11.0678417245
  N        -0.0058758569        1.8697987610       13.0636741314
 Ga        -0.0026644907        0.0495375880       13.8729048898
  N        -0.0037324094        0.0496452210       16.0668421023
 Ga        -0.0056613450        2.0911929762       16.4838162181
 Ga         0.0504177498        3.7349261037        1.3646554223
  N        -1.4701196907        4.6268194340        2.4654618038
 Ga        -1.6746194723        2.7926708965        3.2555379959
  N        -1.6129972801        2.8379024720        5.2391011038
 Ga        -1.6424708550        4.7003804621        5.8064778501
  N        -1.6234677271        4.6981383183        7.8004783720
 Ga        -1.6008912095        2.8394750660        8.4366605869
  N        -1.6019021654        2.8419067389       10.4313486736
 Ga        -1.6295341185        4.7013516249       11.0670330024
  N        -1.6453539645        4.7113499419       13.0607099517
 Ga        -1.6023304907        2.8428626098       13.6186350041
  N        -1.6356190098        2.8307428145       15.5797797094
 Ga        -1.4406449777        4.5955997385       16.4852123384
  N        -0.0049485731        3.7535361260       17.6243546842
  N        -3.2153817614        7.5878644526        2.4914213177
 Ga        -3.1917367026        5.6156224960        2.8334568411
  N        -3.2154916525        5.6130517264        5.0097097899
 Ga        -3.2292339283        7.4433895281        5.7801286921
  N        -3.2203565780        7.4673613040        7.7809990219
 Ga        -3.2222740996        5.6227782766        8.4384266706
  N        -3.2218529824        5.6226708339       10.4146752711
 Ga        -3.2231084240        7.4630729364       11.0635148023
  N        -3.2216552829        7.4440634151       13.0569031915
 Ga        -3.2140858162        5.6285188191       13.8591644184
  N        -3.2125568051        5.6286529517       16.0658796328
 Ga        -3.2205186379        7.6882348826       16.4994914044
 Ga        -3.2528318909        9.3583088795        1.2863485688
  N        -4.7271893773       10.2034709761        2.4998578208
 Ga        -4.9139836342        8.3545376692        3.2283497359
  N        -4.8328138710        8.4004881968        5.2152639980
 Ga        -4.8522996316       10.2750854788        5.7699137831
  N        -4.8378410473       10.2672447487        7.7777271360
 Ga        -4.8210114976        8.4130793879        8.4215676702
  N        -4.8183674601        8.4131932855       10.4201328407
 Ga        -4.8439707076       10.2711785436       11.0640136532
  N        -4.8606531665       10.2811579402       13.0591909834
 Ga        -4.8172080154        8.4141897287       13.6215643245
  N        -4.8463421868        8.3923014243       15.5789441414
 Ga        -4.6569095821       10.1638764472       16.4983718479
  N        -3.2262717652        9.3380120296       17.6515338060
  N         3.1952375624        1.9162821810        2.5999911016
 Ga         3.2073508389        0.1482993657        3.2413592469
  N         3.2143483483        0.0531162405        5.2260835598
 Ga         3.2093553734        1.9075419170        5.8626191158
  N         3.2139136786        1.9071275149        7.8431978969
 Ga         3.2086799902        0.0397075709        8.4246056603
  N         3.2103724384        0.0369679908       10.4226822975
 Ga         3.2104117970        1.9045140417       11.0233759432
  N         3.2123389523        1.9075583458       12.9978613709
 Ga         3.2105057258        0.0364783362       13.6207884030
  N         3.2146885477        0.0725942633       15.5784053964
 Ga         3.2090887437        1.9056581689       15.8570988776
  N         1.4726124086        4.6314833416        2.5318132301
 Ga         1.6855086855        2.7974942496        3.2957460150
  N         1.6034587425        2.8386684458        5.2610169295
 Ga         1.6519510155        4.7136382153        5.8158482654
  N         1.6027949658        4.6946481343        7.8212703050
 Ga         1.5930794900        2.8379235562        8.4356400877
  N         1.5924445805        2.8384680927       10.4330225097
 Ga         1.6180163152        4.7000865695       11.0627771144
  N         1.6326552850        4.7109038399       13.0587959871
 Ga         1.5910169549        2.8428808956       13.6177415216
  N         1.6237113202        2.8308553716       15.5796959889
 Ga         1.4292035491        4.5950944603       16.4851582098
  N        -0.0120573136        7.4670295602        2.6890005962
 Ga         0.0006162800        5.6162363974        3.3386263419
  N        -0.0078419741        5.6338433324        5.2672169037
 Ga        -0.0078102008        7.4751384117        5.8997185661
  N        -0.0040448459        7.4801742371        7.8588525006
 Ga        -0.0062773531        5.6065367766        8.4470846629
  N        -0.0080580009        5.6107094657       10.4373958175
 Ga        -0.0080469647        7.4794464680       11.0275147806
  N        -0.0067626980        7.4791986822       12.9973522190
 Ga        -0.0057003268        5.6095923143       13.6173857516
  N        -0.0055417538        5.6408864379       15.5775867870
 Ga        -0.0072998610        7.4794712908       15.8551741211
  N        -1.7066643339       10.2040318828        2.5023727601
 Ga        -1.6223565880        8.4078765817        3.2943412500
  N        -1.5995522827        8.3993980113        5.2365146117
 Ga        -1.5924692898       10.2835043033        5.7893885561
  N        -1.6030161560       10.2672586358        7.7862889857
 Ga        -1.6272257305        8.4137936906        8.4341011357
  N        -1.6257096308        8.4133891590       10.4261061168
 Ga        -1.6008039802       10.2719901546       11.0635864447
  N        -1.5832914200       10.2807863256       13.0569149948
 Ga        -1.6255289836        8.4137679063       13.6209690930
  N        -1.5970603795        8.3971379262       15.5778961523
 Ga        -1.7948006756       10.1578169819       16.4992210371
  N         6.4297285589        2.0300776988        2.5396383852
 Ga         6.4103372327        0.0494732506        2.8777771615
  N         6.4339686303        0.0516467089        5.0217100400
 Ga         6.4231923368        1.8862060440        5.7960720298
  N         6.4271445787        1.8956497209        7.7934129430
 Ga         6.4260150879        0.0510443663        8.4389072268
  N         6.4268164087        0.0502921630       10.4144947689
 Ga         6.4280004535        1.8892478695       11.0652560891
  N         6.4275076208        1.8688746777       13.0652563218
 Ga         6.4247465281        0.0411266783       13.8596043777
  N         6.4253330345        0.0395011104       16.0658048927
 Ga         6.4255682098        2.0444007978       16.4346285744
 Ga         6.4610074649        3.7348936270        1.5157734968
  N         4.9247584166        4.6287653214        2.4342046117
 Ga         4.6947795969        2.7963225026        3.2807971914
  N         4.8196203518        2.8424571143        5.2399776065
 Ga         4.7782821243        4.7174809356        5.8116375379
  N         4.8210608557        4.6922795671        7.8179679385
 Ga         4.8293155890        2.8392574811        8.4400125634
  N         4.8306917877        2.8394127550       10.4360195984
 Ga         4.8040490169        4.7023070905       11.0615723907
  N         4.7867400404        4.7119751465       13.0633102600
 Ga         4.8291701954        2.8422215410       13.6087956531
  N         4.8099818096        2.8330539853       15.5856274443
 Ga         4.9416115757        4.6222296590       16.4346747481
  N         6.4313476056        3.7617734541       17.5572620284
  N         3.2041470975        7.5975796479        2.4338278330
  N         3.2141402381        5.6245902947        5.1416843653
 Ga         3.2202821988        7.4219254049        5.8228879571
  N         3.2107499901        7.4813264563        7.8206855018
 Ga         3.2122134640        5.6202534930        8.4362068361
  N         3.2114117824        5.6220112014       10.4185335233
 Ga         3.2128152520        7.4612241303       11.0645090547
  N         3.2105763221        7.4439671277       13.0594243433
 Ga         3.2035776727        5.6257425146       13.8535664107
  N         3.2021995093        5.6266315505       16.0658845972
 Ga         3.2087672356        7.6782149094       16.4859901308
 Ga         3.2348721619        9.3774701268        1.4913452339
  N         1.7104464552       10.1889325062        2.5234869243
 Ga         1.5876256890        8.3609305208        3.3237243868
  N         1.5976240373        8.3957875507        5.2466245437
 Ga         1.5792757388       10.2793057633        5.8042685397
  N         1.5934806842       10.2667620423        7.7946318312
 Ga         1.6144717852        8.4153548047        8.4512641971
  N         1.6115373392        8.4149496037       10.4387689394
 Ga         1.5884581822       10.2740393952       11.0679883228
  N         1.5714445293       10.2822065606       13.0608821275
 Ga         1.6126203616        8.4130658821       13.6177337111
  N         1.5857316135        8.3971936389       15.5775762754
 Ga         1.7740243998       10.1622486268       16.4863007851
  N         3.2203379115        9.3399188770       17.6255488578
  N         9.6557882956        1.9119979103        2.6078565140
 Ga         9.6553720041        0.1774592788        3.2960144542
  N         9.6438112555        0.0492218516        5.2518851930
 Ga         9.6547210268        1.9119392887        5.8732556428
  N         9.6445614233        1.9068354458        7.8475533006
 Ga         9.6471557719        0.0384346808        8.4320616756
  N         9.6441143525        0.0376807045       10.4274860131
 Ga         9.6435910454        1.9073683189       11.0216614713
  N         9.6406982615        1.9087069921       12.9966981728
 Ga         9.6429250287        0.0381115161       13.6199480525
  N         9.6367554609        0.0732401764       15.5805368439
 Ga         9.6435960117        1.9076882746       15.8608291699
  N         7.9312820111        4.6258374513        2.5245154369
 Ga         8.1522090268        2.7761587247        3.3027195026
  N         8.0403743195        2.8334279049        5.2570867412
 Ga         8.0576167311        4.7111233499        5.7886336262
  N         8.0453243561        4.7002791051        7.7891202645
 Ga         8.0256853619        2.8428709688        8.4297266917
  N         8.0242106833        2.8429140237       10.4279121479
 Ga         8.0514405123        4.7021204940       11.0651052112
  N         8.0686893264        4.7121938964       13.0651975313
 Ga         8.0240552296        2.8426305715       13.6112361823
  N         8.0424824136        2.8320774262       15.5880356017
 Ga         7.9157931994        4.6258799064       16.4349348830
  N         6.4211508406        7.4701793859        2.5620822883
 Ga         6.4057343467        5.7376230888        3.2702703301
  N         6.4226798318        5.6173289812        5.2306131366
 Ga         6.4277220978        7.4761504647        5.8545198216
  N         6.4259036241        7.4768728911        7.8340922551
 Ga         6.4298520572        5.6108512534        8.4371138652
  N         6.4303092372        5.6107590758       10.4336408297
 Ga         6.4303668957        7.4799362568       11.0241463490
  N         6.4278961008        7.4770155992       12.9980000190
 Ga         6.4269886488        5.6095264993       13.6096570059
  N         6.4253269079        5.6310244390       15.5861656821
 Ga         6.4278718127        7.4809937504       15.8580795755
  N         4.7167721340       10.2023888024        2.5199727427
 Ga         4.9188862378        8.3267569809        3.2712633487
  N         4.8113938693        8.4032978804        5.2301743844
 Ga         4.8517507482       10.2737048152        5.7900548818
  N         4.8307809421       10.2671666046        7.7886888038
 Ga         4.8140020689        8.4147699396        8.4395179926
  N         4.8122553696        8.4146124896       10.4334188139
 Ga         4.8363357045       10.2733166694       11.0686152428
  N         4.8511213889       10.2830099560       13.0637561617
 Ga         4.8075439463        8.4137684712       13.6186064943
  N         4.8341757887        8.3911606666       15.5800011345
 Ga         4.6590148203       10.1714751939       16.4850697040
  O         0.7600982252        3.8675448291       -0.3653336376
  H        -0.0080492169        7.4502705902        1.6628892927
  C         1.1540112867        2.6068756117       -0.9552535400
  H         1.8567912096        2.0544440930       -0.3089860247
  H         0.2798754722        1.9685275302       -1.1513352270
  H         1.6438201909        2.8243754938       -1.9151073562
 Ga         3.1671154021        5.5827703932        2.2989136642
  O         2.8530962878        5.5034995153        0.1796080535
  H         2.1154657966        4.8455556326       -0.0705688532
  C         3.9760112695        5.4305852294       -0.7210600534
  H         3.6811206543        5.7720853059       -1.7222547143
  H         4.7565237563        6.0912027159       -0.3169930347
  H         4.3694628165        4.4042445264       -0.7822873021
