     212
 i =      121, E =     -8504.7326231164
  N         0.0088826140        2.0411815973        2.4897312471
 Ga         0.0232620438        0.0771954620        2.8295962912
  N        -0.0066346049        0.0474179655        5.0103963886
 Ga        -0.0051812431        1.8738951126        5.7952214760
  N        -0.0059504226        1.8867317548        7.7967818333
 Ga         0.0000279673        0.0408116096        8.4345148048
  N        -0.0024658497        0.0410414696       10.4127519006
 Ga        -0.0023840131        1.8806499270       11.0650330285
  N        -0.0030787341        1.8617731496       13.0615572131
 Ga        -0.0028733848        0.0415569155       13.8628083198
  N        -0.0040942705        0.0403586282       16.0674450708
 Ga        -0.0027884165        2.0777283570       16.4755992331
 Ga         0.0864959833        3.7395657737        1.3550327820
  N        -1.4661908657        4.6211660621        2.4582244798
 Ga        -1.6669991129        2.7895533813        3.2443656179
  N        -1.6101995356        2.8308512312        5.2336314575
 Ga        -1.6427413524        4.6910433367        5.8073826573
  N        -1.6222869724        4.6892217815        7.8015868412
 Ga        -1.6006022344        2.8311175639        8.4377543763
  N        -1.6010727913        2.8335351271       10.4321208227
 Ga        -1.6283047664        4.6929444026       11.0681808829
  N        -1.6437484160        4.7025883283       13.0634304288
 Ga        -1.6000824898        2.8332446489       13.6173188253
  N        -1.6272391538        2.8174259006       15.5819377552
 Ga        -1.4555411160        4.5936804744       16.4760452043
  N        -0.0110259207        3.7500922757       17.6087041905
  N        -3.2174764012        7.5781779234        2.4883275128
 Ga        -3.1872295479        5.6044922936        2.8261894283
  N        -3.2139797130        5.6047206853        5.0099354573
 Ga        -3.2312003957        7.4348727967        5.7772640882
  N        -3.2202923242        7.4594142752        7.7798524167
 Ga        -3.2210441516        5.6149324547        8.4389298333
  N        -3.2202810526        5.6140675397       10.4148728432
 Ga        -3.2219276911        7.4527122060       11.0664661990
  N        -3.2196856499        7.4332120066       13.0616210753
 Ga        -3.2202910992        5.6125669337       13.8643892190
  N        -3.2211954616        5.6117711009       16.0680555894
 Ga        -3.2195656442        7.6513229233       16.4786509267
 Ga        -3.2495614268        9.3509276511        1.2892296661
  N        -4.7288221136       10.1914829247        2.4975594511
 Ga        -4.9242390370        8.3385087054        3.2140360384
  N        -4.8347852712        8.3902071078        5.2055184578
 Ga        -4.8535025747       10.2638311529        5.7677499088
  N        -4.8372246305       10.2570406144        7.7770465853
 Ga        -4.8189128113        8.4046517861        8.4244582045
  N        -4.8167304000        8.4039308575       10.4224344316
 Ga        -4.8420751619       10.2625107216       11.0632626557
  N        -4.8586095777       10.2725467582       13.0596647564
 Ga        -4.8162449613        8.4047837292       13.6185175709
  N        -4.8438557699        8.3880607011       15.5819583505
 Ga        -4.6694985005       10.1630762003       16.4782231927
  N        -3.2272808563        9.3217177107       17.6123998920
  N         3.1971547842        1.9022379080        2.6105819498
 Ga         3.2062387824        0.1340733011        3.2452302468
  N         3.2144976878        0.0404246365        5.2292827006
 Ga         3.2094107588        1.8938935047        5.8674093131
  N         3.2146625769        1.8966672720        7.8462471951
 Ga         3.2093719511        0.0293573664        8.4255145919
  N         3.2120337610        0.0279593899       10.4235429628
 Ga         3.2119490310        1.8970988336       11.0217694100
  N         3.2129594366        1.8978881622       12.9958165112
 Ga         3.2131021534        0.0292977200       13.6175296794
  N         3.2141771776        0.0600118952       15.5800913860
 Ga         3.2132757191        1.8985497674       15.8589394659
  N         1.4736218298        4.6193325509        2.5669078804
 Ga         1.6834133571        2.7794960617        3.3024661943
  N         1.6057203727        2.8270069843        5.2678871557
 Ga         1.6514339967        4.7047291518        5.8059696437
  N         1.6086150063        4.6892910399        7.8116777889
 Ga         1.5946757904        2.8310710991        8.4318842897
  N         1.5938807627        2.8320101849       10.4301291622
 Ga         1.6206302746        4.6916004141       11.0654088157
  N         1.6368198547        4.7022834595       13.0617207080
 Ga         1.5945718516        2.8336330760       13.6165395574
  N         1.6214741063        2.8190149299       15.5801781772
 Ga         1.4423874288        4.5894955312       16.4766514386
  N        -0.0104118146        7.4600701772        2.6960170731
 Ga        -0.0080585652        5.6071843411        3.3434904336
  N        -0.0088600520        5.6279538037        5.2727462790
 Ga        -0.0113703938        7.4676890355        5.9052475441
  N        -0.0044129099        7.4719269565        7.8634439533
 Ga        -0.0038526880        5.5971285343        8.4451307287
  N        -0.0052313950        5.6008835346       10.4369449417
 Ga        -0.0058551765        7.4700013710       11.0272308212
  N        -0.0040011062        7.4699940293       12.9993207781
 Ga        -0.0025294101        5.5993943230       13.6177442568
  N        -0.0016510712        5.6304314694       15.5811297300
 Ga        -0.0031494849        7.4692170365       15.8599373277
  N        -1.7062310694       10.1934153604        2.5043648376
 Ga        -1.6242339181        8.3967181194        3.2952023513
  N        -1.6010835906        8.3907810051        5.2373084459
 Ga        -1.5915738041       10.2737505179        5.7923508933
  N        -1.6014632920       10.2580813915        7.7888352367
 Ga        -1.6277900580        8.4051314714        8.4368932250
  N        -1.6248012612        8.4044781206       10.4293284067
 Ga        -1.5986129973       10.2642476352       11.0656251272
  N        -1.5796452862       10.2732064390       13.0605334959
 Ga        -1.6227723629        8.4052365849       13.6187956716
  N        -1.5947590776        8.3895338875       15.5810331932
 Ga        -1.7760812189       10.1594292623       16.4792434754
  N         6.4321573896        2.0195573048        2.5447614611
 Ga         6.4101662463        0.0423195206        2.8782113162
  N         6.4337346118        0.0428419950        5.0255275765
 Ga         6.4266270069        1.8764219081        5.8005525202
  N         6.4293859889        1.8871082225        7.7963286444
 Ga         6.4269501360        0.0426807297        8.4424839097
  N         6.4283863521        0.0418162154       10.4167386401
 Ga         6.4291554017        1.8825538642       11.0664143387
  N         6.4299050289        1.8625369625       13.0618541313
 Ga         6.4285970261        0.0425505933       13.8641312502
  N         6.4273393102        0.0409831770       16.0675976562
 Ga         6.4288183555        2.0796876651       16.4770601037
 Ga         6.4492847356        3.7314544487        1.5309619677
  N         4.9304814059        4.6133656415        2.4874675064
 Ga         4.6992083786        2.7748399711        3.2940277007
  N         4.8200151347        2.8298483963        5.2515088195
 Ga         4.7808851496        4.7086093148        5.8029906123
  N         4.8178863020        4.6867571421        7.8083411144
 Ga         4.8299870703        2.8319954679        8.4371048881
  N         4.8317280675        2.8321267971       10.4325499547
 Ga         4.8064788395        4.6929824833       11.0649850965
  N         4.7902611832        4.7024295672       13.0614254137
 Ga         4.8321191546        2.8337193060       13.6163184571
  N         4.8049444181        2.8177015252       15.5807943435
 Ga         4.9781100732        4.5926731615       16.4768159640
  N         6.4210593504        3.7505645094       17.6120709192
  N         3.2071534497        7.6065520785        2.4975491022
  N         3.2158033399        5.6176114785        5.0875012404
 Ga         3.2216105214        7.4159352306        5.8138387745
  N         3.2118779325        7.4681222637        7.8115980706
 Ga         3.2137000010        5.6121191409        8.4402813291
  N         3.2132773576        5.6134480539       10.4192570155
 Ga         3.2146007334        7.4517128083       11.0679374060
  N         3.2136427053        7.4335926031       13.0632598064
 Ga         3.2134943107        5.6121510977       13.8622458796
  N         3.2119383871        5.6112216669       16.0676969233
 Ga         3.2132126528        7.6497252583       16.4773072176
 Ga         3.2355392320        9.3609830151        1.5095524615
  N         1.7088991734       10.1870964485        2.5288465245
 Ga         1.5781641103        8.3677354178        3.3400606877
  N         1.5941277443        8.3906449919        5.2604501535
 Ga         1.5799769062       10.2753048899        5.8101970956
  N         1.5952044100       10.2592821274        7.7990407788
 Ga         1.6165321875        8.4060399744        8.4497629840
  N         1.6143876525        8.4055559015       10.4388986032
 Ga         1.5899797664       10.2656227789       11.0695963551
  N         1.5736895997       10.2739466448       13.0637870127
 Ga         1.6165163673        8.4046927397       13.6185240610
  N         1.5890510020        8.3881385473       15.5826397201
 Ga         1.7616305073       10.1637873996       16.4775917576
  N         3.2054874207        9.3214127506       17.6124699988
  N         9.6591067795        1.9070096603        2.6091071685
 Ga         9.6584725646        0.1739446519        3.2974582618
  N         9.6449138603        0.0413731303        5.2532868659
 Ga         9.6578300650        1.9057824566        5.8700971071
  N         9.6465202916        1.8989199898        7.8455306987
 Ga         9.6483164314        0.0319465900        8.4335965041
  N         9.6451379266        0.0294989313       10.4282011658
 Ga         9.6442103418        1.8990459615       11.0233160412
  N         9.6447656482        1.8986411275       12.9964387230
 Ga         9.6464518092        0.0297983873       13.6186688191
  N         9.6472036876        0.0599479886       15.5814977121
 Ga         9.6452623801        1.8987001445       15.8603210165
  N         7.9337490689        4.6193862314        2.5262933714
 Ga         8.1551917603        2.7698288640        3.3024890978
  N         8.0411283890        2.8258109465        5.2574854149
 Ga         8.0615615976        4.7025370780        5.7908901117
  N         8.0467093131        4.6915028337        7.7902715619
 Ga         8.0283890355        2.8341518640        8.4308199608
  N         8.0261972401        2.8340904470       10.4268565413
 Ga         8.0516087310        4.6929927065       11.0656756483
  N         8.0691792821        4.7022804503       13.0607825459
 Ga         8.0267095429        2.8342866254       13.6178933238
  N         8.0539344097        2.8193725899       15.5807242776
 Ga         7.8730962522        4.5892669622       16.4781599722
  N         6.4056707688        7.4543264194        2.5355796162
 Ga         6.4157067408        5.7316706943        3.2804273288
  N         6.4269978057        5.6134904207        5.2381329946
 Ga         6.4326532760        7.4701345001        5.8623537003
  N         6.4282865758        7.4691307938        7.8384074480
 Ga         6.4299210926        5.6015618049        8.4351121544
  N         6.4304557511        5.6014961669       10.4302691719
 Ga         6.4301767963        7.4700211620       11.0233408122
  N         6.4297127043        7.4697436546       12.9964970388
 Ga         6.4298378822        5.5997549170       13.6169486498
  N         6.4306095726        5.6302794157       15.5801227251
 Ga         6.4289810667        7.4688896188       15.8594317818
  N         4.7213425920       10.1995972830        2.5241257531
 Ga         4.9287461532        8.3311786439        3.2858274189
  N         4.8185654643        8.3976360078        5.2410361410
 Ga         4.8537854158       10.2699087076        5.7938222580
  N         4.8312556432       10.2595571259        7.7913442188
 Ga         4.8139066423        8.4056352479        8.4369106564
  N         4.8117531580        8.4050793090       10.4310886412
 Ga         4.8369532824       10.2641054613       11.0656828306
  N         4.8529236942       10.2734822756       13.0607968550
 Ga         4.8109531190        8.4051688781       13.6176441625
  N         4.8374433119        8.3899812422       15.5807490368
 Ga         4.6580402937       10.1598369227       16.4781597517
  O         0.8025516109        3.8957987148       -0.3605633673
  H         0.0011267094        7.4429803953        1.6698535823
  C         1.1306593068        2.6472978834       -1.0070692826
  H         1.8087520769        2.0320147937       -0.3916429269
  H         0.2287450643        2.0577718696       -1.2324260665
  H         1.6306420300        2.8834230182       -1.9577984593
 Ga         3.1708056204        5.5838534809        2.4758394559
  O         2.9446904273        5.6509731553        0.3141800350
  H         2.3208895178        4.9616141664       -0.0597991304
  C         4.1434540940        5.8712392796       -0.4582504839
  H         3.9126387164        6.4419692364       -1.3682582553
  H         4.8365686323        6.4451766183        0.1853669727
  H         4.6215661004        4.9193197512       -0.7345746073
