 DBCSR| Multiplication driver                                               BLAS
 DBCSR| Multrec recursion limit                                              512
 DBCSR| Multiplication stack size                                           1000
 DBCSR| Maximum elements for images                                    UNLIMITED
 DBCSR| Multiplicative factor virtual images                                   1
 DBCSR| Multiplication size stacks                                             3
 DBCSR| Number of 3D layers                                               SINGLE
 DBCSR| Use MPI memory allocation                                              T
 DBCSR| Use RMA algorithm                                                      F
 DBCSR| Use Communication thread                                               T
 DBCSR| Communication thread load                                             87


  **** **** ******  **  PROGRAM STARTED AT               2019-07-10 01:15:37.615
 ***** ** ***  *** **   PROGRAM STARTED ON        blg7124.int.ets1.calculquebec.
 **    ****   ******    PROGRAM STARTED BY                                   rzk
 ***** **    ** ** **   PROGRAM PROCESS ID                                 54539
  **** **  *******  **  PROGRAM STARTED IN /lustre04/scratch/rzk/rzk/GaN-carbene
                                           /443-adatoms-both-2x2/09-BondBreaking
                                           -CH/03-0501-CH-to-Nsur-PES

 CP2K| version string:                    CP2K version 7.0 (Development Version)
 CP2K| source code revision number:                                    svn:18619
 CP2K| cp2kflags: libint fftw3 libxc parallel mpi3 scalapack mkl                
 CP2K| is freely available from                            https://www.cp2k.org/
 CP2K| Program compiled at                          Sun Apr  7 00:48:11 EDT 2019
 CP2K| Program compiled on                      beluga2.int.ets1.calculquebec.ca
 CP2K| Program compiled for                    Beluga-Linux-x86-64-intel-openmpi
 CP2K| Data directory path    /home/rzk/projects/def-rzk/group/cp2k/cp2k-mcgill/
 CP2K| Input file name                                            TEST-1.restart
 
 GLOBAL| Force Environment number                                              1
 GLOBAL| Basis set file name                                        BASIS_MOLOPT
 GLOBAL| Potential file name                                      GTH_POTENTIALS
 GLOBAL| MM Potential file name                                     MM_POTENTIAL
 GLOBAL| Coordinate file name                                      __STD_INPUT__
 GLOBAL| Method name                                                        CP2K
 GLOBAL| Project name                                                       TEST
 GLOBAL| Preferred FFT library                                             FFTW3
 GLOBAL| Preferred diagonalization lib.                                       SL
 GLOBAL| Run type                                                        GEO_OPT
 GLOBAL| All-to-all communication in single precision                          F
 GLOBAL| FFTs using library dependent lengths                                  F
 GLOBAL| Global print level                                               MEDIUM
 GLOBAL| MPI I/O enabled                                                       T
 GLOBAL| Total number of message passing processes                            80
 GLOBAL| Number of threads for this process                                    1
 GLOBAL| This output is from process                                           0
 GLOBAL| CPU model name :  Intel(R) Xeon(R) Gold 6148 CPU @ 2.40GHz

 MEMORY| system memory details [Kb]
 MEMORY|                        rank 0           min           max       average
 MEMORY| MemTotal            196614300     196614300     196614300     196614300
 MEMORY| MemFree             180127812     172996284     180139624     176606768
 MEMORY| Buffers                     0             0            76            38
 MEMORY| Cached                1641320       1354040       1641320       1497680
 MEMORY| Slab                  2571624       2571624       4075104       3323364
 MEMORY| SReclaimable           402976        307640        402976        355308
 MEMORY| MemLikelyFree       182172108     174658040     182183920     178459794


 *** Fundamental physical constants (SI units) ***

 *** Literature: B. J. Mohr and B. N. Taylor,
 ***             CODATA recommended values of the fundamental physical
 ***             constants: 2006, Web Version 5.1
 ***             http://physics.nist.gov/constants

 Speed of light in vacuum [m/s]                             2.99792458000000E+08
 Magnetic constant or permeability of vacuum [N/A**2]       1.25663706143592E-06
 Electric constant or permittivity of vacuum [F/m]          8.85418781762039E-12
 Planck constant (h) [J*s]                                  6.62606896000000E-34
 Planck constant (h-bar) [J*s]                              1.05457162825177E-34
 Elementary charge [C]                                      1.60217648700000E-19
 Electron mass [kg]                                         9.10938215000000E-31
 Electron g factor [ ]                                     -2.00231930436220E+00
 Proton mass [kg]                                           1.67262163700000E-27
 Fine-structure constant                                    7.29735253760000E-03
 Rydberg constant [1/m]                                     1.09737315685270E+07
 Avogadro constant [1/mol]                                  6.02214179000000E+23
 Boltzmann constant [J/K]                                   1.38065040000000E-23
 Atomic mass unit [kg]                                      1.66053878200000E-27
 Bohr radius [m]                                            5.29177208590000E-11

 *** Conversion factors ***

 [u] -> [a.u.]                                              1.82288848426455E+03
 [Angstrom] -> [Bohr] = [a.u.]                              1.88972613288564E+00
 [a.u.] = [Bohr] -> [Angstrom]                              5.29177208590000E-01
 [a.u.] -> [s]                                              2.41888432650478E-17
 [a.u.] -> [fs]                                             2.41888432650478E-02
 [a.u.] -> [J]                                              4.35974393937059E-18
 [a.u.] -> [N]                                              8.23872205491840E-08
 [a.u.] -> [K]                                              3.15774647902944E+05
 [a.u.] -> [kJ/mol]                                         2.62549961709828E+03
 [a.u.] -> [kcal/mol]                                       6.27509468713739E+02
 [a.u.] -> [Pa]                                             2.94210107994716E+13
 [a.u.] -> [bar]                                            2.94210107994716E+08
 [a.u.] -> [atm]                                            2.90362800883016E+08
 [a.u.] -> [eV]                                             2.72113838565563E+01
 [a.u.] -> [Hz]                                             6.57968392072181E+15
 [a.u.] -> [1/cm] (wave numbers)                            2.19474631370540E+05
 [a.u./Bohr**2] -> [1/cm]                                   5.14048714338585E+03
 
          ----------------------------------------------------------------------
 COLVARS| COLVAR INPUT INDEX:        1
 COLVARS| BOND          >>> ATOMS:                                   176     211
          ----------------------------------------------------------------------

 CELL_TOP| Volume [angstrom^3]:                                         4586.323
 CELL_TOP| Vector a [angstrom    12.864     0.000     0.000    |a| =      12.864
 CELL_TOP| Vector b [angstrom    -6.432    11.141     0.000    |b| =      12.864
 CELL_TOP| Vector c [angstrom     0.000     0.000    32.000    |c| =      32.000
 CELL_TOP| Angle (b,c), alpha [degree]:                                   90.000
 CELL_TOP| Angle (a,c), beta  [degree]:                                   90.000
 CELL_TOP| Angle (a,b), gamma [degree]:                                  120.000
 CELL_TOP| Numerically orthorhombic:                                          NO
 RESTRAINT| Active restraint on COLLECTIVE section Nr.     1. K [a.u.]= 2.000000
 
 GENERATE|  Preliminary Number of Bonds generated:                             0
 GENERATE|  Achieved consistency in connectivity generation.

 CELL| Volume [angstrom^3]:                                             4586.323
 CELL| Vector a [angstrom]:      12.864     0.000     0.000    |a| =      12.864
 CELL| Vector b [angstrom]:      -6.432    11.141     0.000    |b| =      12.864
 CELL| Vector c [angstrom]:       0.000     0.000    32.000    |c| =      32.000
 CELL| Angle (b,c), alpha [degree]:                                       90.000
 CELL| Angle (a,c), beta  [degree]:                                       90.000
 CELL| Angle (a,b), gamma [degree]:                                      120.000
 CELL| Numerically orthorhombic:                                              NO

 CELL_REF| Volume [angstrom^3]:                                         4670.759
 CELL_REF| Vector a [angstrom    12.982     0.000     0.000    |a| =      12.982
 CELL_REF| Vector b [angstrom    -6.491    11.243     0.000    |b| =      12.982
 CELL_REF| Vector c [angstrom     0.000     0.000    32.000    |c| =      32.000
 CELL_REF| Angle (b,c), alpha [degree]:                                   90.000
 CELL_REF| Angle (a,c), beta  [degree]:                                   90.000
 CELL_REF| Angle (a,b), gamma [degree]:                                  120.000
 CELL_REF| Numerically orthorhombic:                                          NO

 *******************************************************************************
 *******************************************************************************
 **                                                                           **
 **     #####                         ##              ##                      **
 **    ##   ##            ##          ##              ##                      **
 **   ##     ##                       ##            ######                    **
 **   ##     ##  ##   ##  ##   #####  ##  ##   ####   ##    #####    #####    **
 **   ##     ##  ##   ##  ##  ##      ## ##   ##      ##   ##   ##  ##   ##   **
 **   ##  ## ##  ##   ##  ##  ##      ####     ###    ##   ######   ######    **
 **    ##  ###   ##   ##  ##  ##      ## ##      ##   ##   ##       ##        **
 **     #######   #####   ##   #####  ##  ##  ####    ##    #####   ##        **
 **           ##                                                    ##        **
 **                                                                           **
 **                                                ... make the atoms dance   **
 **                                                                           **
 **            Copyright (C) by CP2K developers group (2000 - 2018)           **
 **                                                                           **
 *******************************************************************************

 DFT| Spin unrestricted (spin-polarized) Kohn-Sham calculation               UKS
 DFT| Multiplicity                                                             1
 DFT| Number of spin states                                                    2
 DFT| Charge                                                                   0
 DFT| Self-interaction correction (SIC)                                       NO
 DFT| Cutoffs: density                                              1.000000E-10
 DFT|          gradient                                             1.000000E-10
 DFT|          tau                                                  1.000000E-10
 DFT|          cutoff_smoothing_range                               0.000000E+00
 DFT| XC density smoothing                                                  NONE
 DFT| XC derivatives                                                          PW
 FUNCTIONAL| ROUTINE=NEW
 FUNCTIONAL| PBE:
 FUNCTIONAL| J.P.Perdew, K.Burke, M.Ernzerhof, Phys. Rev. Letter, vol. 77, n 18,
 FUNCTIONAL|  pp. 3865-3868, (1996){spin polarized}                             
 vdW POTENTIAL|                                                   Pair Potential
 vdW POTENTIAL|          DFT-D3 (Version 3.1)
 vdW POTENTIAL|          Potential Form: S. Grimme et al, JCP 132: 154104 (2010)
 vdW POTENTIAL|          Zero Damping
 vdW POTENTIAL|          Cutoff Radius [Bohr]:                             18.90
 vdW POTENTIAL|          s6 Scaling Factor:                               1.0000
 vdW POTENTIAL|          sr6 Scaling Factor:                              1.2170
 vdW POTENTIAL|          s8 Scaling Factor:                               0.7220
 vdW POTENTIAL|          Cutoff for CN calculation:                   0.1000E-05

 QS| Method:                                                                 GPW
 QS| Density plane wave grid type                        NON-SPHERICAL FULLSPACE
 QS| Number of grid levels:                                                    5
 QS| Density cutoff [a.u.]:                                                600.0
 QS| Multi grid cutoff [a.u.]: 1) grid level                               600.0
 QS|                           2) grid level                               200.0
 QS|                           3) grid level                                66.7
 QS|                           4) grid level                                22.2
 QS|                           5) grid level                                 7.4
 QS| Grid level progression factor:                                          3.0
 QS| Relative density cutoff [a.u.]:                                        20.0
 QS| Consistent realspace mapping and integration 
 QS| Interaction thresholds: eps_pgf_orb:                                1.0E-07
 QS|                         eps_filter_matrix:                          0.0E+00
 QS|                         eps_core_charge:                            1.0E-16
 QS|                         eps_rho_gspace:                             1.0E-14
 QS|                         eps_rho_rspace:                             1.0E-14
 QS|                         eps_gvg_rspace:                             1.0E-07
 QS|                         eps_ppl:                                    1.0E-02
 QS|                         eps_ppnl:                                   1.0E-09


 ATOMIC KIND INFORMATION

  1. Atomic kind: N                                     Number of atoms:     100

     Orbital Basis Set                                        DZVP-MOLOPT-SR-GTH

       Number of orbital shell sets:                                           1
       Number of orbital shells:                                               5
       Number of primitive Cartesian functions:                                5
       Number of Cartesian basis functions:                                   14
       Number of spherical basis functions:                                   13
       Norm type:                                                              2

       Normalised Cartesian orbitals:

                        Set   Shell   Orbital            Exponent    Coefficient

                          1       1    2s                7.341988       0.360561
                                                         2.542637       0.139177
                                                         0.888575      -0.289383
                                                         0.333802      -0.182244
                                                         0.112012      -0.019197

                          1       2    3s                7.341988       0.282000
                                                         2.542637       0.177875
                                                         0.888575      -0.278381
                                                         0.333802       0.008577
                                                         0.112012       0.154176

                          1       3    3px               7.341988      -1.188719
                                                         2.542637      -0.973969
                                                         0.888575      -0.501079
                                                         0.333802      -0.144894
                                                         0.112012      -0.013986
                          1       3    3py               7.341988      -1.188719
                                                         2.542637      -0.973969
                                                         0.888575      -0.501079
                                                         0.333802      -0.144894
                                                         0.112012      -0.013986
                          1       3    3pz               7.341988      -1.188719
                                                         2.542637      -0.973969
                                                         0.888575      -0.501079
                                                         0.333802      -0.144894
                                                         0.112012      -0.013986

                          1       4    4px               7.341988      -0.094798
                                                         2.542637       0.050069
                                                         0.888575      -0.114797
                                                         0.333802       0.144793
                                                         0.112012       0.066710
                          1       4    4py               7.341988      -0.094798
                                                         2.542637       0.050069
                                                         0.888575      -0.114797
                                                         0.333802       0.144793
                                                         0.112012       0.066710
                          1       4    4pz               7.341988      -0.094798
                                                         2.542637       0.050069
                                                         0.888575      -0.114797
                                                         0.333802       0.144793
                                                         0.112012       0.066710

                          1       5    4dx2              7.341988       1.354688
                                                         2.542637       0.690378
                                                         0.888575       0.855359
                                                         0.333802       0.091746
                                                         0.112012       0.001253
                          1       5    4dxy              7.341988       2.346389
                                                         2.542637       1.195770
                                                         0.888575       1.481524
                                                         0.333802       0.158910
                                                         0.112012       0.002169
                          1       5    4dxz              7.341988       2.346389
                                                         2.542637       1.195770
                                                         0.888575       1.481524
                                                         0.333802       0.158910
                                                         0.112012       0.002169
                          1       5    4dy2              7.341988       1.354688
                                                         2.542637       0.690378
                                                         0.888575       0.855359
                                                         0.333802       0.091746
                                                         0.112012       0.001253
                          1       5    4dyz              7.341988       2.346389
                                                         2.542637       1.195770
                                                         0.888575       1.481524
                                                         0.333802       0.158910
                                                         0.112012       0.002169
                          1       5    4dz2              7.341988       1.354688
                                                         2.542637       0.690378
                                                         0.888575       0.855359
                                                         0.333802       0.091746
                                                         0.112012       0.001253

     GTH Potential information for                                    GTH-PBE-q5

       Description:                       Goedecker-Teter-Hutter pseudopotential
                                           Goedecker et al., PRB 54, 1703 (1996)
                                          Hartwigsen et al., PRB 58, 3641 (1998)
                                                      Krack, TCA 114, 145 (2005)

       Gaussian exponent of the core charge distribution:               6.208322
       Electronic configuration (s p d ...):                               2   3

       Parameters of the local part of the GTH pseudopotential:

                          rloc        C1          C2          C3          C4
                        0.283791  -12.415226    1.868096

       Parameters of the non-local part of the GTH pseudopotential:

                   l      r(l)      h(i,j,l)

                   0    0.255405   13.630263
                   1    0.245495

  2. Atomic kind: Ga                                    Number of atoms:     100

     Orbital Basis Set                                        DZVP-MOLOPT-SR-GTH

       Number of orbital shell sets:                                           1
       Number of orbital shells:                                               7
       Number of primitive Cartesian functions:                                6
       Number of Cartesian basis functions:                                   30
       Number of spherical basis functions:                                   25
       Norm type:                                                              2

       Normalised Cartesian orbitals:

                        Set   Shell   Orbital            Exponent    Coefficient

                          1       1    2s                7.066654       0.013136
                                                         3.428369      -0.094392
                                                         1.430064       0.265435
                                                         0.571611       0.056465
                                                         0.232197      -0.192187
                                                         0.076562      -0.044987

                          1       2    3s                7.066654      -0.098564
                                                         3.428369       0.010390
                                                         1.430064       0.351249
                                                         0.571611       0.182615
                                                         0.232197      -0.425358
                                                         0.076562       0.190349

                          1       3    3px               7.066654       0.002364
                                                         3.428369       0.019222
                                                         1.430064       0.250132
                                                         0.571611      -0.058486
                                                         0.232197      -0.159451
                                                         0.076562      -0.020696
                          1       3    3py               7.066654       0.002364
                                                         3.428369       0.019222
                                                         1.430064       0.250132
                                                         0.571611      -0.058486
                                                         0.232197      -0.159451
                                                         0.076562      -0.020696
                          1       3    3pz               7.066654       0.002364
                                                         3.428369       0.019222
                                                         1.430064       0.250132
                                                         0.571611      -0.058486
                                                         0.232197      -0.159451
                                                         0.076562      -0.020696

                          1       4    4px               7.066654       0.492448
                                                         3.428369      -0.614736
                                                         1.430064      -0.191654
                                                         0.571611       0.037801
                                                         0.232197       0.302315
                                                         0.076562      -0.071336
                          1       4    4py               7.066654       0.492448
                                                         3.428369      -0.614736
                                                         1.430064      -0.191654
                                                         0.571611       0.037801
                                                         0.232197       0.302315
                                                         0.076562      -0.071336
                          1       4    4pz               7.066654       0.492448
                                                         3.428369      -0.614736
                                                         1.430064      -0.191654
                                                         0.571611       0.037801
                                                         0.232197       0.302315
                                                         0.076562      -0.071336

                          1       5    4dx2              7.066654     -15.264855
                                                         3.428369      -5.345726
                                                         1.430064      -1.022732
                                                         0.571611      -0.123148
                                                         0.232197      -0.006983
                                                         0.076562      -0.000022
                          1       5    4dxy              7.066654     -26.439504
                                                         3.428369      -9.259069
                                                         1.430064      -1.771423
                                                         0.571611      -0.213299
                                                         0.232197      -0.012094
                                                         0.076562      -0.000037
                          1       5    4dxz              7.066654     -26.439504
                                                         3.428369      -9.259069
                                                         1.430064      -1.771423
                                                         0.571611      -0.213299
                                                         0.232197      -0.012094
                                                         0.076562      -0.000037
                          1       5    4dy2              7.066654     -15.264855
                                                         3.428369      -5.345726
                                                         1.430064      -1.022732
                                                         0.571611      -0.123148
                                                         0.232197      -0.006983
                                                         0.076562      -0.000022
                          1       5    4dyz              7.066654     -26.439504
                                                         3.428369      -9.259069
                                                         1.430064      -1.771423
                                                         0.571611      -0.213299
                                                         0.232197      -0.012094
                                                         0.076562      -0.000037
                          1       5    4dz2              7.066654     -15.264855
                                                         3.428369      -5.345726
                                                         1.430064      -1.022732
                                                         0.571611      -0.123148
                                                         0.232197      -0.006983
                                                         0.076562      -0.000022

                          1       6    5dx2              7.066654      -5.739265
                                                         3.428369      -2.129289
                                                         1.430064      -0.700423
                                                         0.571611       0.161606
                                                         0.232197       0.043513
                                                         0.076562       0.011205
                          1       6    5dxy              7.066654      -9.940698
                                                         3.428369      -3.688037
                                                         1.430064      -1.213168
                                                         0.571611       0.279909
                                                         0.232197       0.075368
                                                         0.076562       0.019407
                          1       6    5dxz              7.066654      -9.940698
                                                         3.428369      -3.688037
                                                         1.430064      -1.213168
                                                         0.571611       0.279909
                                                         0.232197       0.075368
                                                         0.076562       0.019407
                          1       6    5dy2              7.066654      -5.739265
                                                         3.428369      -2.129289
                                                         1.430064      -0.700423
                                                         0.571611       0.161606
                                                         0.232197       0.043513
                                                         0.076562       0.011205
                          1       6    5dyz              7.066654      -9.940698
                                                         3.428369      -3.688037
                                                         1.430064      -1.213168
                                                         0.571611       0.279909
                                                         0.232197       0.075368
                                                         0.076562       0.019407
                          1       6    5dz2              7.066654      -5.739265
                                                         3.428369      -2.129289
                                                         1.430064      -0.700423
                                                         0.571611       0.161606
                                                         0.232197       0.043513
                                                         0.076562       0.011205

                          1       7    5fx3              7.066654       0.705879
                                                         3.428369      -0.273976
                                                         1.430064       0.113667
                                                         0.571611       0.132480
                                                         0.232197       0.012437
                                                         0.076562       0.003241
                          1       7    5fx2y             7.066654       1.578393
                                                         3.428369      -0.612629
                                                         1.430064       0.254167
                                                         0.571611       0.296234
                                                         0.232197       0.027811
                                                         0.076562       0.007246
                          1       7    5fx2z             7.066654       1.578393
                                                         3.428369      -0.612629
                                                         1.430064       0.254167
                                                         0.571611       0.296234
                                                         0.232197       0.027811
                                                         0.076562       0.007246
                          1       7    5fxy2             7.066654       1.578393
                                                         3.428369      -0.612629
                                                         1.430064       0.254167
                                                         0.571611       0.296234
                                                         0.232197       0.027811
                                                         0.076562       0.007246
                          1       7    5fxyz             7.066654       2.733856
                                                         3.428369      -1.061105
                                                         1.430064       0.440230
                                                         0.571611       0.513092
                                                         0.232197       0.048170
                                                         0.076562       0.012551
                          1       7    5fxz2             7.066654       1.578393
                                                         3.428369      -0.612629
                                                         1.430064       0.254167
                                                         0.571611       0.296234
                                                         0.232197       0.027811
                                                         0.076562       0.007246
                          1       7    5fy3              7.066654       0.705879
                                                         3.428369      -0.273976
                                                         1.430064       0.113667
                                                         0.571611       0.132480
                                                         0.232197       0.012437
                                                         0.076562       0.003241
                          1       7    5fy2z             7.066654       1.578393
                                                         3.428369      -0.612629
                                                         1.430064       0.254167
                                                         0.571611       0.296234
                                                         0.232197       0.027811
                                                         0.076562       0.007246
                          1       7    5fyz2             7.066654       1.578393
                                                         3.428369      -0.612629
                                                         1.430064       0.254167
                                                         0.571611       0.296234
                                                         0.232197       0.027811
                                                         0.076562       0.007246
                          1       7    5fz3              7.066654       0.705879
                                                         3.428369      -0.273976
                                                         1.430064       0.113667
                                                         0.571611       0.132480
                                                         0.232197       0.012437
                                                         0.076562       0.003241

     GTH Potential information for                                   GTH-PBE-q13

       Description:                       Goedecker-Teter-Hutter pseudopotential
                                           Goedecker et al., PRB 54, 1703 (1996)
                                          Hartwigsen et al., PRB 58, 3641 (1998)
                                                      Krack, TCA 114, 145 (2005)

       Gaussian exponent of the core charge distribution:               2.082466
       Electronic configuration (s p d ...):                           2   1  10

       Parameters of the local part of the GTH pseudopotential:

                          rloc        C1          C2          C3          C4
                        0.490000

       Parameters of the non-local part of the GTH pseudopotential:

                   l      r(l)      h(i,j,l)

                   0    0.416777   10.475690   -4.921768    0.870706
                                   -4.921768    7.770178   -2.248152
                                    0.870706   -2.248152    1.784415
                   1    0.569627    1.777985    0.195860
                                    0.195860   -0.231744
                   2    0.238126  -16.248680

  3. Atomic kind: O                                     Number of atoms:       2

     Orbital Basis Set                                     DZVP-MOLOPT-SR-GTH-q6

       Number of orbital shell sets:                                           1
       Number of orbital shells:                                               5
       Number of primitive Cartesian functions:                                5
       Number of Cartesian basis functions:                                   14
       Number of spherical basis functions:                                   13
       Norm type:                                                              2

       Normalised Cartesian orbitals:

                        Set   Shell   Orbital            Exponent    Coefficient

                          1       1    2s               10.389228       0.396646
                                                         3.849621       0.208811
                                                         1.388401      -0.301641
                                                         0.496955      -0.274061
                                                         0.162492      -0.033677

                          1       2    3s               10.389228       0.303673
                                                         3.849621       0.240943
                                                         1.388401      -0.313066
                                                         0.496955      -0.043055
                                                         0.162492       0.213991

                          1       3    3px              10.389228      -1.530415
                                                         3.849621      -1.371928
                                                         1.388401      -0.761951
                                                         0.496955      -0.253695
                                                         0.162492      -0.035541
                          1       3    3py              10.389228      -1.530415
                                                         3.849621      -1.371928
                                                         1.388401      -0.761951
                                                         0.496955      -0.253695
                                                         0.162492      -0.035541
                          1       3    3pz              10.389228      -1.530415
                                                         3.849621      -1.371928
                                                         1.388401      -0.761951
                                                         0.496955      -0.253695
                                                         0.162492      -0.035541

                          1       4    4px              10.389228      -0.565392
                                                         3.849621      -0.038231
                                                         1.388401      -0.382373
                                                         0.496955       0.179070
                                                         0.162492       0.122714
                          1       4    4py              10.389228      -0.565392
                                                         3.849621      -0.038231
                                                         1.388401      -0.382373
                                                         0.496955       0.179070
                                                         0.162492       0.122714
                          1       4    4pz              10.389228      -0.565392
                                                         3.849621      -0.038231
                                                         1.388401      -0.382373
                                                         0.496955       0.179070
                                                         0.162492       0.122714

                          1       5    4dx2             10.389228       1.867377
                                                         3.849621       0.670994
                                                         1.388401       1.353441
                                                         0.496955       0.273538
                                                         0.162492       0.006620
                          1       5    4dxy             10.389228       3.234392
                                                         3.849621       1.162195
                                                         1.388401       2.344229
                                                         0.496955       0.473781
                                                         0.162492       0.011466
                          1       5    4dxz             10.389228       3.234392
                                                         3.849621       1.162195
                                                         1.388401       2.344229
                                                         0.496955       0.473781
                                                         0.162492       0.011466
                          1       5    4dy2             10.389228       1.867377
                                                         3.849621       0.670994
                                                         1.388401       1.353441
                                                         0.496955       0.273538
                                                         0.162492       0.006620
                          1       5    4dyz             10.389228       3.234392
                                                         3.849621       1.162195
                                                         1.388401       2.344229
                                                         0.496955       0.473781
                                                         0.162492       0.011466
                          1       5    4dz2             10.389228       1.867377
                                                         3.849621       0.670994
                                                         1.388401       1.353441
                                                         0.496955       0.273538
                                                         0.162492       0.006620

     GTH Potential information for                                    GTH-PBE-q6

       Description:                       Goedecker-Teter-Hutter pseudopotential
                                           Goedecker et al., PRB 54, 1703 (1996)
                                          Hartwigsen et al., PRB 58, 3641 (1998)
                                                      Krack, TCA 114, 145 (2005)

       Gaussian exponent of the core charge distribution:               8.360253
       Electronic configuration (s p d ...):                               2   4

       Parameters of the local part of the GTH pseudopotential:

                          rloc        C1          C2          C3          C4
                        0.244554  -16.667215    2.487311

       Parameters of the non-local part of the GTH pseudopotential:

                   l      r(l)      h(i,j,l)

                   0    0.220956   18.337458
                   1    0.211332

  4. Atomic kind: H                                     Number of atoms:       8

     Orbital Basis Set                                     DZVP-MOLOPT-SR-GTH-q1

       Number of orbital shell sets:                                           1
       Number of orbital shells:                                               3
       Number of primitive Cartesian functions:                                5
       Number of Cartesian basis functions:                                    5
       Number of spherical basis functions:                                    5
       Norm type:                                                              2

       Normalised Cartesian orbitals:

                        Set   Shell   Orbital            Exponent    Coefficient

                          1       1    2s               10.068468      -0.133023
                                                         2.680223      -0.177618
                                                         0.791502      -0.258419
                                                         0.239116      -0.107525
                                                         0.082193      -0.014019

                          1       2    3s               10.068468       0.344673
                                                         2.680223       1.819821
                                                         0.791502      -0.999069
                                                         0.239116       0.017430
                                                         0.082193       0.082660

                          1       3    3px              10.068468       0.155326
                                                         2.680223       0.367157
                                                         0.791502       0.311480
                                                         0.239116       0.080105
                                                         0.082193       0.033440
                          1       3    3py              10.068468       0.155326
                                                         2.680223       0.367157
                                                         0.791502       0.311480
                                                         0.239116       0.080105
                                                         0.082193       0.033440
                          1       3    3pz              10.068468       0.155326
                                                         2.680223       0.367157
                                                         0.791502       0.311480
                                                         0.239116       0.080105
                                                         0.082193       0.033440

     GTH Potential information for                                    GTH-PBE-q1

       Description:                       Goedecker-Teter-Hutter pseudopotential
                                           Goedecker et al., PRB 54, 1703 (1996)
                                          Hartwigsen et al., PRB 58, 3641 (1998)
                                                      Krack, TCA 114, 145 (2005)

       Gaussian exponent of the core charge distribution:              12.500000
       Electronic configuration (s p d ...):                                   1

       Parameters of the local part of the GTH pseudopotential:

                          rloc        C1          C2          C3          C4
                        0.200000   -4.178900    0.724463

  5. Atomic kind: C                                     Number of atoms:       2

     Orbital Basis Set                                     DZVP-MOLOPT-SR-GTH-q4

       Number of orbital shell sets:                                           1
       Number of orbital shells:                                               5
       Number of primitive Cartesian functions:                                5
       Number of Cartesian basis functions:                                   14
       Number of spherical basis functions:                                   13
       Norm type:                                                              2

       Normalised Cartesian orbitals:

                        Set   Shell   Orbital            Exponent    Coefficient

                          1       1    2s                5.605331       0.322515
                                                         2.113016       0.213043
                                                         0.769911      -0.209686
                                                         0.348157      -0.219794
                                                         0.128212      -0.022789

                          1       2    3s                5.605331       0.552234
                                                         2.113016       0.082072
                                                         0.769911       0.007843
                                                         0.348157       0.136893
                                                         0.128212       0.074283

                          1       3    3px               5.605331      -0.703879
                                                         2.113016      -0.642521
                                                         0.769911      -0.374851
                                                         0.348157      -0.139743
                                                         0.128212      -0.027849
                          1       3    3py               5.605331      -0.703879
                                                         2.113016      -0.642521
                                                         0.769911      -0.374851
                                                         0.348157      -0.139743
                                                         0.128212      -0.027849
                          1       3    3pz               5.605331      -0.703879
                                                         2.113016      -0.642521
                                                         0.769911      -0.374851
                                                         0.348157      -0.139743
                                                         0.128212      -0.027849

                          1       4    4px               5.605331      -0.480376
                                                         2.113016      -0.552894
                                                         0.769911      -0.316145
                                                         0.348157       0.210505
                                                         0.128212       0.076095
                          1       4    4py               5.605331      -0.480376
                                                         2.113016      -0.552894
                                                         0.769911      -0.316145
                                                         0.348157       0.210505
                                                         0.128212       0.076095
                          1       4    4pz               5.605331      -0.480376
                                                         2.113016      -0.552894
                                                         0.769911      -0.316145
                                                         0.348157       0.210505
                                                         0.128212       0.076095

                          1       5    4dx2              5.605331       0.640026
                                                         2.113016       0.274300
                                                         0.769911       0.446711
                                                         0.348157       0.028674
                                                         0.128212       0.029790
                          1       5    4dxy              5.605331       1.108557
                                                         2.113016       0.475102
                                                         0.769911       0.773726
                                                         0.348157       0.049666
                                                         0.128212       0.051599
                          1       5    4dxz              5.605331       1.108557
                                                         2.113016       0.475102
                                                         0.769911       0.773726
                                                         0.348157       0.049666
                                                         0.128212       0.051599
                          1       5    4dy2              5.605331       0.640026
                                                         2.113016       0.274300
                                                         0.769911       0.446711
                                                         0.348157       0.028674
                                                         0.128212       0.029790
                          1       5    4dyz              5.605331       1.108557
                                                         2.113016       0.475102
                                                         0.769911       0.773726
                                                         0.348157       0.049666
                                                         0.128212       0.051599
                          1       5    4dz2              5.605331       0.640026
                                                         2.113016       0.274300
                                                         0.769911       0.446711
                                                         0.348157       0.028674
                                                         0.128212       0.029790

     GTH Potential information for                                    GTH-PBE-q4

       Description:                       Goedecker-Teter-Hutter pseudopotential
                                           Goedecker et al., PRB 54, 1703 (1996)
                                          Hartwigsen et al., PRB 58, 3641 (1998)
                                                      Krack, TCA 114, 145 (2005)

       Gaussian exponent of the core charge distribution:               4.364419
       Electronic configuration (s p d ...):                               2   2

       Parameters of the local part of the GTH pseudopotential:

                          rloc        C1          C2          C3          C4
                        0.338471   -8.803674    1.339211

       Parameters of the non-local part of the GTH pseudopotential:

                   l      r(l)      h(i,j,l)

                   0    0.302576    9.622487
                   1    0.291507


 MOLECULE KIND INFORMATION


 All atoms are their own molecule, skipping detailed information


 TOTAL NUMBERS AND MAXIMUM NUMBERS

  Total number of            - Atomic kinds:                                   5
                             - Atoms:                                        212
                             - Shell sets:                                   212
                             - Shells:                                      1244
                             - Primitive Cartesian functions:               1160
                             - Cartesian basis functions:                   4496
                             - Spherical basis functions:                   3892

  Maximum angular momentum of- Orbital basis functions:                        3
                             - Local part of the GTH pseudopotential:          2
                             - Non-local part of the GTH pseudopotential:      4


 MODULE QUICKSTEP:  ATOMIC COORDINATES IN angstrom

  Atom  Kind  Element       X           Y           Z          Z(eff)       Mass

       1     1 N    7    0.003618    2.047478    2.497081      5.00      14.0067
       2     2 Ga  31    0.021310    0.080856    2.836665     13.00      69.7230
       3     1 N    7   -0.008108    0.054605    5.009519      5.00      14.0067
       4     2 Ga  31   -0.004286    1.882242    5.793981     13.00      69.7230
       5     1 N    7   -0.006270    1.894652    7.795443      5.00      14.0067
       6     2 Ga  31   -0.001742    0.049267    8.434699     13.00      69.7230
       7     1 N    7   -0.004324    0.049647   10.412796      5.00      14.0067
       8     2 Ga  31   -0.004352    1.887894   11.067842     13.00      69.7230
       9     1 N    7   -0.005876    1.869799   13.063674      5.00      14.0067
      10     2 Ga  31   -0.002664    0.049538   13.872905     13.00      69.7230
      11     1 N    7   -0.003732    0.049645   16.066842      5.00      14.0067
      12     2 Ga  31   -0.005661    2.091193   16.483816     13.00      69.7230
      13     2 Ga  31    0.050418    3.734926    1.364655     13.00      69.7230
      14     1 N    7   -1.470120    4.626819    2.465462      5.00      14.0067
      15     2 Ga  31   -1.674619    2.792671    3.255538     13.00      69.7230
      16     1 N    7   -1.612997    2.837902    5.239101      5.00      14.0067
      17     2 Ga  31   -1.642471    4.700380    5.806478     13.00      69.7230
      18     1 N    7   -1.623468    4.698138    7.800478      5.00      14.0067
      19     2 Ga  31   -1.600891    2.839475    8.436661     13.00      69.7230
      20     1 N    7   -1.601902    2.841907   10.431349      5.00      14.0067
      21     2 Ga  31   -1.629534    4.701352   11.067033     13.00      69.7230
      22     1 N    7   -1.645354    4.711350   13.060710      5.00      14.0067
      23     2 Ga  31   -1.602330    2.842863   13.618635     13.00      69.7230
      24     1 N    7   -1.635619    2.830743   15.579780      5.00      14.0067
      25     2 Ga  31   -1.440645    4.595600   16.485212     13.00      69.7230
      26     1 N    7   -0.004949    3.753536   17.624355      5.00      14.0067
      27     1 N    7   -3.215382    7.587864    2.491421      5.00      14.0067
      28     2 Ga  31   -3.191737    5.615622    2.833457     13.00      69.7230
      29     1 N    7   -3.215492    5.613052    5.009710      5.00      14.0067
      30     2 Ga  31   -3.229234    7.443390    5.780129     13.00      69.7230
      31     1 N    7   -3.220357    7.467361    7.780999      5.00      14.0067
      32     2 Ga  31   -3.222274    5.622778    8.438427     13.00      69.7230
      33     1 N    7   -3.221853    5.622671   10.414675      5.00      14.0067
      34     2 Ga  31   -3.223108    7.463073   11.063515     13.00      69.7230
      35     1 N    7   -3.221655    7.444063   13.056903      5.00      14.0067
      36     2 Ga  31   -3.214086    5.628519   13.859164     13.00      69.7230
      37     1 N    7   -3.212557    5.628653   16.065880      5.00      14.0067
      38     2 Ga  31   -3.220519    7.688235   16.499491     13.00      69.7230
      39     2 Ga  31   -3.252832    9.358309    1.286349     13.00      69.7230
      40     1 N    7   -4.727189   10.203471    2.499858      5.00      14.0067
      41     2 Ga  31   -4.913984    8.354538    3.228350     13.00      69.7230
      42     1 N    7   -4.832814    8.400488    5.215264      5.00      14.0067
      43     2 Ga  31   -4.852300   10.275085    5.769914     13.00      69.7230
      44     1 N    7   -4.837841   10.267245    7.777727      5.00      14.0067
      45     2 Ga  31   -4.821011    8.413079    8.421568     13.00      69.7230
      46     1 N    7   -4.818367    8.413193   10.420133      5.00      14.0067
      47     2 Ga  31   -4.843971   10.271179   11.064014     13.00      69.7230
      48     1 N    7   -4.860653   10.281158   13.059191      5.00      14.0067
      49     2 Ga  31   -4.817208    8.414190   13.621564     13.00      69.7230
      50     1 N    7   -4.846342    8.392301   15.578944      5.00      14.0067
      51     2 Ga  31   -4.656910   10.163876   16.498372     13.00      69.7230
      52     1 N    7   -3.226272    9.338012   17.651534      5.00      14.0067
      53     1 N    7    3.195238    1.916282    2.599991      5.00      14.0067
      54     2 Ga  31    3.207351    0.148299    3.241359     13.00      69.7230
      55     1 N    7    3.214348    0.053116    5.226084      5.00      14.0067
      56     2 Ga  31    3.209355    1.907542    5.862619     13.00      69.7230
      57     1 N    7    3.213914    1.907128    7.843198      5.00      14.0067
      58     2 Ga  31    3.208680    0.039708    8.424606     13.00      69.7230
      59     1 N    7    3.210372    0.036968   10.422682      5.00      14.0067
      60     2 Ga  31    3.210412    1.904514   11.023376     13.00      69.7230
      61     1 N    7    3.212339    1.907558   12.997861      5.00      14.0067
      62     2 Ga  31    3.210506    0.036478   13.620788     13.00      69.7230
      63     1 N    7    3.214689    0.072594   15.578405      5.00      14.0067
      64     2 Ga  31    3.209089    1.905658   15.857099     13.00      69.7230
      65     1 N    7    1.472612    4.631483    2.531813      5.00      14.0067
      66     2 Ga  31    1.685509    2.797494    3.295746     13.00      69.7230
      67     1 N    7    1.603459    2.838668    5.261017      5.00      14.0067
      68     2 Ga  31    1.651951    4.713638    5.815848     13.00      69.7230
      69     1 N    7    1.602795    4.694648    7.821270      5.00      14.0067
      70     2 Ga  31    1.593079    2.837924    8.435640     13.00      69.7230
      71     1 N    7    1.592445    2.838468   10.433023      5.00      14.0067
      72     2 Ga  31    1.618016    4.700087   11.062777     13.00      69.7230
      73     1 N    7    1.632655    4.710904   13.058796      5.00      14.0067
      74     2 Ga  31    1.591017    2.842881   13.617742     13.00      69.7230
      75     1 N    7    1.623711    2.830855   15.579696      5.00      14.0067
      76     2 Ga  31    1.429204    4.595094   16.485158     13.00      69.7230
      77     1 N    7   -0.012057    7.467030    2.689001      5.00      14.0067
      78     2 Ga  31    0.000616    5.616236    3.338626     13.00      69.7230
      79     1 N    7   -0.007842    5.633843    5.267217      5.00      14.0067
      80     2 Ga  31   -0.007810    7.475138    5.899719     13.00      69.7230
      81     1 N    7   -0.004045    7.480174    7.858853      5.00      14.0067
      82     2 Ga  31   -0.006277    5.606537    8.447085     13.00      69.7230
      83     1 N    7   -0.008058    5.610709   10.437396      5.00      14.0067
      84     2 Ga  31   -0.008047    7.479446   11.027515     13.00      69.7230
      85     1 N    7   -0.006763    7.479199   12.997352      5.00      14.0067
      86     2 Ga  31   -0.005700    5.609592   13.617386     13.00      69.7230
      87     1 N    7   -0.005542    5.640886   15.577587      5.00      14.0067
      88     2 Ga  31   -0.007300    7.479471   15.855174     13.00      69.7230
      89     1 N    7   -1.706664   10.204032    2.502373      5.00      14.0067
      90     2 Ga  31   -1.622357    8.407877    3.294341     13.00      69.7230
      91     1 N    7   -1.599552    8.399398    5.236515      5.00      14.0067
      92     2 Ga  31   -1.592469   10.283504    5.789389     13.00      69.7230
      93     1 N    7   -1.603016   10.267259    7.786289      5.00      14.0067
      94     2 Ga  31   -1.627226    8.413794    8.434101     13.00      69.7230
      95     1 N    7   -1.625710    8.413389   10.426106      5.00      14.0067
      96     2 Ga  31   -1.600804   10.271990   11.063586     13.00      69.7230
      97     1 N    7   -1.583291   10.280786   13.056915      5.00      14.0067
      98     2 Ga  31   -1.625529    8.413768   13.620969     13.00      69.7230
      99     1 N    7   -1.597060    8.397138   15.577896      5.00      14.0067
     100     2 Ga  31   -1.794801   10.157817   16.499221     13.00      69.7230
     101     1 N    7    6.429729    2.030078    2.539638      5.00      14.0067
     102     2 Ga  31    6.410337    0.049473    2.877777     13.00      69.7230
     103     1 N    7    6.433969    0.051647    5.021710      5.00      14.0067
     104     2 Ga  31    6.423192    1.886206    5.796072     13.00      69.7230
     105     1 N    7    6.427145    1.895650    7.793413      5.00      14.0067
     106     2 Ga  31    6.426015    0.051044    8.438907     13.00      69.7230
     107     1 N    7    6.426816    0.050292   10.414495      5.00      14.0067
     108     2 Ga  31    6.428000    1.889248   11.065256     13.00      69.7230
     109     1 N    7    6.427508    1.868875   13.065256      5.00      14.0067
     110     2 Ga  31    6.424747    0.041127   13.859604     13.00      69.7230
     111     1 N    7    6.425333    0.039501   16.065805      5.00      14.0067
     112     2 Ga  31    6.425568    2.044401   16.434629     13.00      69.7230
     113     2 Ga  31    6.461007    3.734894    1.515773     13.00      69.7230
     114     1 N    7    4.924758    4.628765    2.434205      5.00      14.0067
     115     2 Ga  31    4.694780    2.796323    3.280797     13.00      69.7230
     116     1 N    7    4.819620    2.842457    5.239978      5.00      14.0067
     117     2 Ga  31    4.778282    4.717481    5.811638     13.00      69.7230
     118     1 N    7    4.821061    4.692280    7.817968      5.00      14.0067
     119     2 Ga  31    4.829316    2.839257    8.440013     13.00      69.7230
     120     1 N    7    4.830692    2.839413   10.436020      5.00      14.0067
     121     2 Ga  31    4.804049    4.702307   11.061572     13.00      69.7230
     122     1 N    7    4.786740    4.711975   13.063310      5.00      14.0067
     123     2 Ga  31    4.829170    2.842222   13.608796     13.00      69.7230
     124     1 N    7    4.809982    2.833054   15.585627      5.00      14.0067
     125     2 Ga  31    4.941612    4.622230   16.434675     13.00      69.7230
     126     1 N    7    6.431348    3.761773   17.557262      5.00      14.0067
     127     1 N    7    3.204147    7.597580    2.433828      5.00      14.0067
     128     1 N    7    3.214140    5.624590    5.141684      5.00      14.0067
     129     2 Ga  31    3.220282    7.421925    5.822888     13.00      69.7230
     130     1 N    7    3.210750    7.481326    7.820686      5.00      14.0067
     131     2 Ga  31    3.212213    5.620253    8.436207     13.00      69.7230
     132     1 N    7    3.211412    5.622011   10.418534      5.00      14.0067
     133     2 Ga  31    3.212815    7.461224   11.064509     13.00      69.7230
     134     1 N    7    3.210576    7.443967   13.059424      5.00      14.0067
     135     2 Ga  31    3.203578    5.625743   13.853566     13.00      69.7230
     136     1 N    7    3.202200    5.626632   16.065885      5.00      14.0067
     137     2 Ga  31    3.208767    7.678215   16.485990     13.00      69.7230
     138     2 Ga  31    3.234872    9.377470    1.491345     13.00      69.7230
     139     1 N    7    1.710446   10.188933    2.523487      5.00      14.0067
     140     2 Ga  31    1.587626    8.360931    3.323724     13.00      69.7230
     141     1 N    7    1.597624    8.395788    5.246625      5.00      14.0067
     142     2 Ga  31    1.579276   10.279306    5.804269     13.00      69.7230
     143     1 N    7    1.593481   10.266762    7.794632      5.00      14.0067
     144     2 Ga  31    1.614472    8.415355    8.451264     13.00      69.7230
     145     1 N    7    1.611537    8.414950   10.438769      5.00      14.0067
     146     2 Ga  31    1.588458   10.274039   11.067988     13.00      69.7230
     147     1 N    7    1.571445   10.282207   13.060882      5.00      14.0067
     148     2 Ga  31    1.612620    8.413066   13.617734     13.00      69.7230
     149     1 N    7    1.585732    8.397194   15.577576      5.00      14.0067
     150     2 Ga  31    1.774024   10.162249   16.486301     13.00      69.7230
     151     1 N    7    3.220338    9.339919   17.625549      5.00      14.0067
     152     1 N    7    9.655788    1.911998    2.607857      5.00      14.0067
     153     2 Ga  31    9.655372    0.177459    3.296014     13.00      69.7230
     154     1 N    7    9.643811    0.049222    5.251885      5.00      14.0067
     155     2 Ga  31    9.654721    1.911939    5.873256     13.00      69.7230
     156     1 N    7    9.644561    1.906835    7.847553      5.00      14.0067
     157     2 Ga  31    9.647156    0.038435    8.432062     13.00      69.7230
     158     1 N    7    9.644114    0.037681   10.427486      5.00      14.0067
     159     2 Ga  31    9.643591    1.907368   11.021661     13.00      69.7230
     160     1 N    7    9.640698    1.908707   12.996698      5.00      14.0067
     161     2 Ga  31    9.642925    0.038112   13.619948     13.00      69.7230
     162     1 N    7    9.636755    0.073240   15.580537      5.00      14.0067
     163     2 Ga  31    9.643596    1.907688   15.860829     13.00      69.7230
     164     1 N    7    7.931282    4.625837    2.524515      5.00      14.0067
     165     2 Ga  31    8.152209    2.776159    3.302720     13.00      69.7230
     166     1 N    7    8.040374    2.833428    5.257087      5.00      14.0067
     167     2 Ga  31    8.057617    4.711123    5.788634     13.00      69.7230
     168     1 N    7    8.045324    4.700279    7.789120      5.00      14.0067
     169     2 Ga  31    8.025685    2.842871    8.429727     13.00      69.7230
     170     1 N    7    8.024211    2.842914   10.427912      5.00      14.0067
     171     2 Ga  31    8.051441    4.702120   11.065105     13.00      69.7230
     172     1 N    7    8.068689    4.712194   13.065198      5.00      14.0067
     173     2 Ga  31    8.024055    2.842631   13.611236     13.00      69.7230
     174     1 N    7    8.042482    2.832077   15.588036      5.00      14.0067
     175     2 Ga  31    7.915793    4.625880   16.434935     13.00      69.7230
     176     1 N    7    6.421151    7.470179    2.562082      5.00      14.0067
     177     2 Ga  31    6.405734    5.737623    3.270270     13.00      69.7230
     178     1 N    7    6.422680    5.617329    5.230613      5.00      14.0067
     179     2 Ga  31    6.427722    7.476150    5.854520     13.00      69.7230
     180     1 N    7    6.425904    7.476873    7.834092      5.00      14.0067
     181     2 Ga  31    6.429852    5.610851    8.437114     13.00      69.7230
     182     1 N    7    6.430309    5.610759   10.433641      5.00      14.0067
     183     2 Ga  31    6.430367    7.479936   11.024146     13.00      69.7230
     184     1 N    7    6.427896    7.477016   12.998000      5.00      14.0067
     185     2 Ga  31    6.426989    5.609526   13.609657     13.00      69.7230
     186     1 N    7    6.425327    5.631024   15.586166      5.00      14.0067
     187     2 Ga  31    6.427872    7.480994   15.858080     13.00      69.7230
     188     1 N    7    4.716772   10.202389    2.519973      5.00      14.0067
     189     2 Ga  31    4.918886    8.326757    3.271263     13.00      69.7230
     190     1 N    7    4.811394    8.403298    5.230174      5.00      14.0067
     191     2 Ga  31    4.851751   10.273705    5.790055     13.00      69.7230
     192     1 N    7    4.830781   10.267167    7.788689      5.00      14.0067
     193     2 Ga  31    4.814002    8.414770    8.439518     13.00      69.7230
     194     1 N    7    4.812255    8.414612   10.433419      5.00      14.0067
     195     2 Ga  31    4.836336   10.273317   11.068615     13.00      69.7230
     196     1 N    7    4.851121   10.283010   13.063756      5.00      14.0067
     197     2 Ga  31    4.807544    8.413768   13.618606     13.00      69.7230
     198     1 N    7    4.834176    8.391161   15.580001      5.00      14.0067
     199     2 Ga  31    4.659015   10.171475   16.485070     13.00      69.7230
     200     3 O    8    0.760098    3.867545   -0.365334      6.00      15.9994
     201     4 H    1   -0.008049    7.450271    1.662889      1.00       1.0079
     202     5 C    6    1.154011    2.606876   -0.955254      4.00      12.0107
     203     4 H    1    1.856791    2.054444   -0.308986      1.00       1.0079
     204     4 H    1    0.279875    1.968528   -1.151335      1.00       1.0079
     205     4 H    1    1.643820    2.824375   -1.915107      1.00       1.0079
     206     2 Ga  31    3.167115    5.582770    2.298914     13.00      69.7230
     207     3 O    8    2.853096    5.503500    0.179608      6.00      15.9994
     208     4 H    1    2.115466    4.845556   -0.070569      1.00       1.0079
     209     5 C    6    3.976011    5.430585   -0.721060      4.00      12.0107
     210     4 H    1    3.681121    5.772085   -1.722255      1.00       1.0079
     211     4 H    1    4.756524    6.091203   -0.316993      1.00       1.0079
     212     4 H    1    4.369463    4.404245   -0.782287      1.00       1.0079




 SCF PARAMETERS         Density guess:                                    ATOMIC
                        --------------------------------------------------------
                        max_scf:                                              80
                        max_scf_history:                                       0
                        max_diis:                                              4
                        --------------------------------------------------------
                        eps_scf:                                        5.00E-06
                        eps_scf_history:                                0.00E+00
                        eps_diis:                                       1.00E-01
                        eps_eigval:                                     1.00E-05
                        --------------------------------------------------------
                        level_shift [a.u.]:                                 0.00
                        --------------------------------------------------------
                        Outer loop SCF in use 
                        No variables optimised in outer loop
                        eps_scf                                         5.00E-06
                        max_scf                                                4
                        No outer loop optimization
                        step_size                                       5.00E-01

 PW_GRID| Information for grid number                                          1
 PW_GRID| Grid distributed over                                    80 processors
 PW_GRID| Real space group dimensions                                    80    1
 PW_GRID| the grid is blocked:                                                NO
 PW_GRID| Cutoff [a.u.]                                                    600.0
 PW_GRID| spherical cutoff:                                                   NO
 PW_GRID|   Bounds   1           -144     143                Points:         288
 PW_GRID|   Bounds   2           -144     143                Points:         288
 PW_GRID|   Bounds   3           -337     337                Points:         675
 PW_GRID| Volume element (a.u.^3)  0.5630E-03     Volume (a.u.^3)     31519.8467
 PW_GRID| Grid span                                                    FULLSPACE
 PW_GRID|   Distribution                         Average         Max         Min
 PW_GRID|   G-Vectors                           699840.0      699840      699840
 PW_GRID|   G-Rays                                2430.0        2430        2430
 PW_GRID|   Real Space Points                   699840.0      777600      583200

 PW_GRID| Information for grid number                                          2
 PW_GRID| Grid distributed over                                    80 processors
 PW_GRID| Real space group dimensions                                    80    1
 PW_GRID| the grid is blocked:                                                NO
 PW_GRID| Cutoff [a.u.]                                                    200.0
 PW_GRID| spherical cutoff:                                                   NO
 PW_GRID|   Bounds   1            -80      79                Points:         160
 PW_GRID|   Bounds   2            -80      79                Points:         160
 PW_GRID|   Bounds   3           -200     199                Points:         400
 PW_GRID| Volume element (a.u.^3)  0.3078E-02     Volume (a.u.^3)     31519.8467
 PW_GRID| Grid span                                                    FULLSPACE
 PW_GRID|   Distribution                         Average         Max         Min
 PW_GRID|   G-Vectors                           128000.0      128160      127840
 PW_GRID|   G-Rays                                 800.0         801         799
 PW_GRID|   Real Space Points                   128000.0      128000      128000

 PW_GRID| Information for grid number                                          3
 PW_GRID| Grid distributed over                                    80 processors
 PW_GRID| Real space group dimensions                                    80    1
 PW_GRID| the grid is blocked:                                                NO
 PW_GRID| Cutoff [a.u.]                                                     66.7
 PW_GRID| spherical cutoff:                                                   NO
 PW_GRID|   Bounds   1            -48      47                Points:          96
 PW_GRID|   Bounds   2            -48      47                Points:          96
 PW_GRID|   Bounds   3           -112     112                Points:         225
 PW_GRID| Volume element (a.u.^3)  0.1520E-01     Volume (a.u.^3)     31519.8467
 PW_GRID| Grid span                                                    FULLSPACE
 PW_GRID|   Distribution                         Average         Max         Min
[...]
 flops   242 x    64 x   183         587721277440     100.0%      0.0%      0.0%
 flops   973 x    32 x    50         604573939200     100.0%      0.0%      0.0%
 flops   973 x    50 x    32         604573939200     100.0%      0.0%      0.0%
 flops    25 x    18 x    13         607516310700     100.0%      0.0%      0.0%
 flops    13 x    18 x    25         607516310700     100.0%      0.0%      0.0%
 flops   242 x    64 x   195         626260377600     100.0%      0.0%      0.0%
 flops   955 x    32 x   178         679742412800     100.0%      0.0%      0.0%
 flops   242 x    32 x    32         685451796480     100.0%      0.0%      0.0%
 flops   955 x    32 x   183         698836300800     100.0%      0.0%      0.0%
 flops   991 x    32 x   178         705366210560     100.0%      0.0%      0.0%
 flops   991 x    32 x   183         725179868160     100.0%      0.0%      0.0%
 flops   955 x    32 x   195         744661632000     100.0%      0.0%      0.0%
 flops   991 x    32 x   195         772732646400     100.0%      0.0%      0.0%
 flops    25 x    25 x    50         852818750000     100.0%      0.0%      0.0%
 flops     5 x    32 x    25         853059424000     100.0%      0.0%      0.0%
 flops    25 x    32 x     5         853059424000     100.0%      0.0%      0.0%
 flops   973 x    64 x    50         879380275200     100.0%      0.0%      0.0%
 flops   973 x    50 x    64         879380275200     100.0%      0.0%      0.0%
 flops   955 x    64 x   178         988716236800     100.0%      0.0%      0.0%
 flops   242 x    64 x    32         997020794880     100.0%      0.0%      0.0%
 flops   242 x    32 x    64         997020794880     100.0%      0.0%      0.0%
 flops   955 x    64 x   183        1016489164800     100.0%      0.0%      0.0%
 flops   991 x    64 x   178        1025987215360     100.0%      0.0%      0.0%
 flops   991 x    64 x   183        1054807080960     100.0%      0.0%      0.0%
 flops   955 x    64 x   195        1083144192000     100.0%      0.0%      0.0%
 flops   224 x    32 x   178        1091357245440     100.0%      0.0%      0.0%
 flops   224 x    32 x   183        1122013347840     100.0%      0.0%      0.0%
 flops   991 x    64 x   195        1123974758400     100.0%      0.0%      0.0%
 flops    25 x    18 x    25        1155150000000     100.0%      0.0%      0.0%
 flops   224 x    32 x   195        1195587993600     100.0%      0.0%      0.0%
 flops   973 x    32 x   178        1385108623360     100.0%      0.0%      0.0%
 flops   973 x    32 x   183        1424016168960     100.0%      0.0%      0.0%
 flops   242 x    64 x    64        1450212065280     100.0%      0.0%      0.0%
 flops   973 x    32 x   195        1517394278400     100.0%      0.0%      0.0%
 flops    13 x    13 x    32        1580390807424     100.0%      0.0%      0.0%
 flops   224 x    64 x   178        1587428720640     100.0%      0.0%      0.0%
 flops   224 x    64 x   183        1632019415040     100.0%      0.0%      0.0%
 flops   224 x    64 x   195        1739037081600     100.0%      0.0%      0.0%
 flops   224 x    32 x    32        1903403335680     100.0%      0.0%      0.0%
 flops   973 x    64 x   178        2014703452160     100.0%      0.0%      0.0%
 flops   973 x    64 x   183        2071296245760     100.0%      0.0%      0.0%
 flops   955 x    32 x    32        2088731504640     100.0%      0.0%      0.0%
 flops   991 x    32 x    32        2167469027328     100.0%      0.0%      0.0%
 flops   973 x    64 x   195        2207118950400     100.0%      0.0%      0.0%
 flops    13 x    13 x    64        2298750265344     100.0%      0.0%      0.0%
 flops   224 x    32 x    64        2768586670080     100.0%      0.0%      0.0%
 flops   224 x    64 x    32        2768586670080     100.0%      0.0%      0.0%
 flops   955 x    32 x    64        3038154915840     100.0%      0.0%      0.0%
 flops   955 x    64 x    32        3038154915840     100.0%      0.0%      0.0%
 flops    13 x    25 x    32        3122328352000     100.0%      0.0%      0.0%
 flops    25 x    13 x    32        3130344131200     100.0%      0.0%      0.0%
 flops   991 x    32 x    64        3152682221568     100.0%      0.0%      0.0%
 flops   991 x    64 x    32        3152682221568     100.0%      0.0%      0.0%
 flops   224 x    64 x    64        4027035156480     100.0%      0.0%      0.0%
 flops   973 x    32 x    32        4256200531968     100.0%      0.0%      0.0%
 flops   955 x    64 x    64        4419134423040     100.0%      0.0%      0.0%
 flops    13 x    25 x    64        4541568512000     100.0%      0.0%      0.0%
 flops    25 x    13 x    64        4553227827200     100.0%      0.0%      0.0%
 flops   991 x    64 x    64        4585719595008     100.0%      0.0%      0.0%
 flops    25 x    25 x    32        6003844000000     100.0%      0.0%      0.0%
 flops   973 x    64 x    32        6190837137408     100.0%      0.0%      0.0%
 flops   973 x    32 x    64        6190837137408     100.0%      0.0%      0.0%
 flops    25 x    25 x    64        8732864000000     100.0%      0.0%      0.0%
 flops   973 x    64 x    64        9004854018048     100.0%      0.0%      0.0%
 flops    13 x    32 x    13       15125955959296     100.0%      0.0%      0.0%
 flops    25 x    32 x    13       30240811910400     100.0%      0.0%      0.0%
 flops    13 x    32 x    25       30240811910400     100.0%      0.0%      0.0%
 flops    25 x    32 x    25       57500800000000     100.0%      0.0%      0.0%
 flops inhomo. stacks             103833500288000     100.0%      0.0%      0.0%
 flops total                       388.039387E+12     100.0%      0.0%      0.0%
 flops max/rank                      6.737655E+12     100.0%      0.0%      0.0%
 matmuls inhomo. stacks                  10438400     100.0%      0.0%      0.0%
 matmuls total                         7558386244     100.0%      0.0%      0.0%
 number of processed stacks             140040856     100.0%      0.0%      0.0%
 average stack size                                    54.0       0.0       0.0
 marketing flops                   414.192822E+12
 -------------------------------------------------------------------------------
 # multiplications                          37664
 max memory usage/rank               1.520939E+09
 # max total images/rank                        5
 # max 3D layers                                1
 # MPI messages exchanged               343495680
 MPI messages size (bytes):
  total size                        41.165957E+12
  min size                           0.000000E+00
  max size                           1.894792E+06
  average size                     119.844180E+03
 MPI breakdown and total messages size (bytes):
             size <=      128             2058840                        0
       128 < size <=     8192            46594878             381705240576
      8192 < size <=    32768           107398602            2190960859968
     32768 < size <=   131072           147759200           10727766199616
    131072 < size <=  4194304            39684160           27839315769440
   4194304 < size <= 16777216                   0                        0
  16777216 < size                               0                        0
 -------------------------------------------------------------------------------

 *** WARNING in dbcsr/mm/dbcsr_mm.F:268 :: Using a non-square number of ***
 *** MPI ranks might lead to poor performance.                          ***
 *** Used ranks: 80                                                     ***
 *** Suggested: 81 169                                                  ***

 -------------------------------------------------------------------------------
 
 MEMORY| Estimated peak process memory [MiB]                                1475

 -------------------------------------------------------------------------------
 ----                             MULTIGRID INFO                            ----
 -------------------------------------------------------------------------------
 count for grid        1:        1184801          cutoff [a.u.]          600.00
 count for grid        2:        7502951          cutoff [a.u.]          200.00
 count for grid        3:        6683608          cutoff [a.u.]           66.67
 count for grid        4:        9588100          cutoff [a.u.]           22.22
 count for grid        5:        8580030          cutoff [a.u.]            7.41
 total gridlevel count  :       33539490

 -------------------------------------------------------------------------------
 -                                                                             -
 -                         MESSAGE PASSING PERFORMANCE                         -
 -                                                                             -
 -------------------------------------------------------------------------------

 ROUTINE             CALLS      AVE VOLUME [Bytes]
 MP_Group             3492
 MP_Bcast            67453                   6858.
 MP_Allreduce       373423                    292.
 MP_Sync              1812
 MP_Alltoall        204208                5426597.
 MP_SendRecv         18012                   5925.
 MP_ISendRecv       947052                 133520.
 MP_Wait           8346049
 MP_comm_split        1807
 MP_ISend          9635800                 113383.
 MP_IRecv          9638640                 113283.
 MP_Recv              1064                 162816.
 MP_Memory         4201242
 -------------------------------------------------------------------------------


 -------------------------------------------------------------------------------
 -                                                                             -
 -                           R E F E R E N C E S                               -
 -                                                                             -
 -------------------------------------------------------------------------------
 
 CP2K version 7.0 (Development Version), the CP2K developers group (2018).
 CP2K is freely available from https://www.cp2k.org/ .

 Schuett, Ole; Messmer, Peter; Hutter, Juerg; VandeVondele, Joost. 
 Electronic Structure Calculations on Graphics Processing Units, John Wiley & Sons, Ltd, 173-190 (2016). 
 GPU-Accelerated Sparse Matrix-Matrix Multiplication for Linear Scaling Density Functional Theory.
 http://dx.doi.org/10.1002/9781118670712.ch8


 Borstnik, U; VandeVondele, J; Weber, V; Hutter, J. 
 PARALLEL COMPUTING, 40 (5-6), 47-58 (2014). 
 Sparse matrix multiplication: The distributed block-compressed sparse
 row library.
 http://dx.doi.org/10.1016/j.parco.2014.03.012


 Hutter, J; Iannuzzi, M; Schiffmann, F; VandeVondele, J. 
 WILEY INTERDISCIPLINARY REVIEWS-COMPUTATIONAL MOLECULAR SCIENCE, 4 (1), 15-25 (2014). 
 CP2K: atomistic simulations of condensed matter systems.
 http://dx.doi.org/10.1002/wcms.1159


 Grimme, S; Ehrlich, S; Goerigk, L. 
 JOURNAL OF COMPUTATIONAL CHEMISTRY, 32, 1456 (2011). 
 Effect of the damping function in dispersion corrected density functional theory.
 http://dx.doi.org/10.1002/jcc.21759


 Grimme, S; Antony, J; Ehrlich, S; Krieg, H. 
 JOURNAL OF CHEMICAL PHYSICS, 132 (15), 154104 (2010). 
 A consistent and accurate ab initio parametrization of density
 functional dispersion correction (DFT-D) for the 94 elements H-Pu.
 http://dx.doi.org/10.1063/1.3382344


 VandeVondele, J; Hutter, J. 
 JOURNAL OF CHEMICAL PHYSICS, 127 (11), 114105 (2007). 
 Gaussian basis sets for accurate calculations on molecular systems in
 gas and condensed phases.
 http://dx.doi.org/10.1063/1.2770708


 Krack, M. 
 THEORETICAL CHEMISTRY ACCOUNTS, 114 (1-3), 145-152 (2005). 
 Pseudopotentials for H to Kr optimized for gradient-corrected
 exchange-correlation functionals.
 http://dx.doi.org/10.1007/s00214-005-0655-y


 VandeVondele, J; Krack, M; Mohamed, F; Parrinello, M; Chassaing, T;
 Hutter, J. COMPUTER PHYSICS COMMUNICATIONS, 167 (2), 103-128 (2005). 
 QUICKSTEP: Fast and accurate density functional calculations using a
 mixed Gaussian and plane waves approach.
 http://dx.doi.org/10.1016/j.cpc.2004.12.014


 Frigo, M; Johnson, SG. 
 PROCEEDINGS OF THE IEEE, 93 (2), 216-231 (2005). 
 The design and implementation of FFTW3.
 http://dx.doi.org/10.1109/JPROC.2004.840301


 Kolafa, J. 
 JOURNAL OF COMPUTATIONAL CHEMISTRY, 25 (3), 335-342 (2004). 
 Time-reversible always stable predictor-corrector method for molecular dynamics of polarizable molecules.
 http://dx.doi.org/10.1002/jcc.10385


 VandeVondele, J; Hutter, J. 
 JOURNAL OF CHEMICAL PHYSICS, 118 (10), 4365-4369 (2003). 
 An efficient orbital transformation method for electronic structure
 calculations.
 http://dx.doi.org/10.1063/1.1543154


 Hartwigsen, C; Goedecker, S; Hutter, J. 
 PHYSICAL REVIEW B, 58 (7), 3641-3662 (1998). 
 Relativistic separable dual-space Gaussian pseudopotentials from H to Rn.
 http://dx.doi.org/10.1103/PhysRevB.58.3641


 Lippert, G; Hutter, J; Parrinello, M. 
 MOLECULAR PHYSICS, 92 (3), 477-487 (1997). 
 A hybrid Gaussian and plane wave density functional scheme.
 http://dx.doi.org/10.1080/002689797170220


 Perdew, JP; Burke, K; Ernzerhof, M. 
 PHYSICAL REVIEW LETTERS, 77 (18), 3865-3868 (1996). 
 Generalized gradient approximation made simple.
 http://dx.doi.org/10.1103/PhysRevLett.77.3865


 Goedecker, S; Teter, M; Hutter, J. 
 PHYSICAL REVIEW B, 54 (3), 1703-1710 (1996). 
 Separable dual-space Gaussian pseudopotentials.
 http://dx.doi.org/10.1103/PhysRevB.54.1703


 -------------------------------------------------------------------------------
 -                                                                             -
 -                                T I M I N G                                  -
 -                                                                             -
 -------------------------------------------------------------------------------
 SUBROUTINE                       CALLS  ASD         SELF TIME        TOTAL TIME
                                MAXIMUM       AVERAGE  MAXIMUM  AVERAGE  MAXIMUM
 CP2K                                 1  1.0     0.51     0.86 19151.55 19151.58
 cp_geo_opt                           1  2.0     0.07     0.15 19149.02 19149.17
 geoopt_bfgs                          1  3.0     0.33     0.58 19148.95 19149.17
 cp_eval_at                          58  4.0     0.05     0.07 18564.23 18564.28
 qs_forces                           57  5.0     0.07     0.12 18469.27 18469.29
 qs_energies                         58  6.0     0.10     0.20 17386.78 17386.90
 scf_env_do_scf                      58  7.0     0.03     0.08 16634.47 16634.51
 scf_env_do_scf_inner_loop         1236  8.0     0.17     0.27 15380.03 15380.09
 rebuild_ks_matrix                 1293  9.9     0.01     0.02  8119.79  8121.56
 qs_ks_build_kohn_sham_matrix      1293 10.9     0.81     1.51  8119.78  8121.55
 qs_ks_update_qs_env               1299  9.0     0.01     0.02  7076.88  7078.56
 qs_rho_update_rho                 1294  9.0     0.08     0.15  6756.93  6761.28
 calculate_rho_elec                2588 10.0  3353.12  3427.58  6756.85  6761.27
 sum_up_and_integrate               704 11.8    10.55    11.80  4347.65  4349.17
 integrate_v_rspace                1408 12.8  2372.23  2468.73  4337.09  4340.00
 pw_transfer                      40599 13.4     4.36     5.24  4216.27  4236.18
 fft_wrap_pw1pw2                  38013 14.4     0.45     0.52  4195.93  4215.37
 fft_wrap_pw1pw2_600              22029 15.7   242.78   271.97  3886.93  3905.38
 fft3d_ps                         38013 16.4  1131.24  1251.19  3626.96  3664.27
 rs_pw_transfer                   20269 13.0     0.29     0.33  3249.33  3298.92
 density_rs2pw                     2588 11.0     0.20     0.23  3046.47  3114.04
 qs_vxc_create                     1293 11.9     0.06     0.11  2949.26  2950.11
 dbcsr_multiply_generic           37664 13.8     2.48     3.12  2592.29  2598.66
 mp_alltoall_z22v                 38013 18.4  2173.66  2408.51  2173.66  2408.51
 qs_scf_new_mos                    1236  9.0     0.03     0.06  2384.93  2386.58
 qs_scf_loop_do_ot                 1236 10.0     0.12     0.26  2384.90  2386.52
 mp_waitall_1                   7617321 16.7  2282.52  2382.39  2282.52  2382.39
 ot_scf_mini                       1236 11.0     0.34     0.58  2194.62  2196.08
 xc_vxc_pw_create                   704 12.8   144.89   162.86  2169.73  2170.11
 multiply_cannon                  37664 14.8    12.03    12.72  1986.95  2025.33
 xc_rho_set_and_dset_create        1293 13.9    22.77    24.63  1608.25  1633.58
 mp_waitany                      728728 14.9  1438.85  1545.29  1438.85  1545.29
 potential_pw2rs                   1408 13.8     1.13     1.27  1540.00  1543.18
 x_to_yz                          16567 18.0   179.98   206.55  1412.99  1492.62
 rs_pw_transfer_RS2PW_600          2704 13.0   532.13   587.14  1372.90  1421.81
 multiply_cannon_metrocomm3      753280 15.8     2.02     2.17  1152.61  1297.89
 init_scf_loop                       63  8.0     0.01     0.03  1252.28  1252.32
 yz_to_x                          13454 16.9   110.82   116.73  1049.50  1166.13
 ot_mini                           1236 12.0     0.03     0.06  1114.37  1115.76
 qs_ks_update_qs_env_forces          57  6.0     0.00     0.00  1055.94  1056.11
 rs_pw_transfer_PW2RS_600          1581 15.3   352.94   387.74   889.35   914.81
 xc_exc_calc                        589 13.0     2.87     3.22   779.47   780.00
 qs_ot_get_derivative              1294 13.0     0.02     0.03   712.82   714.13
 prepare_preconditioner              63  9.0     0.00     0.00   646.43   646.66
 mp_alltoall_d11v                 40489 15.3   542.04   615.83   542.04   615.83
 multiply_cannon_metrocomm1      753280 15.8     2.32     2.47   488.51   615.20
 make_preconditioner                126 10.0     0.01     0.02   589.95   590.07
 rs_distribute_matrix              4110 12.0     5.00    10.29   512.66   583.71
 mp_sum_dm                         5586  6.0   560.44   567.82   560.44   567.82
 virial_evaluate                     56  4.0     0.00     0.00   558.40   565.68
 write_restart                       57  4.0     7.00   558.90     7.05   558.99
 make_full_all                      126 11.0     0.05     0.07   536.94   537.14
 qs_ot_get_p                       2598 11.9     0.07     0.19   485.93   491.52
 cp_fm_syevd                       1807 14.1     0.01     0.03   486.05   488.26
 cp_fm_redistribute_end            1807 15.1   184.68   464.26   187.23   466.18
 init_scf_run                        58  7.0     0.00     0.01   463.78   463.79
 scf_env_initial_rho_setup           58  8.0     0.00     0.02   463.78   463.79
 wfi_extrapolate                     58  9.0     0.03     0.10   452.08   452.10
 cp_fm_syevd_base                  1807 14.8   277.12   444.35   277.12   444.35
 apply_preconditioner_dbcsr        1420 14.0     0.00     0.02   421.61   422.47
 apply_all                         1420 15.0     0.17     0.25   421.61   422.46
 mp_sum_d                         57443 14.9   312.15   395.31   312.15   395.31
 ot_new_cg_direction                647 13.0     0.03     0.05   392.33   392.40
 -------------------------------------------------------------------------------

 The number of warnings for this run is : 1
 
 -------------------------------------------------------------------------------
  **** **** ******  **  PROGRAM ENDED AT                 2019-07-10 06:35:24.234
 ***** ** ***  *** **   PROGRAM RAN ON            blg7124.int.ets1.calculquebec.
 **    ****   ******    PROGRAM RAN BY                                       rzk
 ***** **    ** ** **   PROGRAM PROCESS ID                                 54539
  **** **  *******  **  PROGRAM STOPPED IN /lustre04/scratch/rzk/rzk/GaN-carbene
                                           /443-adatoms-both-2x2/09-BondBreaking
                                           -CH/03-0501-CH-to-Nsur-PES
