     156
 i =        1, E =     -6136.6603532766
 Ga        -0.0031973405       -0.0158329470       -0.5375944904
  N        -0.0002729854        1.8584782375        0.6069981317
 Ga        -0.0003340515        1.8280283746        2.6383712237
  N        -0.0033777176       -0.0156158752        3.2696815690
 Ga        -0.0021655282       -0.0150503027        5.2604003256
  N         0.0008177636        1.8596741436        5.8482846022
 Ga         0.0022946940        1.8581486135        7.8482490667
  N         0.0008326882       -0.0150039568        8.4505707916
 Ga         0.0037444917       -0.0157220603       10.4497872209
  N         0.0042796383        1.8600675465       11.0416166443
 Ga         0.0095941788        1.8622244215       13.0320911228
  N         0.0153194656       -0.0087401598       13.6325669227
 Ga         0.0303822254       -0.0177691953       15.6248277131
  N         0.0199854514        1.8574633122       16.2215583963
 Ga         0.0449352322        1.8471529902       18.2876535260
  N         0.0483590269       -0.0268000272       18.6986676899
 Ga        -1.6230536089        2.7898791647        0.3238560223
  N        -1.6248090936        4.6597399711        0.6066991834
 Ga        -1.5956869365        4.6757306543        2.6367565108
  N        -1.6231061662        2.7899847657        3.2283202021
 Ga        -1.6217673682        2.7906181531        5.2398681157
  N        -1.6212818763        4.6608902654        5.8464737609
 Ga        -1.6191121134        4.6615328671        7.8452088970
  N        -1.6203682644        2.7918357937        8.4511698720
 Ga        -1.6194678029        2.7953360631       10.4471769927
  N        -1.6174707377        4.6668704123       11.0552213984
 Ga        -1.6182102232        4.6713873297       13.0528000288
  N        -1.6072496187        2.7997970567       13.6583750446
 Ga        -1.6007135316        2.8161650935       15.6628872553
  N        -1.5864946831        4.6838059007       16.3112376208
 Ga        -1.5139199892        4.6813775771       18.3868543060
  N        -1.5542563427        2.7883883740       18.7561604375
 Ga        -3.2437384173        5.5955548857        0.3237744750
  N        -3.2373749696        7.4661484801        0.6072560529
 Ga        -3.2641816472        7.4807095980        2.6385102971
  N        -3.2426866334        5.5950413334        3.2286586510
 Ga        -3.2419168367        5.5960176882        5.2401162630
  N        -3.2357831511        7.4663010768        5.8469749067
 Ga        -3.2358784328        7.4670865819        7.8461441332
  N        -3.2398792958        5.5961826089        8.4494867682
 Ga        -3.2389630597        5.5972494533       10.4449633896
  N        -3.2308449675        7.4658304716       11.0556950490
 Ga        -3.2219443935        7.4629914207       13.0545024398
  N        -3.2356095018        5.5973021893       13.6928260846
 Ga        -3.2228888642        5.5920646456       15.7298766546
  N        -3.2086825431        7.4743583100       16.2703205996
 Ga        -3.1860029462        7.4477582924       18.3276136021
  N        -3.1596902711        5.5859171768       18.8510192274
 Ga         3.2425513078       -0.0154444710        0.3241616654
  N         3.2414640830        1.8548065931        0.6063997835
 Ga         3.2696607123        1.8704497092        2.6372698312
  N         3.2428082666       -0.0153017699        3.2283213429
 Ga         3.2440037514       -0.0146000527        5.2399939856
  N         3.2446612532        1.8555405962        5.8474770414
 Ga         3.2471209655        1.8563020512        7.8468903768
  N         3.2448896210       -0.0146519827        8.4498229882
 Ga         3.2477448378       -0.0140868700       10.4453904683
  N         3.2516245000        1.8569317141       11.0513000468
 Ga         3.2584317841        1.8540143932       13.0486633654
  N         3.2577841613       -0.0166316600       13.6599082352
 Ga         3.2696622884       -0.0186599367       15.6657329839
  N         3.2837210299        1.8547761786       16.2306805566
 Ga         3.3198846994        1.8605302372       18.2550567024
  N         3.3062135503       -0.0255032402       18.7102988268
 Ga         1.6221357250        2.7905839995        0.3237582019
  N         1.6293373811        4.6603704173        0.6070200383
 Ga         1.6011631129        4.6758754323        2.6371204567
  N         1.6229364836        2.7900955947        3.2290559336
 Ga         1.6243016170        2.7909479362        5.2409187664
  N         1.6297316427        4.6611462520        5.8483925727
 Ga         1.6302411235        4.6616172898        7.8483518067
  N         1.6261114067        2.7902906646        8.4495944814
 Ga         1.6296901985        2.7920982332       10.4450615056
  N         1.6277820276        4.6624059307       11.0491383729
 Ga         1.6292071238        4.6646667757       13.0448103554
  N         1.6312532525        2.7873402986       13.6464675529
 Ga         1.6546508481        2.7848777500       15.6410799129
  N         1.6293252374        4.6649127030       16.1842299236
 Ga         1.6786577849        4.6401737731       18.1815783859
  N         1.6849438851        2.7775015425       18.6349411465
 Ga         0.0031266928        5.5957808394       -0.5460664704
  N         0.0059631118        7.4707667715        0.6066859908
 Ga         0.0060798616        7.4382894780        2.6368370033
  N         0.0030124017        5.5951899824        3.2695698564
 Ga         0.0046924931        5.5962070855        5.2598100248
  N         0.0074733812        7.4707308797        5.8477433572
 Ga         0.0089327255        7.4693620864        7.8473706835
  N         0.0049626065        5.5956923058        8.4474667331
 Ga         0.0067285971        5.5972418585       10.4447586108
  N         0.0116955765        7.4694159503       11.0450036872
 Ga         0.0151607584        7.4714703374       13.0371124896
  N         0.0057269865        5.6027674463       13.6455310815
 Ga         0.0065929434        5.6014658506       15.6417618218
  N         0.0373078151        7.4660718044       16.2688932466
 Ga         0.0724663710        7.4318282867       18.3566857767
  N         0.1407411843        5.5806194273       18.9037565937
 Ga         6.4873192977       -0.0150112352        0.3233761189
  N         6.4933547217        1.8552431961        0.6060720115
 Ga         6.4660940435        1.8703011529        2.6370693427
  N         6.4880554448       -0.0152151905        3.2289349363
 Ga         6.4897979147       -0.0146100174        5.2408903750
  N         6.4945649386        1.8559331134        5.8479413881
 Ga         6.4944335099        1.8568652500        7.8474945976
  N         6.4910163387       -0.0135251657        8.4515567961
 Ga         6.4945845835       -0.0112802578       10.4481703583
  N         6.4964366437        1.8611462709       11.0529795630
 Ga         6.5008604613        1.8654488875       13.0501740678
  N         6.4899870406       -0.0070081484       13.6381421932
 Ga         6.5091172705       -0.0000415768       15.6389654355
  N         6.5163138341        1.8736545463       16.2289342225
 Ga         6.5723044779        1.8766891151       18.2701468332
  N         6.5610988322       -0.0215074106       18.6563387512
 Ga         4.8675978294        2.7916175254       -0.5407225178
  N         4.8709926308        4.6643844116        0.6069454225
 Ga         4.8708432719        4.6332327732        2.6375461404
  N         4.8683124091        2.7899032901        3.2693112525
 Ga         4.8696073921        2.7911732120        5.2595530516
  N         4.8722547611        4.6651825344        5.8481310385
 Ga         4.8727482175        4.6640310408        7.8478141228
  N         4.8709688591        2.7914532575        8.4504405898
 Ga         4.8737802977        2.7956333229       10.4496985539
  N         4.8796196237        4.6660259380       11.0584589664
 Ga         4.8809651599        4.6697617631       13.0609565332
  N         4.8759818586        2.7957644689       13.6539960180
 Ga         4.8829079138        2.8016588925       15.6676326343
  N         4.8619706188        4.6738725841       16.1683178856
 Ga         4.9320147967        4.6623824301       19.0957572558
  N         4.9399036732        2.7841251275       18.7400907241
 Ga         3.2489113366        5.5950409664        0.3233191379
  N         3.2480354207        7.4655300308        0.6067667694
 Ga         3.2754815071        7.4805720845        2.6380874993
  N         3.2486684570        5.5952811884        3.2291099054
 Ga         3.2500908925        5.5963528060        5.2407853806
  N         3.2504882651        7.4661955137        5.8494232717
 Ga         3.2531347706        7.4666202163        7.8498613755
  N         3.2515168255        5.5960007424        8.4551686217
 Ga         3.2549093822        5.5976582806       10.4543068485
  N         3.2566833044        7.4714424954       11.0507349159
 Ga         3.2573674381        7.4729184580       13.0479535992
  N         3.2491380278        5.5987198755       13.6294997391
 Ga         3.2565505271        5.6059457252       15.6352639166
  N         3.2799995817        7.4864999102       16.1586312347
 Ga         3.3270267135        7.4923211304       18.1719029159
  N         3.3630071768        5.5701100163       18.4642330729
  O         1.5777940723        5.0614646341       21.2422629382
  H         0.9897038647        5.3937857126       20.4839683441
  C         0.8479938687        3.9927750967       21.8772351980
  H         0.1185179358        3.5434310308       21.1864680060
  H         1.5508199837        3.2094946460       22.1879374284
  H         0.3186112913        4.3723438289       22.7641213722
  O         4.2301097915        4.7156377387       21.0723688964
  H         3.2216391449        4.8658667920       21.0771104617
  C         4.5508384618        3.5986031972       21.9417706623
  H         4.1183644903        2.6633671402       21.5603388942
  H         5.6425786833        3.5045231908       21.9648705545
  H         4.1789391352        3.8113211460       22.9520090321
     156
 i =        2, E =     -6136.6610569334
 Ga        -0.0031896470       -0.0158975396       -0.5445514871
  N        -0.0002223704        1.8588651449        0.6077332378
 Ga        -0.0002080564        1.8277393100        2.6380283502
  N        -0.0032931884       -0.0156335922        3.2703300597
 Ga        -0.0021153949       -0.0150195618        5.2604799431
  N         0.0009602878        1.8598371347        5.8486789312
 Ga         0.0026149278        1.8583285861        7.8485536043
  N         0.0010818239       -0.0150595497        8.4496298872
 Ga         0.0042779382       -0.0155627437       10.4483823381
  N         0.0044200878        1.8599263739       11.0449921702
 Ga         0.0114787001        1.8613664836       13.0361802998
  N         0.0168345930       -0.0084389810       13.6412674671
 Ga         0.0344468901       -0.0311149870       15.6350788470
  N         0.0295510059        1.8565930768       16.2162829610
 Ga         0.0488118372        1.8528503714       18.2818727189
  N         0.0405641657       -0.0181611473       18.6865076445
 Ga        -1.6225440370        2.7895164918        0.3240744283
  N        -1.6248621805        4.6596399886        0.6060148300
 Ga        -1.5958203117        4.6756385203        2.6365056954
  N        -1.6230434020        2.7899125467        3.2283416574
 Ga        -1.6217019603        2.7907564759        5.2398232174
  N        -1.6210971932        4.6610306378        5.8468015968
 Ga        -1.6189918714        4.6620393066        7.8454882204
  N        -1.6203581672        2.7920813979        8.4508598042
 Ga        -1.6192691629        2.7956554313       10.4465705296
  N        -1.6177201325        4.6666189879       11.0563710905
 Ga        -1.6190907601        4.6705921049       13.0544761341
  N        -1.6045727385        2.7988815661       13.6654115867
 Ga        -1.6041913407        2.8159943283       15.6711311493
  N        -1.5889474980        4.6811806798       16.3138142448
 Ga        -1.5121840421        4.6827828286       18.3919709639
  N        -1.5525332738        2.7857083690       18.7333451827
 Ga        -3.2437376522        5.5960886930        0.3240438745
  N        -3.2368961454        7.4659267863        0.6080135305
 Ga        -3.2643139486        7.4807770433        2.6382190324
  N        -3.2426734072        5.5949954381        3.2286929724
 Ga        -3.2418207617        5.5959964373        5.2400438971
  N        -3.2355827956        7.4663578697        5.8471001879
 Ga        -3.2355403936        7.4670468344        7.8461160395
  N        -3.2398274168        5.5963951294        8.4501598063
 Ga        -3.2391803282        5.5973518571       10.4459529046
  N        -3.2311105791        7.4662412993       11.0556334454
 Ga        -3.2226465747        7.4622964195       13.0547396945
  N        -3.2377192579        5.5962934684       13.6914660880
 Ga        -3.2248998991        5.5898197848       15.7293858548
  N        -3.2011024722        7.4623658872       16.2793890472
 Ga        -3.1943908051        7.4432534844       18.3348109544
  N        -3.1546570235        5.5845406053       18.8583710656
 Ga         3.2421338886       -0.0156415890        0.3244107521
  N         3.2418274377        1.8549840036        0.6058792139
 Ga         3.2696954398        1.8704018560        2.6372282891
  N         3.2428678498       -0.0152845995        3.2283432193
 Ga         3.2442662960       -0.0145508807        5.2399122238
  N         3.2447545857        1.8555851502        5.8476991296
 Ga         3.2473189288        1.8563033484        7.8469018403
  N         3.2448449447       -0.0144674182        8.4499871065
 Ga         3.2474947696       -0.0139039789       10.4454327773
  N         3.2520730102        1.8571356368       11.0516024701
 Ga         3.2596614007        1.8529841290       13.0487173765
  N         3.2560256757       -0.0166154712       13.6609816567
 Ga         3.2619116005       -0.0190799984       15.6670952636
  N         3.2848597364        1.8479348700       16.2412315676
 Ga         3.3256179989        1.8611333780       18.2678532440
  N         3.2967648208       -0.0223032989       18.7326252668
 Ga         1.6217553272        2.7902352913        0.3240590624
  N         1.6295145692        4.6602706084        0.6064191651
 Ga         1.6015226900        4.6757225976        2.6369132236
  N         1.6230585497        2.7900219484        3.2290953557
 Ga         1.6244756641        2.7911189789        5.2408177548
  N         1.6297809735        4.6612499035        5.8486341454
 Ga         1.6303988687        4.6619505926        7.8484964079
  N         1.6265466187        2.7905826656        8.4496847691
 Ga         1.6299026718        2.7924562586       10.4450744523
  N         1.6278513286        4.6626353502       11.0478856643
 Ga         1.6266864571        4.6660546050       13.0438319814
  N         1.6335878602        2.7884209639       13.6474555768
 Ga         1.6636047011        2.7914145966       15.6406858037
  N         1.6246355368        4.6639904692       16.1759800751
 Ga         1.6786397001        4.6429216677       18.1713572497
  N         1.6861540303        2.7831064407       18.6203276051
 Ga         0.0032656701        5.5957243603       -0.5427033747
  N         0.0060221207        7.4708882466        0.6060997753
 Ga         0.0061683795        7.4385253695        2.6366572059
  N         0.0031355894        5.5951781476        3.2690283147
 Ga         0.0048508568        5.5963038581        5.2595527832
  N         0.0075839999        7.4707029634        5.8482782993
 Ga         0.0089177921        7.4693859363        7.8478891467
  N         0.0051490187        5.5957105114        8.4477061162
 Ga         0.0065394398        5.5970099493       10.4450749070
  N         0.0116487363        7.4696281714       11.0438214009
 Ga         0.0147398906        7.4728665897       13.0357400740
  N         0.0036854146        5.6046435737       13.6437621651
 Ga         0.0079485563        5.5978742550       15.6412780599
  N         0.0408323563        7.4727241313       16.2562575115
 Ga         0.0583450731        7.4368896516       18.3480463971
  N         0.1436564138        5.5860763683       18.9038055976
 Ga         6.4878770425       -0.0152302237        0.3236711712
  N         6.4931325316        1.8554087669        0.6055582612
 Ga         6.4661954610        1.8702106063        2.6370138197
  N         6.4881454916       -0.0151956379        3.2290107411
 Ga         6.4898079169       -0.0146169279        5.2408479447
  N         6.4946874438        1.8559318116        5.8481933463
 Ga         6.4943485580        1.8568700117        7.8476022108
  N         6.4910484454       -0.0133931041        8.4512764165
 Ga         6.4946906789       -0.0105518666       10.4479282447
  N         6.4966847042        1.8619851196       11.0546344332
 Ga         6.5016549464        1.8670141395       13.0524912295
  N         6.4916708734       -0.0056860754       13.6328574193
 Ga         6.5129905312        0.0006829660       15.6318532689
  N         6.5146383544        1.8698871121       16.2363255301
 Ga         6.5697595511        1.8711836875       18.2788213448
  N         6.5559229349       -0.0266160003       18.6664868752
 Ga         4.8677010431        2.7914879515       -0.5373577625
  N         4.8710707512        4.6639879108        0.6063970250
 Ga         4.8708924360        4.6332884247        2.6374937472
  N         4.8684023475        2.7899030206        3.2691258865
 Ga         4.8697187444        2.7912720354        5.2594699662
  N         4.8723838567        4.6652607694        5.8484159083
 Ga         4.8728075704        4.6643248276        7.8480188592
  N         4.8709982684        2.7916308460        8.4503464579
 Ga         4.8739753614        2.7958289077       10.4493986520
  N         4.8790125995        4.6658187611       11.0583760386
 Ga         4.8793382908        4.6700462292       13.0615956934
  N         4.8754877417        2.7968215065       13.6585033429
 Ga         4.8813868810        2.7997999277       15.6753335909
  N         4.8535444171        4.6748732687       16.1548203357
 Ga         4.9389532027        4.6605908204       19.0965525040
  N         4.9428353523        2.7861378148       18.7448057075
 Ga         3.2490304689        5.5955408263        0.3236519749
  N         3.2476907833        7.4652741904        0.6076556444
 Ga         3.2757523659        7.4806152375        2.6379011253
  N         3.2488063275        5.5952363812        3.2292439927
 Ga         3.2501897442        5.5963437548        5.2407994430
  N         3.2505019544        7.4662157837        5.8496744973
 Ga         3.2530939777        7.4665456558        7.8500579095
  N         3.2515758557        5.5960771112        8.4549955277
 Ga         3.2547975661        5.5980515494       10.4542728076
  N         3.2572302022        7.4723927229       11.0487449292
 Ga         3.2585335268        7.4749939322       13.0460408229
  N         3.2465626850        5.6017294837       13.6219535269
 Ga         3.2531895956        5.6079083551       15.6270527950
  N         3.2776560580        7.4840645661       16.1596619122
 Ga         3.3214188588        7.4899615969       18.1721719500
  N         3.3745048312        5.5639526581       18.4469636177
  O         1.5755117021        5.0613363876       21.2431919526
  H         0.9921467592        5.3973729649       20.4830376592
  C         0.8486362736        3.9922224306       21.8789715832
  H         0.1223208927        3.5441506607       21.1832522595
  H         1.5531202897        3.2093428679       22.1869722034
  H         0.3158949699        4.3703591533       22.7641955313
  O         4.2286456904        4.7156341421       21.0730636332
  H         3.2202589611        4.8661286713       21.0784000278
  C         4.5510983566        3.5986263713       21.9420279864
  H         4.1183902290        2.6636265581       21.5604311123
  H         5.6427526919        3.5049674218       21.9649658827
  H         4.1784569159        3.8113281572       22.9519005336
     156
 i =        3, E =     -6136.6612703319
 Ga        -0.0031779160       -0.0159532353       -0.5472532612
  N        -0.0001657567        1.8591269499        0.6078956280
 Ga        -0.0001587679        1.8274595404        2.6377899488
  N        -0.0032158706       -0.0156463883        3.2706176263
 Ga        -0.0019838662       -0.0149460606        5.2606211636
  N         0.0010443328        1.8599223828        5.8484645509
 Ga         0.0027071396        1.8586317150        7.8481425979
  N         0.0013433910       -0.0146227199        8.4495347490
 Ga         0.0049097686       -0.0146044905       10.4480521788
  N         0.0045901974        1.8598739599       11.0488245352
 Ga         0.0121085620        1.8605496186       13.0415775903
  N         0.0181111811       -0.0102834627       13.6441232778
 Ga         0.0360522949       -0.0335427254       15.6381949754
  N         0.0323967898        1.8552227610       16.2153798715
 Ga         0.0500842029        1.8544270688       18.2779105238
  N         0.0374174299       -0.0161719331       18.6813733549
 Ga        -1.6222431902        2.7895965737        0.3241516777
  N        -1.6245863007        4.6597561177        0.6061290495
 Ga        -1.5958386764        4.6755486780        2.6367747769
  N        -1.6228328020        2.7898453099        3.2284142876
 Ga        -1.6215485139        2.7908410260        5.2399659181
  N        -1.6210613623        4.6611098202        5.8467810885
 Ga        -1.6189934129        4.6619372692        7.8455383244
  N        -1.6200783359        2.7920611255        8.4518267109
 Ga        -1.6186847651        2.7955048822       10.4475439708
  N        -1.6179772675        4.6662154339       11.0569280276
 Ga        -1.6199432762        4.6695894722       13.0549634521
  N        -1.6041882397        2.7989413079       13.6689498942
 Ga        -1.6029832451        2.8143051071       15.6745992329
  N        -1.5898712226        4.6780056961       16.3148992471
 Ga        -1.5125935139        4.6858122891       18.3945846224
  N        -1.5508586646        2.7862883574       18.7220749347
 Ga        -3.2434669169        5.5962619480        0.3240825732
  N        -3.2365791367        7.4657720086        0.6081825826
 Ga        -3.2644706762        7.4809116893        2.6379615705
  N        -3.2425749493        5.5951441134        3.2286238221
 Ga        -3.2416942890        5.5960758067        5.2400294330
  N        -3.2354821149        7.4663435872        5.8470547479
 Ga        -3.2354701514        7.4670452926        7.8460226908
  N        -3.2396193226        5.5965133968        8.4506308231
 Ga        -3.2391687176        5.5971549131       10.4466410140
  N        -3.2313893509        7.4662408596       11.0553472175
 Ga        -3.2228016942        7.4618596644       13.0541346783
  N        -3.2381941048        5.5961128689       13.6909568178
 Ga        -3.2243490813        5.5883995241       15.7290607239
  N        -3.1998108950        7.4575710413       16.2820955267
 Ga        -3.1976245193        7.4418706646       18.3382522220
  N        -3.1526556157        5.5853799621       18.8675355080
 Ga         3.2421506965       -0.0159230714        0.3244721738
  N         3.2418171083        1.8549221143        0.6057670303
 Ga         3.2696681923        1.8703203838        2.6375208470
  N         3.2428384265       -0.0153885033        3.2283474213
 Ga         3.2442917530       -0.0145587194        5.2399809127
  N         3.2448533430        1.8556169063        5.8476128281
 Ga         3.2473338587        1.8564742651        7.8468926832
  N         3.2447940964       -0.0143361514        8.4500424391
 Ga         3.2471880718       -0.0137339179       10.4454772009
  N         3.2525680308        1.8571250095       11.0516873929
 Ga         3.2602838551        1.8532354675       13.0485475255
  N         3.2544045553       -0.0159414044       13.6612299140
 Ga         3.2600224562       -0.0188028669       15.6678895736
  N         3.2851883048        1.8466212134       16.2452487216
 Ga         3.3259518054        1.8611706321       18.2736664277
  N         3.2944748642       -0.0222001362       18.7416294542
 Ga         1.6215653860        2.7903111872        0.3241215470
  N         1.6293700131        4.6603723915        0.6065852518
 Ga         1.6016719581        4.6756489848        2.6372287677
  N         1.6230032770        2.7899275597        3.2290989341
 Ga         1.6245070106        2.7911362235        5.2408963528
  N         1.6298416973        4.6612873916        5.8485794976
 Ga         1.6303538392        4.6618969144        7.8486311350
  N         1.6265157119        2.7904800145        8.4503955549
 Ga         1.6298003467        2.7920563287       10.4459795615
  N         1.6273510177        4.6627318514       11.0459590844
 Ga         1.6252508029        4.6664175803       13.0412684231
  N         1.6354718529        2.7896227760       13.6471626018
 Ga         1.6651144416        2.7905266406       15.6400241783
  N         1.6225405865        4.6641930774       16.1698043906
 Ga         1.6795846779        4.6456820180       18.1649294108
  N         1.6855392306        2.7869076598       18.6151121814
 Ga         0.0033319545        5.5957065407       -0.5421009066
  N         0.0060835065        7.4706328851        0.6062142958
 Ga         0.0062389967        7.4386236054        2.6369033774
  N         0.0031816127        5.5951931503        3.2689219500
 Ga         0.0048914427        5.5963243160        5.2595972883
  N         0.0076393681        7.4707387609        5.8482359888
 Ga         0.0089823443        7.4694813404        7.8479944059
  N         0.0049938953        5.5957544995        8.4478385569
 Ga         0.0058429638        5.5970939470       10.4452730559
  N         0.0115118482        7.4699969138       11.0438578474
 Ga         0.0138375024        7.4735744458       13.0360549063
  N         0.0024970396        5.6047574117       13.6421115622
 Ga         0.0059521399        5.5975331379       15.6395767479
  N         0.0405108728        7.4739267638       16.2561445118
 Ga         0.0528519723        7.4393334326       18.3464902515
  N         0.1462886159        5.5876315289       18.9021202609
 Ga         6.4879869894       -0.0155151143        0.3237504952
  N         6.4932587056        1.8553345009        0.6054607261
 Ga         6.4663898042        1.8701561798        2.6373218798
  N         6.4882969629       -0.0152785622        3.2290474095
 Ga         6.4899073791       -0.0145988086        5.2409644410
  N         6.4948007040        1.8559956839        5.8480058577
 Ga         6.4946369971        1.8571576333        7.8474163202
  N         6.4910699253       -0.0130068903        8.4515776171
 Ga         6.4947790121       -0.0096288903       10.4484284578
  N         6.4968405016        1.8629984115       11.0553150481
 Ga         6.5023995333        1.8687228724       13.0532300037
  N         6.4923186130       -0.0043010958       13.6310707349
 Ga         6.5111291020        0.0015547404       15.6297945719
  N         6.5161556462        1.8689547304       16.2389730299
 Ga         6.5690934493        1.8682382921       18.2828566080
  N         6.5543411497       -0.0296328824       18.6712268809
 Ga         4.8677728302        2.7914413745       -0.5357849547
  N         4.8711301825        4.6640684656        0.6062581897
 Ga         4.8709928678        4.6333769318        2.6377596116
  N         4.8684726398        2.7898858981        3.2690939038
 Ga         4.8698224924        2.7913413248        5.2596145256
  N         4.8725437605        4.6653441784        5.8484023238
 Ga         4.8730027277        4.6644123040        7.8481695256
  N         4.8711847308        2.7915809838        8.4505497884
 Ga         4.8741232897        2.7960385267       10.4496157417
  N         4.8787530438        4.6658006796       11.0582394494
 Ga         4.8790618917        4.6690904321       13.0618668275
  N         4.8754017282        2.7963364125       13.6607118262
 Ga         4.8814666639        2.7967371722       15.6789742167
  N         4.8503742041        4.6750038550       16.1474448622
 Ga         4.9422670820        4.6574760467       19.0975708658
  N         4.9443237572        2.7824317657       18.7529429106
 Ga         3.2488822780        5.5957029029        0.3237084635
  N         3.2474820804        7.4650966699        0.6078875332
 Ga         3.2760371624        7.4807549525        2.6376846723
  N         3.2488916983        5.5953666410        3.2292243105
 Ga         3.2502794131        5.5964179461        5.2408907429
  N         3.2506077112        7.4662907132        5.8495747147
 Ga         3.2532021467        7.4668102657        7.8500213596
  N         3.2516061188        5.5962411938        8.4548030342
 Ga         3.2547655133        5.5981639682       10.4542912514
  N         3.2580058689        7.4731696488       11.0469905265
 Ga         3.2590439986        7.4769349162       13.0438263171
  N         3.2449604994        5.6033616117       13.6169572436
 Ga         3.2525276360        5.6097013163       15.6217638598
  N         3.2754322846        7.4844901995       16.1587294648
 Ga         3.3183781379        7.4889333473       18.1715012591
  N         3.3822951323        5.5607372350       18.4346138946
  O         1.5782238688        5.0644823174       21.2444318432
  H         0.9922751528        5.3968979339       20.4842907250
  C         0.8489848449        3.9939252223       21.8752756436