 DBCSR| Multiplication driver                                               BLAS
 DBCSR| Multrec recursion limit                                              512
 DBCSR| Multiplication stack size                                           1000
 DBCSR| Maximum elements for images                                    UNLIMITED
 DBCSR| Multiplicative factor virtual images                                   1
 DBCSR| Multiplication size stacks                                             3
 DBCSR| Number of 3D layers                                               SINGLE
 DBCSR| Use MPI memory allocation                                              T
 DBCSR| Use RMA algorithm                                                      F
 DBCSR| Use Communication thread                                               T
 DBCSR| Communication thread load                                             87


  **** **** ******  **  PROGRAM STARTED AT               2019-07-09 18:09:27.256
 ***** ** ***  *** **   PROGRAM STARTED ON        blg7129.int.ets1.calculquebec.
 **    ****   ******    PROGRAM STARTED BY                                   rzk
 ***** **    ** ** **   PROGRAM PROCESS ID                                193174
  **** **  *******  **  PROGRAM STARTED IN /lustre04/scratch/rzk/rzk/GaN-carbene
                                           /443-adatoms-both-2x2/10-BondFormatio
                                           n-OH/01-0901optimized

 CP2K| version string:                    CP2K version 7.0 (Development Version)
 CP2K| source code revision number:                                    svn:18619
 CP2K| cp2kflags: libint fftw3 libxc parallel mpi3 scalapack mkl                
 CP2K| is freely available from                            https://www.cp2k.org/
 CP2K| Program compiled at                          Sun Apr  7 00:48:11 EDT 2019
 CP2K| Program compiled on                      beluga2.int.ets1.calculquebec.ca
 CP2K| Program compiled for                    Beluga-Linux-x86-64-intel-openmpi
 CP2K| Data directory path    /home/rzk/projects/def-rzk/group/cp2k/cp2k-mcgill/
 CP2K| Input file name                                                 start.inp
 
 GLOBAL| Force Environment number                                              1
 GLOBAL| Basis set file name                                        BASIS_MOLOPT
 GLOBAL| Potential file name                                      GTH_POTENTIALS
 GLOBAL| MM Potential file name                                     MM_POTENTIAL
 GLOBAL| Coordinate file name                                      __STD_INPUT__
 GLOBAL| Method name                                                        CP2K
 GLOBAL| Project name                                                       TEST
 GLOBAL| Preferred FFT library                                             FFTW3
 GLOBAL| Preferred diagonalization lib.                                       SL
 GLOBAL| Run type                                                        GEO_OPT
 GLOBAL| All-to-all communication in single precision                          F
 GLOBAL| FFTs using library dependent lengths                                  F
 GLOBAL| Global print level                                               MEDIUM
 GLOBAL| MPI I/O enabled                                                       T
 GLOBAL| Total number of message passing processes                            80
 GLOBAL| Number of threads for this process                                    1
 GLOBAL| This output is from process                                           0
 GLOBAL| CPU model name :  Intel(R) Xeon(R) Gold 6148 CPU @ 2.40GHz

 MEMORY| system memory details [Kb]
 MEMORY|                        rank 0           min           max       average
 MEMORY| MemTotal            196614300     196614300     196614300     196614300
 MEMORY| MemFree             172207612     172199552     179313840     175736981
 MEMORY| Buffers                    76            76            76            76
 MEMORY| Cached                4336184       1771028       4336184       3053612
 MEMORY| Slab                  2997740       2997740       4129712       3563726
 MEMORY| SReclaimable           993008        655248        993008        824128
 MEMORY| MemLikelyFree       177536880     177528820     181740192     179614797


 *** Fundamental physical constants (SI units) ***

 *** Literature: B. J. Mohr and B. N. Taylor,
 ***             CODATA recommended values of the fundamental physical
 ***             constants: 2006, Web Version 5.1
 ***             http://physics.nist.gov/constants

 Speed of light in vacuum [m/s]                             2.99792458000000E+08
 Magnetic constant or permeability of vacuum [N/A**2]       1.25663706143592E-06
 Electric constant or permittivity of vacuum [F/m]          8.85418781762039E-12
 Planck constant (h) [J*s]                                  6.62606896000000E-34
 Planck constant (h-bar) [J*s]                              1.05457162825177E-34
 Elementary charge [C]                                      1.60217648700000E-19
 Electron mass [kg]                                         9.10938215000000E-31
 Electron g factor [ ]                                     -2.00231930436220E+00
 Proton mass [kg]                                           1.67262163700000E-27
 Fine-structure constant                                    7.29735253760000E-03
 Rydberg constant [1/m]                                     1.09737315685270E+07
 Avogadro constant [1/mol]                                  6.02214179000000E+23
 Boltzmann constant [J/K]                                   1.38065040000000E-23
 Atomic mass unit [kg]                                      1.66053878200000E-27
 Bohr radius [m]                                            5.29177208590000E-11

 *** Conversion factors ***

 [u] -> [a.u.]                                              1.82288848426455E+03
 [Angstrom] -> [Bohr] = [a.u.]                              1.88972613288564E+00
 [a.u.] = [Bohr] -> [Angstrom]                              5.29177208590000E-01
 [a.u.] -> [s]                                              2.41888432650478E-17
 [a.u.] -> [fs]                                             2.41888432650478E-02
 [a.u.] -> [J]                                              4.35974393937059E-18
 [a.u.] -> [N]                                              8.23872205491840E-08
 [a.u.] -> [K]                                              3.15774647902944E+05
 [a.u.] -> [kJ/mol]                                         2.62549961709828E+03
 [a.u.] -> [kcal/mol]                                       6.27509468713739E+02
 [a.u.] -> [Pa]                                             2.94210107994716E+13
 [a.u.] -> [bar]                                            2.94210107994716E+08
 [a.u.] -> [atm]                                            2.90362800883016E+08
 [a.u.] -> [eV]                                             2.72113838565563E+01
 [a.u.] -> [Hz]                                             6.57968392072181E+15
 [a.u.] -> [1/cm] (wave numbers)                            2.19474631370540E+05
 [a.u./Bohr**2] -> [1/cm]                                   5.14048714338585E+03
 
          ----------------------------------------------------------------------
 COLVARS| COLVAR INPUT INDEX:        1
 COLVARS| BOND          >>> ATOMS:                                   207     208
          ----------------------------------------------------------------------

 CELL_TOP| Volume [angstrom^3]:                                         4586.323
 CELL_TOP| Vector a [angstrom    12.864     0.000     0.000    |a| =      12.864
 CELL_TOP| Vector b [angstrom    -6.432    11.141     0.000    |b| =      12.864
 CELL_TOP| Vector c [angstrom     0.000     0.000    32.000    |c| =      32.000
 CELL_TOP| Angle (b,c), alpha [degree]:                                   90.000
 CELL_TOP| Angle (a,c), beta  [degree]:                                   90.000
 CELL_TOP| Angle (a,b), gamma [degree]:                                  120.000
 CELL_TOP| Numerically orthorhombic:                                          NO
 RESTRAINT| Active restraint on COLLECTIVE section Nr.     1. K [a.u.]= 2.000000
 
 GENERATE|  Preliminary Number of Bonds generated:                             0
 GENERATE|  Achieved consistency in connectivity generation.

 CELL| Volume [angstrom^3]:                                             4586.323
 CELL| Vector a [angstrom]:      12.864     0.000     0.000    |a| =      12.864
 CELL| Vector b [angstrom]:      -6.432    11.141     0.000    |b| =      12.864
 CELL| Vector c [angstrom]:       0.000     0.000    32.000    |c| =      32.000
 CELL| Angle (b,c), alpha [degree]:                                       90.000
 CELL| Angle (a,c), beta  [degree]:                                       90.000
 CELL| Angle (a,b), gamma [degree]:                                      120.000
 CELL| Numerically orthorhombic:                                              NO

 CELL_REF| Volume [angstrom^3]:                                         4670.759
 CELL_REF| Vector a [angstrom    12.982     0.000     0.000    |a| =      12.982
 CELL_REF| Vector b [angstrom    -6.491    11.243     0.000    |b| =      12.982
 CELL_REF| Vector c [angstrom     0.000     0.000    32.000    |c| =      32.000
 CELL_REF| Angle (b,c), alpha [degree]:                                   90.000
 CELL_REF| Angle (a,c), beta  [degree]:                                   90.000
 CELL_REF| Angle (a,b), gamma [degree]:                                  120.000
 CELL_REF| Numerically orthorhombic:                                          NO

 *******************************************************************************
 *******************************************************************************
 **                                                                           **
 **     #####                         ##              ##                      **
 **    ##   ##            ##          ##              ##                      **
 **   ##     ##                       ##            ######                    **
 **   ##     ##  ##   ##  ##   #####  ##  ##   ####   ##    #####    #####    **
 **   ##     ##  ##   ##  ##  ##      ## ##   ##      ##   ##   ##  ##   ##   **
 **   ##  ## ##  ##   ##  ##  ##      ####     ###    ##   ######   ######    **
 **    ##  ###   ##   ##  ##  ##      ## ##      ##   ##   ##       ##        **
 **     #######   #####   ##   #####  ##  ##  ####    ##    #####   ##        **
 **           ##                                                    ##        **
 **                                                                           **
 **                                                ... make the atoms dance   **
 **                                                                           **
 **            Copyright (C) by CP2K developers group (2000 - 2018)           **
 **                                                                           **
 *******************************************************************************

 DFT| Spin unrestricted (spin-polarized) Kohn-Sham calculation               UKS
 DFT| Multiplicity                                                             1
 DFT| Number of spin states                                                    2
 DFT| Charge                                                                   0
 DFT| Self-interaction correction (SIC)                                       NO
 DFT| Cutoffs: density                                              1.000000E-10
 DFT|          gradient                                             1.000000E-10
 DFT|          tau                                                  1.000000E-10
 DFT|          cutoff_smoothing_range                               0.000000E+00
 DFT| XC density smoothing                                                  NONE
 DFT| XC derivatives                                                          PW
 FUNCTIONAL| ROUTINE=NEW
 FUNCTIONAL| PBE:
 FUNCTIONAL| J.P.Perdew, K.Burke, M.Ernzerhof, Phys. Rev. Letter, vol. 77, n 18,
 FUNCTIONAL|  pp. 3865-3868, (1996){spin polarized}                             
 vdW POTENTIAL|                                                   Pair Potential
 vdW POTENTIAL|          DFT-D3 (Version 3.1)
 vdW POTENTIAL|          Potential Form: S. Grimme et al, JCP 132: 154104 (2010)
 vdW POTENTIAL|          Zero Damping
 vdW POTENTIAL|          Cutoff Radius [Bohr]:                             18.90
 vdW POTENTIAL|          s6 Scaling Factor:                               1.0000
 vdW POTENTIAL|          sr6 Scaling Factor:                              1.2170
 vdW POTENTIAL|          s8 Scaling Factor:                               0.7220
 vdW POTENTIAL|          Cutoff for CN calculation:                   0.1000E-05

 QS| Method:                                                                 GPW
 QS| Density plane wave grid type                        NON-SPHERICAL FULLSPACE
 QS| Number of grid levels:                                                    5
 QS| Density cutoff [a.u.]:                                                600.0
 QS| Multi grid cutoff [a.u.]: 1) grid level                               600.0
 QS|                           2) grid level                               200.0
 QS|                           3) grid level                                66.7
 QS|                           4) grid level                                22.2
 QS|                           5) grid level                                 7.4
 QS| Grid level progression factor:                                          3.0
 QS| Relative density cutoff [a.u.]:                                        20.0
 QS| Consistent realspace mapping and integration 
 QS| Interaction thresholds: eps_pgf_orb:                                1.0E-07
 QS|                         eps_filter_matrix:                          0.0E+00
 QS|                         eps_core_charge:                            1.0E-16
 QS|                         eps_rho_gspace:                             1.0E-14
 QS|                         eps_rho_rspace:                             1.0E-14
 QS|                         eps_gvg_rspace:                             1.0E-07
 QS|                         eps_ppl:                                    1.0E-02
 QS|                         eps_ppnl:                                   1.0E-09


 ATOMIC KIND INFORMATION

  1. Atomic kind: N                                     Number of atoms:     100

     Orbital Basis Set                                        DZVP-MOLOPT-SR-GTH

       Number of orbital shell sets:                                           1
       Number of orbital shells:                                               5
       Number of primitive Cartesian functions:                                5
       Number of Cartesian basis functions:                                   14
       Number of spherical basis functions:                                   13
       Norm type:                                                              2

       Normalised Cartesian orbitals:

                        Set   Shell   Orbital            Exponent    Coefficient

                          1       1    2s                7.341988       0.360561
                                                         2.542637       0.139177
                                                         0.888575      -0.289383
                                                         0.333802      -0.182244
                                                         0.112012      -0.019197

                          1       2    3s                7.341988       0.282000
                                                         2.542637       0.177875
                                                         0.888575      -0.278381
                                                         0.333802       0.008577
                                                         0.112012       0.154176

                          1       3    3px               7.341988      -1.188719
                                                         2.542637      -0.973969
                                                         0.888575      -0.501079
                                                         0.333802      -0.144894
                                                         0.112012      -0.013986
                          1       3    3py               7.341988      -1.188719
                                                         2.542637      -0.973969
                                                         0.888575      -0.501079
                                                         0.333802      -0.144894
                                                         0.112012      -0.013986
                          1       3    3pz               7.341988      -1.188719
                                                         2.542637      -0.973969
                                                         0.888575      -0.501079
                                                         0.333802      -0.144894
                                                         0.112012      -0.013986

                          1       4    4px               7.341988      -0.094798
                                                         2.542637       0.050069
                                                         0.888575      -0.114797
                                                         0.333802       0.144793
                                                         0.112012       0.066710
                          1       4    4py               7.341988      -0.094798
                                                         2.542637       0.050069
                                                         0.888575      -0.114797
                                                         0.333802       0.144793
                                                         0.112012       0.066710
                          1       4    4pz               7.341988      -0.094798
                                                         2.542637       0.050069
                                                         0.888575      -0.114797
                                                         0.333802       0.144793
                                                         0.112012       0.066710

                          1       5    4dx2              7.341988       1.354688
                                                         2.542637       0.690378
                                                         0.888575       0.855359
                                                         0.333802       0.091746
                                                         0.112012       0.001253
                          1       5    4dxy              7.341988       2.346389
                                                         2.542637       1.195770
                                                         0.888575       1.481524
                                                         0.333802       0.158910
                                                         0.112012       0.002169
                          1       5    4dxz              7.341988       2.346389
                                                         2.542637       1.195770
                                                         0.888575       1.481524
                                                         0.333802       0.158910
                                                         0.112012       0.002169
                          1       5    4dy2              7.341988       1.354688
                                                         2.542637       0.690378
                                                         0.888575       0.855359
                                                         0.333802       0.091746
                                                         0.112012       0.001253
                          1       5    4dyz              7.341988       2.346389
                                                         2.542637       1.195770
                                                         0.888575       1.481524
                                                         0.333802       0.158910
                                                         0.112012       0.002169
                          1       5    4dz2              7.341988       1.354688
                                                         2.542637       0.690378
                                                         0.888575       0.855359
                                                         0.333802       0.091746
                                                         0.112012       0.001253

     GTH Potential information for                                    GTH-PBE-q5

       Description:                       Goedecker-Teter-Hutter pseudopotential
                                           Goedecker et al., PRB 54, 1703 (1996)
                                          Hartwigsen et al., PRB 58, 3641 (1998)
                                                      Krack, TCA 114, 145 (2005)

       Gaussian exponent of the core charge distribution:               6.208322
       Electronic configuration (s p d ...):                               2   3

       Parameters of the local part of the GTH pseudopotential:

                          rloc        C1          C2          C3          C4
                        0.283791  -12.415226    1.868096

       Parameters of the non-local part of the GTH pseudopotential:

                   l      r(l)      h(i,j,l)

                   0    0.255405   13.630263
                   1    0.245495

  2. Atomic kind: Ga                                    Number of atoms:     100

     Orbital Basis Set                                        DZVP-MOLOPT-SR-GTH

       Number of orbital shell sets:                                           1
       Number of orbital shells:                                               7
       Number of primitive Cartesian functions:                                6
       Number of Cartesian basis functions:                                   30
       Number of spherical basis functions:                                   25
       Norm type:                                                              2

       Normalised Cartesian orbitals:

                        Set   Shell   Orbital            Exponent    Coefficient

                          1       1    2s                7.066654       0.013136
                                                         3.428369      -0.094392
                                                         1.430064       0.265435
                                                         0.571611       0.056465
                                                         0.232197      -0.192187
                                                         0.076562      -0.044987

                          1       2    3s                7.066654      -0.098564
                                                         3.428369       0.010390
                                                         1.430064       0.351249
                                                         0.571611       0.182615
                                                         0.232197      -0.425358
                                                         0.076562       0.190349

                          1       3    3px               7.066654       0.002364
                                                         3.428369       0.019222
                                                         1.430064       0.250132
                                                         0.571611      -0.058486
                                                         0.232197      -0.159451
                                                         0.076562      -0.020696
                          1       3    3py               7.066654       0.002364
                                                         3.428369       0.019222
                                                         1.430064       0.250132
                                                         0.571611      -0.058486
                                                         0.232197      -0.159451
                                                         0.076562      -0.020696
                          1       3    3pz               7.066654       0.002364
                                                         3.428369       0.019222
                                                         1.430064       0.250132
                                                         0.571611      -0.058486
                                                         0.232197      -0.159451
                                                         0.076562      -0.020696

                          1       4    4px               7.066654       0.492448
                                                         3.428369      -0.614736
                                                         1.430064      -0.191654
                                                         0.571611       0.037801
                                                         0.232197       0.302315
                                                         0.076562      -0.071336
                          1       4    4py               7.066654       0.492448
                                                         3.428369      -0.614736
                                                         1.430064      -0.191654
                                                         0.571611       0.037801
                                                         0.232197       0.302315
                                                         0.076562      -0.071336
                          1       4    4pz               7.066654       0.492448
                                                         3.428369      -0.614736
                                                         1.430064      -0.191654
                                                         0.571611       0.037801
                                                         0.232197       0.302315
                                                         0.076562      -0.071336

                          1       5    4dx2              7.066654     -15.264855
                                                         3.428369      -5.345726
                                                         1.430064      -1.022732
                                                         0.571611      -0.123148
                                                         0.232197      -0.006983
                                                         0.076562      -0.000022
                          1       5    4dxy              7.066654     -26.439504
                                                         3.428369      -9.259069
                                                         1.430064      -1.771423
                                                         0.571611      -0.213299
                                                         0.232197      -0.012094
                                                         0.076562      -0.000037
                          1       5    4dxz              7.066654     -26.439504
                                                         3.428369      -9.259069
                                                         1.430064      -1.771423
                                                         0.571611      -0.213299
                                                         0.232197      -0.012094
                                                         0.076562      -0.000037
                          1       5    4dy2              7.066654     -15.264855
                                                         3.428369      -5.345726
                                                         1.430064      -1.022732
                                                         0.571611      -0.123148
                                                         0.232197      -0.006983
                                                         0.076562      -0.000022
                          1       5    4dyz              7.066654     -26.439504
                                                         3.428369      -9.259069
                                                         1.430064      -1.771423
                                                         0.571611      -0.213299
                                                         0.232197      -0.012094
                                                         0.076562      -0.000037
                          1       5    4dz2              7.066654     -15.264855
                                                         3.428369      -5.345726
                                                         1.430064      -1.022732
                                                         0.571611      -0.123148
                                                         0.232197      -0.006983
                                                         0.076562      -0.000022

                          1       6    5dx2              7.066654      -5.739265
                                                         3.428369      -2.129289
                                                         1.430064      -0.700423
                                                         0.571611       0.161606
                                                         0.232197       0.043513
                                                         0.076562       0.011205
                          1       6    5dxy              7.066654      -9.940698
                                                         3.428369      -3.688037
                                                         1.430064      -1.213168
                                                         0.571611       0.279909
                                                         0.232197       0.075368
                                                         0.076562       0.019407
                          1       6    5dxz              7.066654      -9.940698
                                                         3.428369      -3.688037
                                                         1.430064      -1.213168
                                                         0.571611       0.279909
                                                         0.232197       0.075368
                                                         0.076562       0.019407
                          1       6    5dy2              7.066654      -5.739265
                                                         3.428369      -2.129289
                                                         1.430064      -0.700423
                                                         0.571611       0.161606
                                                         0.232197       0.043513
                                                         0.076562       0.011205
                          1       6    5dyz              7.066654      -9.940698
                                                         3.428369      -3.688037
                                                         1.430064      -1.213168
                                                         0.571611       0.279909
                                                         0.232197       0.075368
                                                         0.076562       0.019407
                          1       6    5dz2              7.066654      -5.739265
                                                         3.428369      -2.129289
                                                         1.430064      -0.700423
                                                         0.571611       0.161606
                                                         0.232197       0.043513
                                                         0.076562       0.011205

                          1       7    5fx3              7.066654       0.705879
                                                         3.428369      -0.273976
                                                         1.430064       0.113667
                                                         0.571611       0.132480
                                                         0.232197       0.012437
                                                         0.076562       0.003241
                          1       7    5fx2y             7.066654       1.578393
                                                         3.428369      -0.612629
                                                         1.430064       0.254167
                                                         0.571611       0.296234
                                                         0.232197       0.027811
                                                         0.076562       0.007246
                          1       7    5fx2z             7.066654       1.578393
                                                         3.428369      -0.612629
                                                         1.430064       0.254167
                                                         0.571611       0.296234
                                                         0.232197       0.027811
                                                         0.076562       0.007246
                          1       7    5fxy2             7.066654       1.578393
                                                         3.428369      -0.612629
                                                         1.430064       0.254167
                                                         0.571611       0.296234
                                                         0.232197       0.027811
                                                         0.076562       0.007246
                          1       7    5fxyz             7.066654       2.733856
                                                         3.428369      -1.061105
                                                         1.430064       0.440230
                                                         0.571611       0.513092
                                                         0.232197       0.048170
                                                         0.076562       0.012551
                          1       7    5fxz2             7.066654       1.578393
                                                         3.428369      -0.612629
                                                         1.430064       0.254167
                                                         0.571611       0.296234
                                                         0.232197       0.027811
                                                         0.076562       0.007246
                          1       7    5fy3              7.066654       0.705879
                                                         3.428369      -0.273976
                                                         1.430064       0.113667
                                                         0.571611       0.132480
                                                         0.232197       0.012437
                                                         0.076562       0.003241
                          1       7    5fy2z             7.066654       1.578393
                                                         3.428369      -0.612629
                                                         1.430064       0.254167
                                                         0.571611       0.296234
                                                         0.232197       0.027811
                                                         0.076562       0.007246
                          1       7    5fyz2             7.066654       1.578393
                                                         3.428369      -0.612629
                                                         1.430064       0.254167
                                                         0.571611       0.296234
                                                         0.232197       0.027811
                                                         0.076562       0.007246
                          1       7    5fz3              7.066654       0.705879
                                                         3.428369      -0.273976
                                                         1.430064       0.113667
                                                         0.571611       0.132480
                                                         0.232197       0.012437
                                                         0.076562       0.003241

     GTH Potential information for                                   GTH-PBE-q13

       Description:                       Goedecker-Teter-Hutter pseudopotential
                                           Goedecker et al., PRB 54, 1703 (1996)
                                          Hartwigsen et al., PRB 58, 3641 (1998)
                                                      Krack, TCA 114, 145 (2005)

       Gaussian exponent of the core charge distribution:               2.082466
       Electronic configuration (s p d ...):                           2   1  10

       Parameters of the local part of the GTH pseudopotential:

                          rloc        C1          C2          C3          C4
                        0.490000

       Parameters of the non-local part of the GTH pseudopotential:

                   l      r(l)      h(i,j,l)

                   0    0.416777   10.475690   -4.921768    0.870706
                                   -4.921768    7.770178   -2.248152
                                    0.870706   -2.248152    1.784415
                   1    0.569627    1.777985    0.195860
                                    0.195860   -0.231744
                   2    0.238126  -16.248680

  3. Atomic kind: O                                     Number of atoms:       2

     Orbital Basis Set                                     DZVP-MOLOPT-SR-GTH-q6

       Number of orbital shell sets:                                           1
       Number of orbital shells:                                               5
       Number of primitive Cartesian functions:                                5
       Number of Cartesian basis functions:                                   14
       Number of spherical basis functions:                                   13
       Norm type:                                                              2

       Normalised Cartesian orbitals:

                        Set   Shell   Orbital            Exponent    Coefficient

                          1       1    2s               10.389228       0.396646
                                                         3.849621       0.208811
                                                         1.388401      -0.301641
                                                         0.496955      -0.274061
                                                         0.162492      -0.033677

                          1       2    3s               10.389228       0.303673
                                                         3.849621       0.240943
                                                         1.388401      -0.313066
                                                         0.496955      -0.043055
                                                         0.162492       0.213991

                          1       3    3px              10.389228      -1.530415
                                                         3.849621      -1.371928
                                                         1.388401      -0.761951
                                                         0.496955      -0.253695
                                                         0.162492      -0.035541
                          1       3    3py              10.389228      -1.530415
                                                         3.849621      -1.371928
                                                         1.388401      -0.761951
                                                         0.496955      -0.253695
                                                         0.162492      -0.035541
                          1       3    3pz              10.389228      -1.530415
                                                         3.849621      -1.371928
                                                         1.388401      -0.761951
                                                         0.496955      -0.253695
                                                         0.162492      -0.035541

                          1       4    4px              10.389228      -0.565392
                                                         3.849621      -0.038231
                                                         1.388401      -0.382373
                                                         0.496955       0.179070
                                                         0.162492       0.122714
                          1       4    4py              10.389228      -0.565392
                                                         3.849621      -0.038231
                                                         1.388401      -0.382373
                                                         0.496955       0.179070
                                                         0.162492       0.122714
                          1       4    4pz              10.389228      -0.565392
                                                         3.849621      -0.038231
                                                         1.388401      -0.382373
                                                         0.496955       0.179070
                                                         0.162492       0.122714

                          1       5    4dx2             10.389228       1.867377
                                                         3.849621       0.670994
                                                         1.388401       1.353441
                                                         0.496955       0.273538
                                                         0.162492       0.006620
                          1       5    4dxy             10.389228       3.234392
                                                         3.849621       1.162195
                                                         1.388401       2.344229
                                                         0.496955       0.473781
                                                         0.162492       0.011466
                          1       5    4dxz             10.389228       3.234392
                                                         3.849621       1.162195
                                                         1.388401       2.344229
                                                         0.496955       0.473781
                                                         0.162492       0.011466
                          1       5    4dy2             10.389228       1.867377
                                                         3.849621       0.670994
                                                         1.388401       1.353441
                                                         0.496955       0.273538
                                                         0.162492       0.006620
                          1       5    4dyz             10.389228       3.234392
                                                         3.849621       1.162195
                                                         1.388401       2.344229
                                                         0.496955       0.473781
                                                         0.162492       0.011466
                          1       5    4dz2             10.389228       1.867377
                                                         3.849621       0.670994
                                                         1.388401       1.353441
                                                         0.496955       0.273538
                                                         0.162492       0.006620

     GTH Potential information for                                    GTH-PBE-q6

       Description:                       Goedecker-Teter-Hutter pseudopotential
                                           Goedecker et al., PRB 54, 1703 (1996)
                                          Hartwigsen et al., PRB 58, 3641 (1998)
                                                      Krack, TCA 114, 145 (2005)

       Gaussian exponent of the core charge distribution:               8.360253
       Electronic configuration (s p d ...):                               2   4

       Parameters of the local part of the GTH pseudopotential:

                          rloc        C1          C2          C3          C4
                        0.244554  -16.667215    2.487311

       Parameters of the non-local part of the GTH pseudopotential:

                   l      r(l)      h(i,j,l)

                   0    0.220956   18.337458
                   1    0.211332

  4. Atomic kind: H                                     Number of atoms:       8

     Orbital Basis Set                                     DZVP-MOLOPT-SR-GTH-q1

       Number of orbital shell sets:                                           1
       Number of orbital shells:                                               3
       Number of primitive Cartesian functions:                                5
       Number of Cartesian basis functions:                                    5
       Number of spherical basis functions:                                    5
       Norm type:                                                              2

       Normalised Cartesian orbitals:

                        Set   Shell   Orbital            Exponent    Coefficient

                          1       1    2s               10.068468      -0.133023
                                                         2.680223      -0.177618
                                                         0.791502      -0.258419
                                                         0.239116      -0.107525
                                                         0.082193      -0.014019

                          1       2    3s               10.068468       0.344673
                                                         2.680223       1.819821
                                                         0.791502      -0.999069
                                                         0.239116       0.017430
                                                         0.082193       0.082660

                          1       3    3px              10.068468       0.155326
                                                         2.680223       0.367157
                                                         0.791502       0.311480
                                                         0.239116       0.080105
                                                         0.082193       0.033440
                          1       3    3py              10.068468       0.155326
                                                         2.680223       0.367157
                                                         0.791502       0.311480
                                                         0.239116       0.080105
                                                         0.082193       0.033440
                          1       3    3pz              10.068468       0.155326
                                                         2.680223       0.367157
                                                         0.791502       0.311480
                                                         0.239116       0.080105
                                                         0.082193       0.033440

     GTH Potential information for                                    GTH-PBE-q1

       Description:                       Goedecker-Teter-Hutter pseudopotential
                                           Goedecker et al., PRB 54, 1703 (1996)
                                          Hartwigsen et al., PRB 58, 3641 (1998)
                                                      Krack, TCA 114, 145 (2005)

       Gaussian exponent of the core charge distribution:              12.500000
       Electronic configuration (s p d ...):                                   1

       Parameters of the local part of the GTH pseudopotential:

                          rloc        C1          C2          C3          C4
                        0.200000   -4.178900    0.724463

  5. Atomic kind: C                                     Number of atoms:       2

     Orbital Basis Set                                     DZVP-MOLOPT-SR-GTH-q4

       Number of orbital shell sets:                                           1
       Number of orbital shells:                                               5
       Number of primitive Cartesian functions:                                5
       Number of Cartesian basis functions:                                   14
       Number of spherical basis functions:                                   13
       Norm type:                                                              2

       Normalised Cartesian orbitals:

                        Set   Shell   Orbital            Exponent    Coefficient

                          1       1    2s                5.605331       0.322515
                                                         2.113016       0.213043
                                                         0.769911      -0.209686
                                                         0.348157      -0.219794
                                                         0.128212      -0.022789

                          1       2    3s                5.605331       0.552234
                                                         2.113016       0.082072
                                                         0.769911       0.007843
                                                         0.348157       0.136893
                                                         0.128212       0.074283

                          1       3    3px               5.605331      -0.703879
                                                         2.113016      -0.642521
                                                         0.769911      -0.374851
                                                         0.348157      -0.139743
                                                         0.128212      -0.027849
                          1       3    3py               5.605331      -0.703879
                                                         2.113016      -0.642521
                                                         0.769911      -0.374851
                                                         0.348157      -0.139743
                                                         0.128212      -0.027849
                          1       3    3pz               5.605331      -0.703879
                                                         2.113016      -0.642521
                                                         0.769911      -0.374851
                                                         0.348157      -0.139743
                                                         0.128212      -0.027849

                          1       4    4px               5.605331      -0.480376
                                                         2.113016      -0.552894
                                                         0.769911      -0.316145
                                                         0.348157       0.210505
                                                         0.128212       0.076095
                          1       4    4py               5.605331      -0.480376
                                                         2.113016      -0.552894
                                                         0.769911      -0.316145
                                                         0.348157       0.210505
                                                         0.128212       0.076095
                          1       4    4pz               5.605331      -0.480376
                                                         2.113016      -0.552894
                                                         0.769911      -0.316145
                                                         0.348157       0.210505
                                                         0.128212       0.076095

                          1       5    4dx2              5.605331       0.640026
                                                         2.113016       0.274300
                                                         0.769911       0.446711
                                                         0.348157       0.028674
                                                         0.128212       0.029790
                          1       5    4dxy              5.605331       1.108557
                                                         2.113016       0.475102
                                                         0.769911       0.773726
                                                         0.348157       0.049666
                                                         0.128212       0.051599
                          1       5    4dxz              5.605331       1.108557
                                                         2.113016       0.475102
                                                         0.769911       0.773726
                                                         0.348157       0.049666
                                                         0.128212       0.051599
                          1       5    4dy2              5.605331       0.640026
                                                         2.113016       0.274300
                                                         0.769911       0.446711
                                                         0.348157       0.028674
                                                         0.128212       0.029790
                          1       5    4dyz              5.605331       1.108557
                                                         2.113016       0.475102
                                                         0.769911       0.773726
                                                         0.348157       0.049666
                                                         0.128212       0.051599
                          1       5    4dz2              5.605331       0.640026
                                                         2.113016       0.274300
                                                         0.769911       0.446711
                                                         0.348157       0.028674
                                                         0.128212       0.029790

     GTH Potential information for                                    GTH-PBE-q4

       Description:                       Goedecker-Teter-Hutter pseudopotential
                                           Goedecker et al., PRB 54, 1703 (1996)
                                          Hartwigsen et al., PRB 58, 3641 (1998)
                                                      Krack, TCA 114, 145 (2005)

       Gaussian exponent of the core charge distribution:               4.364419
       Electronic configuration (s p d ...):                               2   2

       Parameters of the local part of the GTH pseudopotential:

                          rloc        C1          C2          C3          C4
                        0.338471   -8.803674    1.339211

       Parameters of the non-local part of the GTH pseudopotential:

                   l      r(l)      h(i,j,l)

                   0    0.302576    9.622487
                   1    0.291507


 MOLECULE KIND INFORMATION


 All atoms are their own molecule, skipping detailed information


 TOTAL NUMBERS AND MAXIMUM NUMBERS

  Total number of            - Atomic kinds:                                   5
                             - Atoms:                                        212
                             - Shell sets:                                   212
                             - Shells:                                      1244
                             - Primitive Cartesian functions:               1160
                             - Cartesian basis functions:                   4496
                             - Spherical basis functions:                   3892

  Maximum angular momentum of- Orbital basis functions:                        3
                             - Local part of the GTH pseudopotential:          2
                             - Non-local part of the GTH pseudopotential:      4


 MODULE QUICKSTEP:  ATOMIC COORDINATES IN angstrom

  Atom  Kind  Element       X           Y           Z          Z(eff)       Mass

       1     1 N    7    0.008900    1.934103    2.515725      5.00      14.0067
       2     2 Ga  31    0.002356   -0.029511    2.827976     13.00      69.7230
       3     1 N    7    0.010609   -0.065549    5.030716      5.00      14.0067
       4     2 Ga  31    0.015015    1.762361    5.801174     13.00      69.7230
       5     1 N    7    0.015720    1.778473    7.808187      5.00      14.0067
       6     2 Ga  31    0.017423   -0.066482    8.447594     13.00      69.7230
       7     1 N    7    0.017362   -0.067338   10.424596      5.00      14.0067
       8     2 Ga  31    0.017698    1.773304   11.072160     13.00      69.7230
       9     1 N    7    0.017960    1.753989   13.069154      5.00      14.0067
      10     2 Ga  31    0.017148   -0.067066   13.871153     13.00      69.7230
      11     1 N    7    0.016100   -0.067316   16.072888      5.00      14.0067
      12     2 Ga  31    0.017771    1.967379   16.479077     13.00      69.7230
      13     2 Ga  31    0.002811    3.625164    1.327639     13.00      69.7230
      14     1 N    7   -1.468962    4.510656    2.515226      5.00      14.0067
      15     2 Ga  31   -1.654905    2.678275    3.282684     13.00      69.7230
      16     1 N    7   -1.593426    2.722696    5.268211      5.00      14.0067
      17     2 Ga  31   -1.615536    4.587530    5.810074     13.00      69.7230
      18     1 N    7   -1.599794    4.584716    7.809455      5.00      14.0067
      19     2 Ga  31   -1.579833    2.724846    8.443533     13.00      69.7230
      20     1 N    7   -1.580096    2.726350   10.440338      5.00      14.0067
      21     2 Ga  31   -1.605845    4.584677   11.074232     13.00      69.7230
      22     1 N    7   -1.622331    4.595275   13.069794      5.00      14.0067
      23     2 Ga  31   -1.579149    2.725777   13.622839     13.00      69.7230
      24     1 N    7   -1.606226    2.711574   15.587651      5.00      14.0067
      25     2 Ga  31   -1.435336    4.487309   16.479174     13.00      69.7230
      26     1 N    7    0.009420    3.641645   17.611577      5.00      14.0067
      27     1 N    7   -3.202326    7.469414    2.509706      5.00      14.0067
      28     2 Ga  31   -3.154863    5.499356    2.857491     13.00      69.7230
      29     1 N    7   -3.200391    5.500823    5.037427      5.00      14.0067
      30     2 Ga  31   -3.198776    7.326848    5.800480     13.00      69.7230
      31     1 N    7   -3.200115    7.353421    7.796864      5.00      14.0067
      32     2 Ga  31   -3.197096    5.507524    8.451529     13.00      69.7230
      33     1 N    7   -3.199318    5.506121   10.425762      5.00      14.0067
      34     2 Ga  31   -3.198938    7.344978   11.075263     13.00      69.7230
      35     1 N    7   -3.198301    7.325802   13.069210      5.00      14.0067
      36     2 Ga  31   -3.198158    5.506179   13.869889     13.00      69.7230
      37     1 N    7   -3.199041    5.505422   16.073508      5.00      14.0067
      38     2 Ga  31   -3.197943    7.548719   16.486276     13.00      69.7230
      39     2 Ga  31   -3.194906    9.274809    1.253319     13.00      69.7230
      40     1 N    7   -4.720420   10.093183    2.504009      5.00      14.0067
      41     2 Ga  31   -4.806447    8.303547    3.292043     13.00      69.7230
      42     1 N    7   -4.818660    8.283146    5.240340      5.00      14.0067
      43     2 Ga  31   -4.838459   10.170835    5.794336     13.00      69.7230
      44     1 N    7   -4.817194   10.149466    7.796810      5.00      14.0067
      45     2 Ga  31   -4.796171    8.299100    8.443518     13.00      69.7230
      46     1 N    7   -4.796433    8.295455   10.436754      5.00      14.0067
      47     2 Ga  31   -4.821453   10.155787   11.073289     13.00      69.7230
      48     1 N    7   -4.837689   10.164689   13.068772      5.00      14.0067
      49     2 Ga  31   -4.794890    8.296812   13.626015     13.00      69.7230
      50     1 N    7   -4.822415    8.279343   15.587994      5.00      14.0067
      51     2 Ga  31   -4.647923   10.055337   16.486323     13.00      69.7230
      52     1 N    7   -3.207444    9.215965   17.622803      5.00      14.0067
      53     1 N    7    3.218169    1.792366    2.631733      5.00      14.0067
      54     2 Ga  31    3.223623    0.025102    3.251544     13.00      69.7230
      55     1 N    7    3.231788   -0.072003    5.241049      5.00      14.0067
      56     2 Ga  31    3.222417    1.783376    5.867634     13.00      69.7230
      57     1 N    7    3.233463    1.788929    7.851344      5.00      14.0067
      58     2 Ga  31    3.232433   -0.078034    8.434941     13.00      69.7230
      59     1 N    7    3.233106   -0.079837   10.433149      5.00      14.0067
      60     2 Ga  31    3.231982    1.789099   11.029137     13.00      69.7230
      61     1 N    7    3.233779    1.790569   13.003084      5.00      14.0067
      62     2 Ga  31    3.234536   -0.078923   13.624567     13.00      69.7230
      63     1 N    7    3.236289   -0.046620   15.586139      5.00      14.0067
      64     2 Ga  31    3.233764    1.790957   15.865274     13.00      69.7230
      65     1 N    7    1.509225    4.512138    2.524357      5.00      14.0067
      66     2 Ga  31    1.683448    2.675155    3.269793     13.00      69.7230
      67     1 N    7    1.624040    2.716566    5.260154      5.00      14.0067
      68     2 Ga  31    1.647161    4.579216    5.811718     13.00      69.7230
      69     1 N    7    1.632400    4.582123    7.809698      5.00      14.0067
      70     2 Ga  31    1.614823    2.721322    8.439175     13.00      69.7230
      71     1 N    7    1.614815    2.725064   10.437035      5.00      14.0067
      72     2 Ga  31    1.640143    4.583334   11.072417     13.00      69.7230
      73     1 N    7    1.657716    4.594727   13.068134      5.00      14.0067
      74     2 Ga  31    1.615098    2.726053   13.623305     13.00      69.7230
      75     1 N    7    1.642636    2.713079   15.586984      5.00      14.0067
      76     2 Ga  31    1.463844    4.483374   16.480331     13.00      69.7230
      77     1 N    7    0.022852    7.362290    2.679834      5.00      14.0067
      78     2 Ga  31    0.022946    5.504120    3.314169     13.00      69.7230
      79     1 N    7    0.017589    5.522370    5.261162      5.00      14.0067
      80     2 Ga  31    0.020925    7.365055    5.890984     13.00      69.7230
      81     1 N    7    0.016954    7.363409    7.859109      5.00      14.0067
      82     2 Ga  31    0.016790    5.493349    8.447087     13.00      69.7230
      83     1 N    7    0.016957    5.492711   10.440260      5.00      14.0067
      84     2 Ga  31    0.016243    7.361414   11.032371     13.00      69.7230
      85     1 N    7    0.017189    7.361753   13.004293      5.00      14.0067
      86     2 Ga  31    0.018390    5.492228   13.623512     13.00      69.7230
      87     1 N    7    0.019397    5.522454   15.586657      5.00      14.0067
      88     2 Ga  31    0.018080    7.361910   15.864796     13.00      69.7230
      89     1 N    7   -1.684603   10.090996    2.515961      5.00      14.0067
      90     2 Ga  31   -1.584564    8.287152    3.285896     13.00      69.7230
      91     1 N    7   -1.580542    8.281530    5.237775      5.00      14.0067
      92     2 Ga  31   -1.568479   10.164632    5.795574     13.00      69.7230
      93     1 N    7   -1.582090   10.149421    7.796622      5.00      14.0067
      94     2 Ga  31   -1.602045    8.297768    8.442841     13.00      69.7230
      95     1 N    7   -1.602635    8.295802   10.436220      5.00      14.0067
      96     2 Ga  31   -1.577189   10.155257   11.073046     13.00      69.7230
      97     1 N    7   -1.558943   10.164542   13.067692      5.00      14.0067
      98     2 Ga  31   -1.601131    8.297037   13.625568     13.00      69.7230
      99     1 N    7   -1.573179    8.281232   15.586240      5.00      14.0067
     100     2 Ga  31   -1.756734   10.050036   16.487162     13.00      69.7230
     101     1 N    7    6.452036    1.908062    2.552847      5.00      14.0067
     102     2 Ga  31    6.463040   -0.089362    2.870494     13.00      69.7230
     103     1 N    7    6.452491   -0.064369    5.037220      5.00      14.0067
     104     2 Ga  31    6.449660    1.758754    5.814540     13.00      69.7230
     105     1 N    7    6.449357    1.779205    7.811025      5.00      14.0067
     106     2 Ga  31    6.448044   -0.069213    8.449155     13.00      69.7230
     107     1 N    7    6.448742   -0.067134   10.424780      5.00      14.0067
     108     2 Ga  31    6.448710    1.772595   11.074219     13.00      69.7230
     109     1 N    7    6.450049    1.753780   13.070045      5.00      14.0067
     110     2 Ga  31    6.449874   -0.067963   13.870445     13.00      69.7230
     111     1 N    7    6.448944   -0.068622   16.072329      5.00      14.0067
     112     2 Ga  31    6.450587    1.963538   16.476479     13.00      69.7230
     113     2 Ga  31    6.447180    3.610821    1.546460     13.00      69.7230
     114     1 N    7    4.955737    4.516258    2.543537      5.00      14.0067
     115     2 Ga  31    4.723780    2.646714    3.308800     13.00      69.7230
     116     1 N    7    4.842869    2.718609    5.268097      5.00      14.0067
     117     2 Ga  31    4.809990    4.584295    5.825044     13.00      69.7230
     118     1 N    7    4.835024    4.581371    7.813706      5.00      14.0067
     119     2 Ga  31    4.848128    2.719855    8.444990     13.00      69.7230
     120     1 N    7    4.851420    2.724975   10.439699      5.00      14.0067
     121     2 Ga  31    4.825327    4.583978   11.074457     13.00      69.7230
     122     1 N    7    4.809939    4.594941   13.069898      5.00      14.0067
     123     2 Ga  31    4.852920    2.725543   13.623017     13.00      69.7230
     124     1 N    7    4.826499    2.711322   15.589014      5.00      14.0067
     125     2 Ga  31    4.992479    4.490158   16.476916     13.00      69.7230
     126     1 N    7    6.440943    3.641985   17.606968      5.00      14.0067
     127     1 N    7    3.227022    7.434957    2.493672      5.00      14.0067
     128     1 N    7    3.236416    5.492959    5.056004      5.00      14.0067
     129     2 Ga  31    3.232479    7.327675    5.801583     13.00      69.7230
     130     1 N    7    3.233655    7.352302    7.798890      5.00      14.0067
     131     2 Ga  31    3.230961    5.505457    8.450274     13.00      69.7230
     132     1 N    7    3.233399    5.505238   10.424965      5.00      14.0067
     133     2 Ga  31    3.232916    7.343158   11.077406     13.00      69.7230
     134     1 N    7    3.233945    7.325284   13.070556      5.00      14.0067
     135     2 Ga  31    3.232772    5.505890   13.870539     13.00      69.7230
     136     1 N    7    3.231251    5.505741   16.073718      5.00      14.0067
     137     2 Ga  31    3.234177    7.551203   16.489199     13.00      69.7230
     138     2 Ga  31    3.225578    9.466314    1.258375     13.00      69.7230
     139     1 N    7    1.750499   10.102792    2.528032      5.00      14.0067
     140     2 Ga  31    1.645405    8.282844    3.274910     13.00      69.7230
     141     1 N    7    1.616821    8.282006    5.235424      5.00      14.0067
     142     2 Ga  31    1.599304   10.158517    5.807017     13.00      69.7230
     143     1 N    7    1.613954   10.147382    7.805488      5.00      14.0067
     144     2 Ga  31    1.635682    8.295560    8.447166     13.00      69.7230
     145     1 N    7    1.636388    8.294753   10.439686      5.00      14.0067
     146     2 Ga  31    1.610774   10.155422   11.073961     13.00      69.7230
     147     1 N    7    1.594449   10.164727   13.068922      5.00      14.0067
     148     2 Ga  31    1.636846    8.296640   13.626028     13.00      69.7230
     149     1 N    7    1.609145    8.279603   15.587686      5.00      14.0067
     150     2 Ga  31    1.787687   10.053466   16.489167     13.00      69.7230
     151     1 N    7    3.225678    9.215716   17.626575      5.00      14.0067
     152     1 N    7    9.676769    1.790740    2.651249      5.00      14.0067
     153     2 Ga  31    9.668221    0.040786    3.322208     13.00      69.7230
     154     1 N    7    9.665837   -0.063945    5.285498      5.00      14.0067
     155     2 Ga  31    9.673499    1.795230    5.888125     13.00      69.7230
     156     1 N    7    9.663635    1.793434    7.865312      5.00      14.0067
     157     2 Ga  31    9.665343   -0.077823    8.437837     13.00      69.7230
     158     1 N    7    9.665117   -0.079383   10.435570      5.00      14.0067
     159     2 Ga  31    9.665577    1.790037   11.029470     13.00      69.7230
     160     1 N    7    9.665678    1.791051   13.003346      5.00      14.0067
     161     2 Ga  31    9.666620   -0.078631   13.625172     13.00      69.7230
     162     1 N    7    9.667888   -0.046265   15.586099      5.00      14.0067
     163     2 Ga  31    9.666904    1.790768   15.864741     13.00      69.7230
     164     1 N    7    7.945386    4.525276    2.533408      5.00      14.0067
     165     2 Ga  31    8.173360    2.657992    3.314018     13.00      69.7230
     166     1 N    7    8.054771    2.725114    5.272930      5.00      14.0067
     167     2 Ga  31    8.091292    4.592934    5.820730     13.00      69.7230
     168     1 N    7    8.064524    4.584817    7.811818      5.00      14.0067
     169     2 Ga  31    8.047058    2.724271    8.448426     13.00      69.7230
     170     1 N    7    8.045314    2.726588   10.441610      5.00      14.0067
     171     2 Ga  31    8.072941    4.585040   11.075307     13.00      69.7230
     172     1 N    7    8.090027    4.595198   13.069799      5.00      14.0067
     173     2 Ga  31    8.047512    2.725954   13.623351     13.00      69.7230
     174     1 N    7    8.074618    2.712919   15.587750      5.00      14.0067
     175     2 Ga  31    7.899344    4.484963   16.477241     13.00      69.7230
     176     1 N    7    6.443115    7.376941    2.681727      5.00      14.0067
     177     2 Ga  31    6.447958    5.551706    3.346108     13.00      69.7230
     178     1 N    7    6.448185    5.522319    5.269264      5.00      14.0067
     179     2 Ga  31    6.442112    7.378587    5.895092     13.00      69.7230
     180     1 N    7    6.447181    7.363585    7.858843      5.00      14.0067
     181     2 Ga  31    6.449258    5.494861    8.452308     13.00      69.7230
     182     1 N    7    6.449167    5.493067   10.441934      5.00      14.0067
     183     2 Ga  31    6.449306    7.362254   11.034196     13.00      69.7230
     184     1 N    7    6.450157    7.361585   13.005353      5.00      14.0067
     185     2 Ga  31    6.450308    5.492257   13.624320     13.00      69.7230
     186     1 N    7    6.451754    5.522364   15.588114      5.00      14.0067
     187     2 Ga  31    6.450013    7.362508   15.865641     13.00      69.7230
     188     1 N    7    4.709619   10.101180    2.493940      5.00      14.0067
     189     2 Ga  31    4.804802    8.291135    3.264861     13.00      69.7230
     190     1 N    7    4.846638    8.284146    5.225555      5.00      14.0067
     191     2 Ga  31    4.872056   10.162935    5.805069     13.00      69.7230
     192     1 N    7    4.851563   10.146623    7.804985      5.00      14.0067
     193     2 Ga  31    4.828019    8.297306    8.449750     13.00      69.7230
     194     1 N    7    4.829660    8.294692   10.440464      5.00      14.0067
     195     2 Ga  31    4.855733   10.155918   11.073662     13.00      69.7230
     196     1 N    7    4.873373   10.164664   13.068335      5.00      14.0067
     197     2 Ga  31    4.831069    8.297100   13.626796     13.00      69.7230
     198     1 N    7    4.859432    8.281133   15.586722      5.00      14.0067
     199     2 Ga  31    4.673544   10.049273   16.490027     13.00      69.7230
     200     3 O    8    0.025560    3.727082   -0.479817      6.00      15.9994
     201     4 H    1    2.562603    7.068349    0.599740      1.00       1.0079
     202     5 C    6    1.309088    3.898937   -1.108975      4.00      12.0107
     203     4 H    1    1.762765    4.873349   -0.865501      1.00       1.0079
     204     4 H    1    2.018134    3.098662   -0.841336      1.00       1.0079
     205     4 H    1    1.140256    3.861281   -2.195136      1.00       1.0079
     206     2 Ga  31    3.191980    5.493851    2.908831     13.00      69.7230
     207     3 O    8    2.177042    7.413944   -0.242322      6.00      15.9994
     208     4 H    1    0.041150    7.346276    1.651040      1.00       1.0079
     209     5 C    6    2.896293    8.620471   -0.523277      4.00      12.0107
     210     4 H    1    2.265274    9.268593   -1.143666      1.00       1.0079
     211     4 H    1    6.453983    7.349902    1.655647      1.00       1.0079
     212     4 H    1    3.845787    8.434106   -1.047958      1.00       1.0079




 SCF PARAMETERS         Density guess:                                    ATOMIC
                        --------------------------------------------------------
                        max_scf:                                              80
                        max_scf_history:                                       0
                        max_diis:                                              4
                        --------------------------------------------------------
                        eps_scf:                                        5.00E-06
                        eps_scf_history:                                0.00E+00
                        eps_diis:                                       1.00E-01
                        eps_eigval:                                     1.00E-05
                        --------------------------------------------------------
                        level_shift [a.u.]:                                 0.00
                        --------------------------------------------------------
                        Outer loop SCF in use 
                        No variables optimised in outer loop
                        eps_scf                                         5.00E-06
                        max_scf                                                4
                        No outer loop optimization
                        step_size                                       5.00E-01

 PW_GRID| Information for grid number                                          1
 PW_GRID| Grid distributed over                                    80 processors
 PW_GRID| Real space group dimensions                                    80    1
 PW_GRID| the grid is blocked:                                                NO
 PW_GRID| Cutoff [a.u.]                                                    600.0
 PW_GRID| spherical cutoff:                                                   NO
 PW_GRID|   Bounds   1           -144     143                Points:         288
 PW_GRID|   Bounds   2           -144     143                Points:         288
 PW_GRID|   Bounds   3           -337     337                Points:         675
 PW_GRID| Volume element (a.u.^3)  0.5630E-03     Volume (a.u.^3)     31519.8467
 PW_GRID| Grid span                                                    FULLSPACE
 PW_GRID|   Distribution                         Average         Max         Min
 PW_GRID|   G-Vectors                           699840.0      699840      699840
 PW_GRID|   G-Rays                                2430.0        2430        2430
 PW_GRID|   Real Space Points                   699840.0      777600      583200

 PW_GRID| Information for grid number                                          2
 PW_GRID| Grid distributed over                                    80 processors
 PW_GRID| Real space group dimensions                                    80    1
 PW_GRID| the grid is blocked:                                                NO
 PW_GRID| Cutoff [a.u.]                                                    200.0
 PW_GRID| spherical cutoff:                                                   NO
 PW_GRID|   Bounds   1            -80      79                Points:         160
 PW_GRID|   Bounds   2            -80      79                Points:         160
 PW_GRID|   Bounds   3           -200     199                Points:         400
 PW_GRID| Volume element (a.u.^3)  0.3078E-02     Volume (a.u.^3)     31519.8467
 PW_GRID| Grid span                                                    FULLSPACE
 PW_GRID|   Distribution                         Average         Max         Min
 PW_GRID|   G-Vectors                           128000.0      128160      127840
 PW_GRID|   G-Rays                                 800.0         801         799
 PW_GRID|   Real Space Points                   128000.0      128000      128000

 PW_GRID| Information for grid number                                          3
 PW_GRID| Grid distributed over                                    80 processors
 PW_GRID| Real space group dimensions                                    80    1
 PW_GRID| the grid is blocked:                                                NO
 PW_GRID| Cutoff [a.u.]                                                     66.7
 PW_GRID| spherical cutoff:                                                   NO
 PW_GRID|   Bounds   1            -48      47                Points:          96
 PW_GRID|   Bounds   2            -48      47                Points:          96
 PW_GRID|   Bounds   3           -112     112                Points:         225
 PW_GRID| Volume element (a.u.^3)  0.1520E-01     Volume (a.u.^3)     31519.8467
 PW_GRID| Grid span                                                    FULLSPACE
 PW_GRID|   Distribution                         Average         Max         Min
[...]
                          5        0.157183E-02                 -15.655885461027
                          6        0.124953E-02                 -15.655885607150
                          7        0.312011E-06                 -15.655885858066

 Energy components [Hartree]           Total Energy ::          -15.655885858066
                                        Band Energy ::           -2.983128125584
                                     Kinetic Energy ::           11.754765134683
                                   Potential Energy ::          -27.410650992750
                                      Virial (-V/T) ::            2.331875684345
                                        Core Energy ::          -26.153522949072
                                          XC Energy ::           -3.157392363346
                                     Coulomb Energy ::           13.655029454351
                       Total Pseudopotential Energy ::          -37.943026860963
                       Local Pseudopotential Energy ::          -39.220419683052
                    Nonlocal Pseudopotential Energy ::            1.277392822089
                                        Confinement ::            0.347387772086

 Orbital energies  State     L     Occupation   Energy[a.u.]          Energy[eV]

                       1     0          2.000      -0.861522          -23.443215
 
                       1     1          4.000      -0.315021           -8.572154
 

 Total Electron Density at R=0:                                         0.000093

 Guess for atomic kind: H

 Electronic structure
    Total number of core electrons                                          0.00
    Total number of valence electrons                                       1.00
    Total number of electrons                                               1.00
    Multiplicity                                                   not specified
    S      1.00
 

 *******************************************************************************
                  Iteration          Convergence                     Energy [au]
 *******************************************************************************
                          1        0.250972E-02                  -0.375256815885
                          2        0.570752E-04                  -0.375258666164
                          3        0.832405E-09                  -0.375258667122

 Energy components [Hartree]           Total Energy ::           -0.375258667122
                                        Band Energy ::           -0.076317618391
                                     Kinetic Energy ::            0.771356566341
                                   Potential Energy ::           -1.146615233463
                                      Virial (-V/T) ::            1.486491829455
                                        Core Energy ::           -0.456090715790
                                          XC Energy ::           -0.314218627334
                                     Coulomb Energy ::            0.395050676003
                       Total Pseudopotential Energy ::           -1.238482237174
                       Local Pseudopotential Energy ::           -1.238482237174
                    Nonlocal Pseudopotential Energy ::            0.000000000000
                                        Confinement ::            0.110349550431

 Orbital energies  State     L     Occupation   Energy[a.u.]          Energy[eV]

                       1     0          1.000      -0.076318           -2.076708
 

 Total Electron Density at R=0:                                         0.425022

 Guess for atomic kind: C

 Electronic structure
    Total number of core electrons                                          2.00
    Total number of valence electrons                                       4.00
    Total number of electrons                                               6.00
    Multiplicity                                                   not specified
    S   [  2.00] 2.00
    P      2.00
 

 *******************************************************************************
                  Iteration          Convergence                     Energy [au]
 *******************************************************************************
                          1        0.261814E-01                  -5.246264729087
                          2        0.905236E-02                  -5.246529568708
                          3        0.681743E-04                  -5.246565167452
                          4        0.792829E-08                  -5.246565169473

 Energy components [Hartree]           Total Energy ::           -5.246565169473
                                        Band Energy ::           -1.058732595430
                                     Kinetic Energy ::            3.518928170589
                                   Potential Energy ::           -8.765493340062
                                      Virial (-V/T) ::            2.490955460053
                                        Core Energy ::           -8.429377169956
                                          XC Energy ::           -1.450183342358
                                     Coulomb Energy ::            4.632995342842
                       Total Pseudopotential Energy ::          -11.978048809389
                       Local Pseudopotential Energy ::          -12.816738187351
                    Nonlocal Pseudopotential Energy ::            0.838689377962
                                        Confinement ::            0.297434688432

 Orbital energies  State     L     Occupation   Energy[a.u.]          Energy[eV]

                       1     0          2.000      -0.410911          -11.181458
 
                       1     1          2.000      -0.118455           -3.223332
 

 Total Electron Density at R=0:                                         0.001337

 Spin 1
 Re-scaling the density matrix to get the right number of electrons for spin 1
                  # Electrons              Trace(P)               Scaling factor
                          914               914.000                        1.000

 Spin 2
 Re-scaling the density matrix to get the right number of electrons for spin 2
                  # Electrons              Trace(P)               Scaling factor
                          914               914.000                        1.000


 SCF WAVEFUNCTION OPTIMIZATION

  ----------------------------------- OT ---------------------------------------
  Minimizer      : CG                  : conjugate gradient
  Preconditioner : FULL_ALL            : diagonalization, state selective
  Precond_solver : DEFAULT
  Line search    : 2PNT                : 2 energies, one gradient
  stepsize       :    0.15000000                  energy_gap     :    0.08000000
  eps_taylor     :   0.10000E-15                  max_taylor     :             4
  ----------------------------------- OT ---------------------------------------

  Step     Update method      Time    Convergence         Total energy    Change
  ------------------------------------------------------------------------------
     1 OT CG       0.15E+00   15.5     0.01352979     -8397.6037220257 -8.40E+03
     2 OT LS       0.33E-01   10.3                    -8154.7321193565
     3 OT CG       0.33E-01   22.6     0.03111985     -8413.0466229396 -1.54E+01
     4 OT LS       0.11E-01    9.8                    -8327.5968875176
     5 OT CG       0.11E-01   19.7     0.02916852     -8416.6548864294 -3.61E+00
     6 OT LS       0.14E-01    9.1                    -8448.8969213691
     7 OT CG       0.14E-01   19.5     0.02198642     -8452.6245090639 -3.60E+01
     8 OT LS       0.91E-02    9.1                    -8464.5682879059
     9 OT CG       0.91E-02   19.0     0.00963056     -8468.7701663342 -1.61E+01
    10 OT LS       0.18E-01    7.7                    -8473.2247956624
    11 OT CG       0.18E-01   14.2     0.00484559     -8475.0735479680 -6.30E+00
    12 OT LS       0.73E-01    7.1                    -8478.0609873891
    13 OT CG       0.73E-01   14.4     0.00385619     -8483.9247495590 -8.85E+00
    14 OT LS       0.46E-01    6.5                    -8485.8810162262
    15 OT CG       0.46E-01   15.6     0.00770561     -8486.7285880956 -2.80E+00
    16 OT LS       0.35E-01    8.9                    -8493.4264480405
    17 OT CG       0.35E-01   19.2     0.00500580     -8494.0310787063 -7.30E+00
    18 OT LS       0.20E-01    8.6                    -8494.8425495247
    19 OT CG       0.20E-01   15.5     0.00294388     -8495.8058110634 -1.77E+00
    20 OT LS       0.72E-01    8.8                    -8496.8714884239
    21 OT CG       0.72E-01   18.2     0.00214621     -8497.9641592204 -2.16E+00
    22 OT LS       0.12E+00    8.4                    -8499.5817867577
    23 OT CG       0.12E+00   16.9     0.00154117     -8499.9703111707 -2.01E+00
    24 OT LS       0.19E+00    6.6                    -8501.4252297449
    25 OT CG       0.19E+00   17.6     0.00165257     -8501.6423080150 -1.67E+00
    26 OT LS       0.63E-01    8.9                    -8499.8764886611
    27 OT CG       0.63E-01   18.5     0.00174076     -8502.1485725112 -5.06E-01
    28 OT LS       0.71E-01    7.0                    -8502.7797249172
    29 OT CG       0.71E-01   16.6     0.00106700     -8502.7841114101 -6.36E-01
    30 OT LS       0.84E-01    8.7                    -8503.1154273503
    31 OT CG       0.84E-01   19.1     0.00104537     -8503.1256520616 -3.42E-01
    32 OT LS       0.78E-01    8.5                    -8503.4318631259
    33 OT CG       0.78E-01   14.2     0.00059552     -8503.4335250065 -3.08E-01
    34 OT LS       0.29E+00    6.6                    -8503.6040147836
    35 OT CG       0.29E+00   14.3     0.00071450     -8503.7888017946 -3.55E-01
    36 OT LS       0.13E+00    6.6                    -8503.6578375421
    37 OT CG       0.13E+00   14.1     0.00056435     -8504.0145915427 -2.26E-01
    38 OT LS       0.12E+00    7.0                    -8504.1497056367
    39 OT CG       0.12E+00   14.5     0.00055892     -8504.1500729216 -1.35E-01
    40 OT LS       0.12E+00    6.6                    -8504.2808737275
    41 OT CG       0.12E+00   18.2     0.00040915     -8504.2809415608 -1.31E-01
    42 OT LS       0.15E+00    8.5                    -8504.3640547049
    43 OT CG       0.15E+00   18.6     0.00031709     -8504.3677774165 -8.68E-02
    44 OT LS       0.17E+00    7.1                    -8504.4283873268
    45 OT CG       0.17E+00   18.3     0.00029662     -8504.4297492620 -6.20E-02
    46 OT LS       0.14E+00    8.8                    -8504.4709859927
    47 OT CG       0.14E+00   18.7     0.00026317     -8504.4731711140 -4.34E-02
    48 OT LS       0.17E+00    6.9                    -8504.5131608691
    49 OT CG       0.17E+00   15.7     0.00026819     -8504.5140054839 -4.08E-02
    50 OT LS       0.13E+00    8.3                    -8504.5423099292
    51 OT CG       0.13E+00   18.8     0.00021427     -8504.5454927029 -3.15E-02
    52 OT LS       0.20E+00    8.6                    -8504.5734150607
    53 OT CG       0.20E+00   14.4     0.00020855     -8504.5774228140 -3.19E-02
    54 OT LS       0.16E+00    8.7                    -8504.6003629304
    55 OT CG       0.16E+00   18.3     0.00017870     -8504.6017121197 -2.43E-02
    56 OT LS       0.18E+00    8.4                    -8504.6217736706
    57 OT CG       0.18E+00   16.7     0.00016490     -8504.6220078833 -2.03E-02
    58 OT LS       0.17E+00    6.6                    -8504.6384891194
    59 OT CG       0.17E+00   14.4     0.00014939     -8504.6385135753 -1.65E-02
    60 OT LS       0.17E+00    6.7                    -8504.6524340945
    61 OT CG       0.17E+00   14.2     0.00013954     -8504.6524364812 -1.39E-02
    62 OT LS       0.17E+00    6.6                    -8504.6640888854
    63 OT CG       0.17E+00   14.5     0.00013182     -8504.6640996465 -1.17E-02
    64 OT LS       0.16E+00    7.0                    -8504.6740148468
    65 OT CG       0.16E+00   15.4     0.00011851     -8504.6740480632 -9.95E-03
    66 OT LS       0.18E+00    8.5                    -8504.6829455885
    67 OT CG       0.18E+00   19.0     0.00011328     -8504.6830711357 -9.02E-03
    68 OT LS       0.16E+00    9.4                    -8504.6905505971
    69 OT CG       0.16E+00   16.9     0.00010536     -8504.6906325188 -7.56E-03
    70 OT LS       0.20E+00    8.4                    -8504.6981685471
    71 OT CG       0.20E+00   18.4     0.00010278     -8504.6983813273 -7.75E-03
    72 OT LS       0.18E+00    8.8                    -8504.7050722562
    73 OT CG       0.18E+00   14.7     0.00010337     -8504.7051447139 -6.76E-03
    74 OT LS       0.19E+00    6.6                    -8504.7121940205
    75 OT CG       0.19E+00   18.6     0.00010016     -8504.7122008375 -7.06E-03
    76 OT LS       0.18E+00    8.6                    -8504.7187104647
    77 OT CG       0.18E+00   18.3     0.00009923     -8504.7187122510 -6.51E-03
    78 OT LS       0.18E+00    6.5                    -8504.7250457859
    79 OT CG       0.18E+00   18.2     0.00009513     -8504.7250500398 -6.34E-03
    80 OT LS       0.20E+00    8.6                    -8504.7312204379

  Leaving inner SCF loop after reaching    80 steps.


  Electronic density on regular grids:      -1827.9999999996        0.0000000004
  Core density on regular grids:             1828.0000000000       -0.0000000000
  Total charge density on r-space grids:        0.0000000004
  Total charge density g-space grids:           0.0000000004

  Overlap energy of the core charge distribution:               0.00000179439732
  Self energy of the core charge distribution:             -12335.45990357241499
  Core Hamiltonian energy:                                   3694.85862931855127
  Hartree energy:                                            1428.80705595210225
  Exchange-correlation energy:                              -1291.96608963006520
  Dispersion energy:                                           -0.97091430045073

  Total energy:                                             -8504.73122043788135

  outer SCF iter =    1 RMS gradient =   0.95E-04 energy =      -8504.7312204379

  ----------------------------------- OT ---------------------------------------
  Minimizer      : CG                  : conjugate gradient
  Preconditioner : FULL_ALL            : diagonalization, state selective
  Precond_solver : DEFAULT
  Line search    : 2PNT                : 2 energies, one gradient
  stepsize       :    0.15000000                  energy_gap     :    0.08000000
  eps_taylor     :   0.10000E-15                  max_taylor     :             4
  ----------------------------------- OT ---------------------------------------

  Step     Update method      Time    Convergence         Total energy    Change
  ------------------------------------------------------------------------------
     1 OT CG       0.15E+00   34.4     0.00014497     -8504.7312559242 -6.21E-03
     2 OT LS       0.28E+00    6.4                    -8504.7477096605
     3 OT CG       0.28E+00   14.1     0.00030901     -8504.7521065750 -2.09E-02
     4 OT LS       0.77E-01    6.8                    -8504.5954951112
     5 OT CG       0.77E-01   14.3     0.00010304     -8504.7729518371 -2.08E-02
     6 OT LS       0.13E+00    6.5                    -8504.7763915865
     7 OT CG       0.13E+00   14.5     0.00007387     -8504.7769850578 -4.03E-03
     8 OT LS       0.29E+00    7.1                    -8504.7807957738
     9 OT CG       0.29E+00   16.0     0.00012224     -8504.7827620225 -5.78E-03
    10 OT LS       0.66E-01    8.5                    -8504.7435963412
    11 OT CG       0.66E-01   18.0     0.00008452     -8504.7862927715 -3.53E-03
    12 OT LS       0.12E+00    9.2                    -8504.7886465321
    13 OT CG       0.12E+00   17.1     0.00003141     -8504.7892890767 -3.00E-03
    14 OT LS       0.11E+00    8.5                    -8504.7896802865
    15 OT CG       0.11E+00   18.5     0.00003818     -8504.7896827195 -3.94E-04
    16 OT LS       0.10E+00    8.8                    -8504.7902186913
    17 OT CG       0.10E+00   18.3     0.00002882     -8504.7902217110 -5.39E-04
    18 OT LS       0.22E+00    8.4                    -8504.7906910310
    19 OT CG       0.22E+00   18.5     0.00002331     -8504.7908746554 -6.53E-04
    20 OT LS       0.27E+00    8.7                    -8504.7913863527
    21 OT CG       0.27E+00   18.5     0.00002142     -8504.7914019813 -5.27E-04
    22 OT LS       0.32E+00    8.7                    -8504.7918959749
    23 OT CG       0.32E+00   17.3     0.00002397     -8504.7919096866 -5.08E-04
    24 OT LS       0.12E+00    7.0                    -8504.7914779598
    25 OT CG       0.12E+00   14.2     0.00003016     -8504.7921676059 -2.58E-04
    26 OT LS       0.12E+00    6.6                    -8504.7925526371
    27 OT CG       0.12E+00   14.2     0.00001904     -8504.7925522611 -3.85E-04
    28 OT LS       0.26E+00    6.6                    -8504.7927918556
    29 OT CG       0.26E+00   14.2     0.00002079     -8504.7928849358 -3.33E-04
    30 OT LS       0.30E+00    6.9                    -8504.7932960779
    31 OT CG       0.30E+00   16.3     0.00002664     -8504.7933056598 -4.21E-04
    32 OT LS       0.10E+00    9.0                    -8504.7925879786
    33 OT CG       0.10E+00   18.4     0.00002839     -8504.7935963612 -2.91E-04
    34 OT LS       0.16E+00    8.8                    -8504.7940289808
















Intel MKL ERROR: Parameter 4 was incorrect on entry to DLASCL.

Intel MKL ERROR: Parameter 4 was incorrect on entry to DLASCL.
Intel MKL ERROR: Parameter 4 was incorrect on entry to DLASCL.

Intel MKL ERROR: Parameter 4 was incorrect on entry to DLASCL.
Intel MKL ERROR: Parameter 4 was incorrect on entry to DLASCL.

Intel MKL ERROR: Parameter 4 was incorrect on entry to DLASCL.
Intel MKL ERROR: Parameter 4 was incorrect on entry to DLASCL.

Intel MKL ERROR: Parameter 4 was incorrect on entry to DLASCL.
Intel MKL ERROR: Parameter 4 was incorrect on entry to DLASCL.

Intel MKL ERROR: Parameter 4 was incorrect on entry to DLASCL.
Intel MKL ERROR: Parameter 4 was incorrect on entry to DLASCL.

Intel MKL ERROR: Parameter 4 was incorrect on entry to DLASCL.
Intel MKL ERROR: Parameter 4 was incorrect on entry to DLASCL.

Intel MKL ERROR: Parameter 4 was incorrect on entry to DLASCL.
Intel MKL ERROR: Parameter 4 was incorrect on entry to DLASCL.

Intel MKL ERROR: Parameter 4 was incorrect on entry to DLASCL.
Intel MKL ERROR: Parameter 4 was incorrect on entry to DLASCL.

Intel MKL ERROR: Parameter 4 was incorrect on entry to DLASCL.
Intel MKL ERROR: Parameter 4 was incorrect on entry to DLASCL.

Intel MKL ERROR: Parameter 4 was incorrect on entry to DLASCL.
Intel MKL ERROR: Parameter 4 was incorrect on entry to DLASCL.

Intel MKL ERROR: Parameter 4 was incorrect on entry to DLASCL.
Intel MKL ERROR: Parameter 4 was incorrect on entry to DLASCL.

Intel MKL ERROR: Parameter 4 was incorrect on entry to DLASCL.
{    0,    0}:  On entry to 
DSTEQR parameter number  -31 had an illegal value 
Intel MKL ERROR: Parameter 4 was incorrect on entry to DLASCL.

Intel MKL ERROR: Parameter 4 was incorrect on entry to DLASCL.
Intel MKL ERROR: Parameter 4 was incorrect on entry to DLASCL.

Intel MKL ERROR: Parameter 4 was incorrect on entry to DLASCL.
{    1,    1}:  On entry to 
DSTEQR parameter number  -31 had an illegal value 
Intel MKL ERROR: Parameter 4 was incorrect on entry to DLASCL.

Intel MKL ERROR: Parameter 4 was incorrect on entry to DLASCL.
{    2,    2}:  On entry to 
DSTEQR parameter number  -31 had an illegal value 
Intel MKL ERROR: Parameter 4 was incorrect on entry to DLASCL.

Intel MKL ERROR: Parameter 4 was incorrect on entry to DLASCL.
{    3,    3}:  On entry to 
DSTEQR parameter number  -31 had an illegal value 
