 DBCSR| Multiplication driver                                               BLAS
 DBCSR| Multrec recursion limit                                              512
 DBCSR| Multiplication stack size                                           1000
 DBCSR| Maximum elements for images                                    UNLIMITED
 DBCSR| Multiplicative factor virtual images                                   1
 DBCSR| Multiplication size stacks                                             3
 DBCSR| Number of 3D layers                                               SINGLE
 DBCSR| Use MPI memory allocation                                              T
 DBCSR| Use RMA algorithm                                                      F
 DBCSR| Use Communication thread                                               T
 DBCSR| Communication thread load                                             87


  **** **** ******  **  PROGRAM STARTED AT               2019-05-23 15:35:14.603
 ***** ** ***  *** **   PROGRAM STARTED ON        blg9129.int.ets1.calculquebec.
 **    ****   ******    PROGRAM STARTED BY                                   rzk
 ***** **    ** ** **   PROGRAM PROCESS ID                                184682
  **** **  *******  **  PROGRAM STARTED IN /lustre03/project/6004141/rzk/GaN-car
                                           bene/01-Methanol/01-CH3-ads

 CP2K| version string:                    CP2K version 7.0 (Development Version)
 CP2K| source code revision number:                                    svn:18619
 CP2K| cp2kflags: libint fftw3 libxc parallel mpi3 scalapack mkl                
 CP2K| is freely available from                            https://www.cp2k.org/
 CP2K| Program compiled at                          Sun Apr  7 00:48:11 EDT 2019
 CP2K| Program compiled on                      beluga2.int.ets1.calculquebec.ca
 CP2K| Program compiled for                    Beluga-Linux-x86-64-intel-openmpi
 CP2K| Data directory path    /home/rzk/projects/def-rzk/group/cp2k/cp2k-mcgill/
 CP2K| Input file name                                               restart.inp
 
 GLOBAL| Force Environment number                                              1
 GLOBAL| Basis set file name                                        BASIS_MOLOPT
 GLOBAL| Potential file name                                      GTH_POTENTIALS
 GLOBAL| MM Potential file name                                     MM_POTENTIAL
 GLOBAL| Coordinate file name                                      __STD_INPUT__
 GLOBAL| Method name                                                        CP2K
 GLOBAL| Project name                                                       TEST
 GLOBAL| Preferred FFT library                                             FFTW3
 GLOBAL| Preferred diagonalization lib.                                       SL
 GLOBAL| Run type                                                        GEO_OPT
 GLOBAL| All-to-all communication in single precision                          F
 GLOBAL| FFTs using library dependent lengths                                  F
 GLOBAL| Global print level                                               MEDIUM
 GLOBAL| MPI I/O enabled                                                       T
 GLOBAL| Total number of message passing processes                            80
 GLOBAL| Number of threads for this process                                    1
 GLOBAL| This output is from process                                           0
 GLOBAL| CPU model name :  Intel(R) Xeon(R) Gold 6148 CPU @ 2.40GHz

 MEMORY| system memory details [Kb]
 MEMORY|                        rank 0           min           max       average
 MEMORY| MemTotal            196614300     196614300     196614300     196614300
 MEMORY| MemFree             122426276     122421408     177604592     149997355
 MEMORY| Buffers                     0             0             0             0
 MEMORY| Cached               50973572       1813172      50973572      26393372
 MEMORY| Slab                  7581868       1739304       7581868       4660586
 MEMORY| SReclaimable           309200        291896        309200        300548
 MEMORY| MemLikelyFree       173709048     173704180     179709660     176691275


 *** Fundamental physical constants (SI units) ***

 *** Literature: B. J. Mohr and B. N. Taylor,
 ***             CODATA recommended values of the fundamental physical
 ***             constants: 2006, Web Version 5.1
 ***             http://physics.nist.gov/constants

 Speed of light in vacuum [m/s]                             2.99792458000000E+08
 Magnetic constant or permeability of vacuum [N/A**2]       1.25663706143592E-06
 Electric constant or permittivity of vacuum [F/m]          8.85418781762039E-12
 Planck constant (h) [J*s]                                  6.62606896000000E-34
 Planck constant (h-bar) [J*s]                              1.05457162825177E-34
 Elementary charge [C]                                      1.60217648700000E-19
 Electron mass [kg]                                         9.10938215000000E-31
 Electron g factor [ ]                                     -2.00231930436220E+00
 Proton mass [kg]                                           1.67262163700000E-27
 Fine-structure constant                                    7.29735253760000E-03
 Rydberg constant [1/m]                                     1.09737315685270E+07
 Avogadro constant [1/mol]                                  6.02214179000000E+23
 Boltzmann constant [J/K]                                   1.38065040000000E-23
 Atomic mass unit [kg]                                      1.66053878200000E-27
 Bohr radius [m]                                            5.29177208590000E-11

 *** Conversion factors ***

 [u] -> [a.u.]                                              1.82288848426455E+03
 [Angstrom] -> [Bohr] = [a.u.]                              1.88972613288564E+00
 [a.u.] = [Bohr] -> [Angstrom]                              5.29177208590000E-01
 [a.u.] -> [s]                                              2.41888432650478E-17
 [a.u.] -> [fs]                                             2.41888432650478E-02
 [a.u.] -> [J]                                              4.35974393937059E-18
 [a.u.] -> [N]                                              8.23872205491840E-08
 [a.u.] -> [K]                                              3.15774647902944E+05
 [a.u.] -> [kJ/mol]                                         2.62549961709828E+03
 [a.u.] -> [kcal/mol]                                       6.27509468713739E+02
 [a.u.] -> [Pa]                                             2.94210107994716E+13
 [a.u.] -> [bar]                                            2.94210107994716E+08
 [a.u.] -> [atm]                                            2.90362800883016E+08
 [a.u.] -> [eV]                                             2.72113838565563E+01
 [a.u.] -> [Hz]                                             6.57968392072181E+15
 [a.u.] -> [1/cm] (wave numbers)                            2.19474631370540E+05
 [a.u./Bohr**2] -> [1/cm]                                   5.14048714338585E+03
 

 CELL_TOP| Volume [angstrom^3]:                                         2519.385
 CELL_TOP| Vector a [angstrom     9.737     0.000     0.000    |a| =       9.737
 CELL_TOP| Vector b [angstrom    -4.859     8.416     0.000    |b| =       9.718
 CELL_TOP| Vector c [angstrom     0.000     0.000    30.744    |c| =      30.744
 CELL_TOP| Angle (b,c), alpha [degree]:                                   90.000
 CELL_TOP| Angle (a,c), beta  [degree]:                                   90.000
 CELL_TOP| Angle (a,b), gamma [degree]:                                  120.000
 CELL_TOP| Numerically orthorhombic:                                          NO
 
 GENERATE|  Preliminary Number of Bonds generated:                             0
 GENERATE|  Achieved consistency in connectivity generation.

 CELL| Volume [angstrom^3]:                                             2519.385
 CELL| Vector a [angstrom]:       9.737     0.000     0.000    |a| =       9.737
 CELL| Vector b [angstrom]:      -4.859     8.416     0.000    |b| =       9.718
 CELL| Vector c [angstrom]:       0.000     0.000    30.744    |c| =      30.744
 CELL| Angle (b,c), alpha [degree]:                                       90.000
 CELL| Angle (a,c), beta  [degree]:                                       90.000
 CELL| Angle (a,b), gamma [degree]:                                      120.000
 CELL| Numerically orthorhombic:                                              NO

 CELL_REF| Volume [angstrom^3]:                                         2432.344
 CELL_REF| Vector a [angstrom     9.558     0.000     0.000    |a| =       9.558
 CELL_REF| Vector b [angstrom    -4.779     8.277     0.000    |b| =       9.558
 CELL_REF| Vector c [angstrom     0.000     0.000    30.744    |c| =      30.744
 CELL_REF| Angle (b,c), alpha [degree]:                                   90.000
 CELL_REF| Angle (a,c), beta  [degree]:                                   90.000
 CELL_REF| Angle (a,b), gamma [degree]:                                  120.000
 CELL_REF| Numerically orthorhombic:                                          NO

 *******************************************************************************
 *******************************************************************************
 **                                                                           **
 **     #####                         ##              ##                      **
 **    ##   ##            ##          ##              ##                      **
 **   ##     ##                       ##            ######                    **
 **   ##     ##  ##   ##  ##   #####  ##  ##   ####   ##    #####    #####    **
 **   ##     ##  ##   ##  ##  ##      ## ##   ##      ##   ##   ##  ##   ##   **
 **   ##  ## ##  ##   ##  ##  ##      ####     ###    ##   ######   ######    **
 **    ##  ###   ##   ##  ##  ##      ## ##      ##   ##   ##       ##        **
 **     #######   #####   ##   #####  ##  ##  ####    ##    #####   ##        **
 **           ##                                                    ##        **
 **                                                                           **
 **                                                ... make the atoms dance   **
 **                                                                           **
 **            Copyright (C) by CP2K developers group (2000 - 2018)           **
 **                                                                           **
 *******************************************************************************

 DFT| Spin restricted Kohn-Sham (RKS) calculation                            RKS
 DFT| Multiplicity                                                             1
 DFT| Number of spin states                                                    1
 DFT| Charge                                                                   0
 DFT| Self-interaction correction (SIC)                                       NO
 DFT| Cutoffs: density                                              1.000000E-10
 DFT|          gradient                                             1.000000E-10
 DFT|          tau                                                  1.000000E-10
 DFT|          cutoff_smoothing_range                               0.000000E+00
 DFT| XC density smoothing                                                  NONE
 DFT| XC derivatives                                                          PW
 FUNCTIONAL| ROUTINE=NEW
 FUNCTIONAL| PBE:
 FUNCTIONAL| J.P.Perdew, K.Burke, M.Ernzerhof, Phys. Rev. Letter, vol. 77, n 18,
 FUNCTIONAL|  pp. 3865-3868, (1996){spin unpolarized}                           
 vdW POTENTIAL|                                                   Pair Potential
 vdW POTENTIAL|          DFT-D3 (Version 3.1)
 vdW POTENTIAL|          Potential Form: S. Grimme et al, JCP 132: 154104 (2010)
 vdW POTENTIAL|          Zero Damping
 vdW POTENTIAL|          Cutoff Radius [Bohr]:                             18.90
 vdW POTENTIAL|          s6 Scaling Factor:                               1.0000
 vdW POTENTIAL|          sr6 Scaling Factor:                              1.2170
 vdW POTENTIAL|          s8 Scaling Factor:                               0.7220
 vdW POTENTIAL|          Cutoff for CN calculation:                   0.1000E-05

 QS| Method:                                                                 GPW
 QS| Density plane wave grid type                        NON-SPHERICAL FULLSPACE
 QS| Number of grid levels:                                                    5
 QS| Density cutoff [a.u.]:                                                600.0
 QS| Multi grid cutoff [a.u.]: 1) grid level                               600.0
 QS|                           2) grid level                               200.0
 QS|                           3) grid level                                66.7
 QS|                           4) grid level                                22.2
 QS|                           5) grid level                                 7.4
 QS| Grid level progression factor:                                          3.0
 QS| Relative density cutoff [a.u.]:                                        20.0
 QS| Consistent realspace mapping and integration 
 QS| Interaction thresholds: eps_pgf_orb:                                1.0E-07
 QS|                         eps_filter_matrix:                          0.0E+00
 QS|                         eps_core_charge:                            1.0E-16
 QS|                         eps_rho_gspace:                             1.0E-14
 QS|                         eps_rho_rspace:                             1.0E-14
 QS|                         eps_gvg_rspace:                             1.0E-07
 QS|                         eps_ppl:                                    1.0E-02
 QS|                         eps_ppnl:                                   1.0E-09


 ATOMIC KIND INFORMATION

  1. Atomic kind: Ga                                    Number of atoms:      72

     Orbital Basis Set                                    DZVP-MOLOPT-SR-GTH-q13

       Number of orbital shell sets:                                           1
       Number of orbital shells:                                               7
       Number of primitive Cartesian functions:                                6
       Number of Cartesian basis functions:                                   30
       Number of spherical basis functions:                                   25
       Norm type:                                                              2

       Normalised Cartesian orbitals:

                        Set   Shell   Orbital            Exponent    Coefficient

                          1       1    2s                7.066654       0.013136
                                                         3.428369      -0.094392
                                                         1.430064       0.265435
                                                         0.571611       0.056465
                                                         0.232197      -0.192187
                                                         0.076562      -0.044987

                          1       2    3s                7.066654      -0.098564
                                                         3.428369       0.010390
                                                         1.430064       0.351249
                                                         0.571611       0.182615
                                                         0.232197      -0.425358
                                                         0.076562       0.190349

                          1       3    3px               7.066654       0.002364
                                                         3.428369       0.019222
                                                         1.430064       0.250132
                                                         0.571611      -0.058486
                                                         0.232197      -0.159451
                                                         0.076562      -0.020696
                          1       3    3py               7.066654       0.002364
                                                         3.428369       0.019222
                                                         1.430064       0.250132
                                                         0.571611      -0.058486
                                                         0.232197      -0.159451
                                                         0.076562      -0.020696
                          1       3    3pz               7.066654       0.002364
                                                         3.428369       0.019222
                                                         1.430064       0.250132
                                                         0.571611      -0.058486
                                                         0.232197      -0.159451
                                                         0.076562      -0.020696

                          1       4    4px               7.066654       0.492448
                                                         3.428369      -0.614736
                                                         1.430064      -0.191654
                                                         0.571611       0.037801
                                                         0.232197       0.302315
                                                         0.076562      -0.071336
                          1       4    4py               7.066654       0.492448
                                                         3.428369      -0.614736
                                                         1.430064      -0.191654
                                                         0.571611       0.037801
                                                         0.232197       0.302315
                                                         0.076562      -0.071336
                          1       4    4pz               7.066654       0.492448
                                                         3.428369      -0.614736
                                                         1.430064      -0.191654
                                                         0.571611       0.037801
                                                         0.232197       0.302315
                                                         0.076562      -0.071336

                          1       5    4dx2              7.066654     -15.264855
                                                         3.428369      -5.345726
                                                         1.430064      -1.022732
                                                         0.571611      -0.123148
                                                         0.232197      -0.006983
                                                         0.076562      -0.000022
                          1       5    4dxy              7.066654     -26.439504
                                                         3.428369      -9.259069
                                                         1.430064      -1.771423
                                                         0.571611      -0.213299
                                                         0.232197      -0.012094
                                                         0.076562      -0.000037
                          1       5    4dxz              7.066654     -26.439504
                                                         3.428369      -9.259069
                                                         1.430064      -1.771423
                                                         0.571611      -0.213299
                                                         0.232197      -0.012094
                                                         0.076562      -0.000037
                          1       5    4dy2              7.066654     -15.264855
                                                         3.428369      -5.345726
                                                         1.430064      -1.022732
                                                         0.571611      -0.123148
                                                         0.232197      -0.006983
                                                         0.076562      -0.000022
                          1       5    4dyz              7.066654     -26.439504
                                                         3.428369      -9.259069
                                                         1.430064      -1.771423
                                                         0.571611      -0.213299
                                                         0.232197      -0.012094
                                                         0.076562      -0.000037
                          1       5    4dz2              7.066654     -15.264855
                                                         3.428369      -5.345726
                                                         1.430064      -1.022732
                                                         0.571611      -0.123148
                                                         0.232197      -0.006983
                                                         0.076562      -0.000022

                          1       6    5dx2              7.066654      -5.739265
                                                         3.428369      -2.129289
                                                         1.430064      -0.700423
                                                         0.571611       0.161606
                                                         0.232197       0.043513
                                                         0.076562       0.011205
                          1       6    5dxy              7.066654      -9.940698
                                                         3.428369      -3.688037
                                                         1.430064      -1.213168
                                                         0.571611       0.279909
                                                         0.232197       0.075368
                                                         0.076562       0.019407
                          1       6    5dxz              7.066654      -9.940698
                                                         3.428369      -3.688037
                                                         1.430064      -1.213168
                                                         0.571611       0.279909
                                                         0.232197       0.075368
                                                         0.076562       0.019407
                          1       6    5dy2              7.066654      -5.739265
                                                         3.428369      -2.129289
                                                         1.430064      -0.700423
                                                         0.571611       0.161606
                                                         0.232197       0.043513
                                                         0.076562       0.011205
                          1       6    5dyz              7.066654      -9.940698
                                                         3.428369      -3.688037
                                                         1.430064      -1.213168
                                                         0.571611       0.279909
                                                         0.232197       0.075368
                                                         0.076562       0.019407
                          1       6    5dz2              7.066654      -5.739265
                                                         3.428369      -2.129289
                                                         1.430064      -0.700423
                                                         0.571611       0.161606
                                                         0.232197       0.043513
                                                         0.076562       0.011205

                          1       7    5fx3              7.066654       0.705879
                                                         3.428369      -0.273976
                                                         1.430064       0.113667
                                                         0.571611       0.132480
                                                         0.232197       0.012437
                                                         0.076562       0.003241
                          1       7    5fx2y             7.066654       1.578393
                                                         3.428369      -0.612629
                                                         1.430064       0.254167
                                                         0.571611       0.296234
                                                         0.232197       0.027811
                                                         0.076562       0.007246
                          1       7    5fx2z             7.066654       1.578393
                                                         3.428369      -0.612629
                                                         1.430064       0.254167
                                                         0.571611       0.296234
                                                         0.232197       0.027811
                                                         0.076562       0.007246
                          1       7    5fxy2             7.066654       1.578393
                                                         3.428369      -0.612629
                                                         1.430064       0.254167
                                                         0.571611       0.296234
                                                         0.232197       0.027811
                                                         0.076562       0.007246
                          1       7    5fxyz             7.066654       2.733856
                                                         3.428369      -1.061105
                                                         1.430064       0.440230
                                                         0.571611       0.513092
                                                         0.232197       0.048170
                                                         0.076562       0.012551
                          1       7    5fxz2             7.066654       1.578393
                                                         3.428369      -0.612629
                                                         1.430064       0.254167
                                                         0.571611       0.296234
                                                         0.232197       0.027811
                                                         0.076562       0.007246
                          1       7    5fy3              7.066654       0.705879
                                                         3.428369      -0.273976
                                                         1.430064       0.113667
                                                         0.571611       0.132480
                                                         0.232197       0.012437
                                                         0.076562       0.003241
                          1       7    5fy2z             7.066654       1.578393
                                                         3.428369      -0.612629
                                                         1.430064       0.254167
                                                         0.571611       0.296234
                                                         0.232197       0.027811
                                                         0.076562       0.007246
                          1       7    5fyz2             7.066654       1.578393
                                                         3.428369      -0.612629
                                                         1.430064       0.254167
                                                         0.571611       0.296234
                                                         0.232197       0.027811
                                                         0.076562       0.007246
                          1       7    5fz3              7.066654       0.705879
                                                         3.428369      -0.273976
                                                         1.430064       0.113667
                                                         0.571611       0.132480
                                                         0.232197       0.012437
                                                         0.076562       0.003241

     GTH Potential information for                                   GTH-PBE-q13

       Description:                       Goedecker-Teter-Hutter pseudopotential
                                           Goedecker et al., PRB 54, 1703 (1996)
                                          Hartwigsen et al., PRB 58, 3641 (1998)
                                                      Krack, TCA 114, 145 (2005)

       Gaussian exponent of the core charge distribution:               2.082466
       Electronic configuration (s p d ...):                           2   1  10

       Parameters of the local part of the GTH pseudopotential:

                          rloc        C1          C2          C3          C4
                        0.490000

       Parameters of the non-local part of the GTH pseudopotential:

                   l      r(l)      h(i,j,l)

                   0    0.416777   10.475690   -4.921768    0.870706
                                   -4.921768    7.770178   -2.248152
                                    0.870706   -2.248152    1.784415
                   1    0.569627    1.777985    0.195860
                                    0.195860   -0.231744
                   2    0.238126  -16.248680

  2. Atomic kind: N                                     Number of atoms:      72

     Orbital Basis Set                                     DZVP-MOLOPT-SR-GTH-q5

       Number of orbital shell sets:                                           1
       Number of orbital shells:                                               5
       Number of primitive Cartesian functions:                                5
       Number of Cartesian basis functions:                                   14
       Number of spherical basis functions:                                   13
       Norm type:                                                              2

       Normalised Cartesian orbitals:

                        Set   Shell   Orbital            Exponent    Coefficient

                          1       1    2s                7.341988       0.360561
                                                         2.542637       0.139177
                                                         0.888575      -0.289383
                                                         0.333802      -0.182244
                                                         0.112012      -0.019197

                          1       2    3s                7.341988       0.282000
                                                         2.542637       0.177875
                                                         0.888575      -0.278381
                                                         0.333802       0.008577
                                                         0.112012       0.154176

                          1       3    3px               7.341988      -1.188719
                                                         2.542637      -0.973969
                                                         0.888575      -0.501079
                                                         0.333802      -0.144894
                                                         0.112012      -0.013986
                          1       3    3py               7.341988      -1.188719
                                                         2.542637      -0.973969
                                                         0.888575      -0.501079
                                                         0.333802      -0.144894
                                                         0.112012      -0.013986
                          1       3    3pz               7.341988      -1.188719
                                                         2.542637      -0.973969
                                                         0.888575      -0.501079
                                                         0.333802      -0.144894
                                                         0.112012      -0.013986

                          1       4    4px               7.341988      -0.094798
                                                         2.542637       0.050069
                                                         0.888575      -0.114797
                                                         0.333802       0.144793
                                                         0.112012       0.066710
                          1       4    4py               7.341988      -0.094798
                                                         2.542637       0.050069
                                                         0.888575      -0.114797
                                                         0.333802       0.144793
                                                         0.112012       0.066710
                          1       4    4pz               7.341988      -0.094798
                                                         2.542637       0.050069
                                                         0.888575      -0.114797
                                                         0.333802       0.144793
                                                         0.112012       0.066710

                          1       5    4dx2              7.341988       1.354688
                                                         2.542637       0.690378
                                                         0.888575       0.855359
                                                         0.333802       0.091746
                                                         0.112012       0.001253
                          1       5    4dxy              7.341988       2.346389
                                                         2.542637       1.195770
                                                         0.888575       1.481524
                                                         0.333802       0.158910
                                                         0.112012       0.002169
                          1       5    4dxz              7.341988       2.346389
                                                         2.542637       1.195770
                                                         0.888575       1.481524
                                                         0.333802       0.158910
                                                         0.112012       0.002169
                          1       5    4dy2              7.341988       1.354688
                                                         2.542637       0.690378
                                                         0.888575       0.855359
                                                         0.333802       0.091746
                                                         0.112012       0.001253
                          1       5    4dyz              7.341988       2.346389
                                                         2.542637       1.195770
                                                         0.888575       1.481524
                                                         0.333802       0.158910
                                                         0.112012       0.002169
                          1       5    4dz2              7.341988       1.354688
                                                         2.542637       0.690378
                                                         0.888575       0.855359
                                                         0.333802       0.091746
                                                         0.112012       0.001253

     GTH Potential information for                                    GTH-PBE-q5

       Description:                       Goedecker-Teter-Hutter pseudopotential
                                           Goedecker et al., PRB 54, 1703 (1996)
                                          Hartwigsen et al., PRB 58, 3641 (1998)
                                                      Krack, TCA 114, 145 (2005)

       Gaussian exponent of the core charge distribution:               6.208322
       Electronic configuration (s p d ...):                               2   3

       Parameters of the local part of the GTH pseudopotential:

                          rloc        C1          C2          C3          C4
                        0.283791  -12.415226    1.868096

       Parameters of the non-local part of the GTH pseudopotential:

                   l      r(l)      h(i,j,l)

                   0    0.255405   13.630263
                   1    0.245495

  3. Atomic kind: H                                     Number of atoms:       4

     Orbital Basis Set                                     DZVP-MOLOPT-SR-GTH-q1

       Number of orbital shell sets:                                           1
       Number of orbital shells:                                               3
       Number of primitive Cartesian functions:                                5
       Number of Cartesian basis functions:                                    5
       Number of spherical basis functions:                                    5
       Norm type:                                                              2

       Normalised Cartesian orbitals:

                        Set   Shell   Orbital            Exponent    Coefficient

                          1       1    2s               10.068468      -0.133023
                                                         2.680223      -0.177618
                                                         0.791502      -0.258419
                                                         0.239116      -0.107525
                                                         0.082193      -0.014019

                          1       2    3s               10.068468       0.344673
                                                         2.680223       1.819821
                                                         0.791502      -0.999069
                                                         0.239116       0.017430
                                                         0.082193       0.082660

                          1       3    3px              10.068468       0.155326
                                                         2.680223       0.367157
                                                         0.791502       0.311480
                                                         0.239116       0.080105
                                                         0.082193       0.033440
                          1       3    3py              10.068468       0.155326
                                                         2.680223       0.367157
                                                         0.791502       0.311480
                                                         0.239116       0.080105
                                                         0.082193       0.033440
                          1       3    3pz              10.068468       0.155326
                                                         2.680223       0.367157
                                                         0.791502       0.311480
                                                         0.239116       0.080105
                                                         0.082193       0.033440

     GTH Potential information for                                    GTH-PBE-q1

       Description:                       Goedecker-Teter-Hutter pseudopotential
                                           Goedecker et al., PRB 54, 1703 (1996)
                                          Hartwigsen et al., PRB 58, 3641 (1998)
                                                      Krack, TCA 114, 145 (2005)

       Gaussian exponent of the core charge distribution:              12.500000
       Electronic configuration (s p d ...):                                   1

       Parameters of the local part of the GTH pseudopotential:

                          rloc        C1          C2          C3          C4
                        0.200000   -4.178900    0.724463

  4. Atomic kind: C                                     Number of atoms:       1

     Orbital Basis Set                                     DZVP-MOLOPT-SR-GTH-q4

       Number of orbital shell sets:                                           1
       Number of orbital shells:                                               5
       Number of primitive Cartesian functions:                                5
       Number of Cartesian basis functions:                                   14
       Number of spherical basis functions:                                   13
       Norm type:                                                              2

       Normalised Cartesian orbitals:

                        Set   Shell   Orbital            Exponent    Coefficient

                          1       1    2s                5.605331       0.322515
                                                         2.113016       0.213043
                                                         0.769911      -0.209686
                                                         0.348157      -0.219794
                                                         0.128212      -0.022789

                          1       2    3s                5.605331       0.552234
                                                         2.113016       0.082072
                                                         0.769911       0.007843
                                                         0.348157       0.136893
                                                         0.128212       0.074283

                          1       3    3px               5.605331      -0.703879
                                                         2.113016      -0.642521
                                                         0.769911      -0.374851
                                                         0.348157      -0.139743
                                                         0.128212      -0.027849
                          1       3    3py               5.605331      -0.703879
                                                         2.113016      -0.642521
                                                         0.769911      -0.374851
                                                         0.348157      -0.139743
                                                         0.128212      -0.027849
                          1       3    3pz               5.605331      -0.703879
                                                         2.113016      -0.642521
                                                         0.769911      -0.374851
                                                         0.348157      -0.139743
                                                         0.128212      -0.027849

                          1       4    4px               5.605331      -0.480376
                                                         2.113016      -0.552894
                                                         0.769911      -0.316145
                                                         0.348157       0.210505
                                                         0.128212       0.076095
                          1       4    4py               5.605331      -0.480376
                                                         2.113016      -0.552894
                                                         0.769911      -0.316145
                                                         0.348157       0.210505
                                                         0.128212       0.076095
                          1       4    4pz               5.605331      -0.480376
                                                         2.113016      -0.552894
                                                         0.769911      -0.316145
                                                         0.348157       0.210505
                                                         0.128212       0.076095

                          1       5    4dx2              5.605331       0.640026
                                                         2.113016       0.274300
                                                         0.769911       0.446711
                                                         0.348157       0.028674
                                                         0.128212       0.029790
                          1       5    4dxy              5.605331       1.108557
                                                         2.113016       0.475102
                                                         0.769911       0.773726
                                                         0.348157       0.049666
                                                         0.128212       0.051599
                          1       5    4dxz              5.605331       1.108557
                                                         2.113016       0.475102
                                                         0.769911       0.773726
                                                         0.348157       0.049666
                                                         0.128212       0.051599
                          1       5    4dy2              5.605331       0.640026
                                                         2.113016       0.274300
                                                         0.769911       0.446711
                                                         0.348157       0.028674
                                                         0.128212       0.029790
                          1       5    4dyz              5.605331       1.108557
                                                         2.113016       0.475102
                                                         0.769911       0.773726
                                                         0.348157       0.049666
                                                         0.128212       0.051599
                          1       5    4dz2              5.605331       0.640026
                                                         2.113016       0.274300
                                                         0.769911       0.446711
                                                         0.348157       0.028674
                                                         0.128212       0.029790

     GTH Potential information for                                    GTH-PBE-q4

       Description:                       Goedecker-Teter-Hutter pseudopotential
                                           Goedecker et al., PRB 54, 1703 (1996)
                                          Hartwigsen et al., PRB 58, 3641 (1998)
                                                      Krack, TCA 114, 145 (2005)

       Gaussian exponent of the core charge distribution:               4.364419
       Electronic configuration (s p d ...):                               2   2

       Parameters of the local part of the GTH pseudopotential:

                          rloc        C1          C2          C3          C4
                        0.338471   -8.803674    1.339211

       Parameters of the non-local part of the GTH pseudopotential:

                   l      r(l)      h(i,j,l)

                   0    0.302576    9.622487
                   1    0.291507

  5. Atomic kind: O                                     Number of atoms:       1

     Orbital Basis Set                                     DZVP-MOLOPT-SR-GTH-q6

       Number of orbital shell sets:                                           1
       Number of orbital shells:                                               5
       Number of primitive Cartesian functions:                                5
       Number of Cartesian basis functions:                                   14
       Number of spherical basis functions:                                   13
       Norm type:                                                              2

       Normalised Cartesian orbitals:

                        Set   Shell   Orbital            Exponent    Coefficient

                          1       1    2s               10.389228       0.396646
                                                         3.849621       0.208811
                                                         1.388401      -0.301641
                                                         0.496955      -0.274061
                                                         0.162492      -0.033677

                          1       2    3s               10.389228       0.303673
                                                         3.849621       0.240943
                                                         1.388401      -0.313066
                                                         0.496955      -0.043055
                                                         0.162492       0.213991

                          1       3    3px              10.389228      -1.530415
                                                         3.849621      -1.371928
                                                         1.388401      -0.761951
                                                         0.496955      -0.253695
                                                         0.162492      -0.035541
                          1       3    3py              10.389228      -1.530415
                                                         3.849621      -1.371928
                                                         1.388401      -0.761951
                                                         0.496955      -0.253695
                                                         0.162492      -0.035541
                          1       3    3pz              10.389228      -1.530415
                                                         3.849621      -1.371928
                                                         1.388401      -0.761951
                                                         0.496955      -0.253695
                                                         0.162492      -0.035541

                          1       4    4px              10.389228      -0.565392
                                                         3.849621      -0.038231
                                                         1.388401      -0.382373
                                                         0.496955       0.179070
                                                         0.162492       0.122714
                          1       4    4py              10.389228      -0.565392
                                                         3.849621      -0.038231
                                                         1.388401      -0.382373
                                                         0.496955       0.179070
                                                         0.162492       0.122714
                          1       4    4pz              10.389228      -0.565392
                                                         3.849621      -0.038231
                                                         1.388401      -0.382373
                                                         0.496955       0.179070
                                                         0.162492       0.122714

                          1       5    4dx2             10.389228       1.867377
                                                         3.849621       0.670994
                                                         1.388401       1.353441
                                                         0.496955       0.273538
                                                         0.162492       0.006620
                          1       5    4dxy             10.389228       3.234392
                                                         3.849621       1.162195
                                                         1.388401       2.344229
                                                         0.496955       0.473781
                                                         0.162492       0.011466
                          1       5    4dxz             10.389228       3.234392
                                                         3.849621       1.162195
                                                         1.388401       2.344229
                                                         0.496955       0.473781
                                                         0.162492       0.011466
                          1       5    4dy2             10.389228       1.867377
                                                         3.849621       0.670994
                                                         1.388401       1.353441
                                                         0.496955       0.273538
                                                         0.162492       0.006620
                          1       5    4dyz             10.389228       3.234392
                                                         3.849621       1.162195
                                                         1.388401       2.344229
                                                         0.496955       0.473781
                                                         0.162492       0.011466
                          1       5    4dz2             10.389228       1.867377
                                                         3.849621       0.670994
                                                         1.388401       1.353441
                                                         0.496955       0.273538
                                                         0.162492       0.006620

     GTH Potential information for                                    GTH-PBE-q6

       Description:                       Goedecker-Teter-Hutter pseudopotential
                                           Goedecker et al., PRB 54, 1703 (1996)
                                          Hartwigsen et al., PRB 58, 3641 (1998)
                                                      Krack, TCA 114, 145 (2005)

       Gaussian exponent of the core charge distribution:               8.360253
       Electronic configuration (s p d ...):                               2   4

       Parameters of the local part of the GTH pseudopotential:

                          rloc        C1          C2          C3          C4
                        0.244554  -16.667215    2.487311

       Parameters of the non-local part of the GTH pseudopotential:

                   l      r(l)      h(i,j,l)

                   0    0.220956   18.337458
                   1    0.211332


 MOLECULE KIND INFORMATION


 All atoms are their own molecule, skipping detailed information


 TOTAL NUMBERS AND MAXIMUM NUMBERS

  Total number of            - Atomic kinds:                                   5
                             - Atoms:                                        150
                             - Shell sets:                                   150
                             - Shells:                                       886
                             - Primitive Cartesian functions:                822
                             - Cartesian basis functions:                   3216
                             - Spherical basis functions:                   2782

  Maximum angular momentum of- Orbital basis functions:                        3
                             - Local part of the GTH pseudopotential:          2
                             - Non-local part of the GTH pseudopotential:      4


 MODULE QUICKSTEP:  ATOMIC COORDINATES IN angstrom

  Atom  Kind  Element       X           Y           Z          Z(eff)       Mass

       1     1 Ga  31    0.007901   -0.031775   -0.630527     13.00      69.7230
       2     2 N    7    0.011806    1.841924    0.538203      5.00      14.0067
       3     1 Ga  31    0.013198    1.808056    2.570783     13.00      69.7230
       4     2 N    7    0.010015   -0.034529    3.204164      5.00      14.0067
       5     1 Ga  31    0.001388   -0.039975    5.194753     13.00      69.7230
       6     2 N    7    0.003316    1.833239    5.783818      5.00      14.0067
       7     1 Ga  31   -0.014273    1.825176    7.782613     13.00      69.7230
       8     2 N    7   -0.017903   -0.047971    8.384623      5.00      14.0067
       9     1 Ga  31   -0.029659   -0.049277   10.381671     13.00      69.7230
      10     2 N    7   -0.030543    1.821388   10.986908      5.00      14.0067
      11     1 Ga  31   -0.040712    1.820719   12.981557     13.00      69.7230
      12     2 N    7   -0.042748   -0.045476   13.595803      5.00      14.0067
      13     1 Ga  31   -0.044617   -0.039707   15.607745     13.00      69.7230
      14     2 N    7   -0.045094    1.835543   16.237218      5.00      14.0067
      15     1 Ga  31   -0.047288    1.849116   18.351843     13.00      69.7230
      16     2 N    7   -0.036720   -0.043489   18.631748      5.00      14.0067
      17     1 Ga  31   -1.610118    2.772733    0.259355     13.00      69.7230
      18     2 N    7   -1.614074    4.641375    0.543240      5.00      14.0067
      19     1 Ga  31   -1.582071    4.656711    2.572650     13.00      69.7230
      20     2 N    7   -1.606919    2.771000    3.165992      5.00      14.0067
      21     1 Ga  31   -1.616340    2.766331    5.176585     13.00      69.7230
      22     2 N    7   -1.617703    4.635533    5.785060      5.00      14.0067
      23     1 Ga  31   -1.633817    4.629717    7.783177     13.00      69.7230
      24     2 N    7   -1.637925    2.758359    8.387750      5.00      14.0067
      25     1 Ga  31   -1.649784    2.755522   10.383146     13.00      69.7230
      26     2 N    7   -1.644184    4.626470   10.993121      5.00      14.0067
      27     1 Ga  31   -1.646908    4.627691   12.989864     13.00      69.7230
      28     2 N    7   -1.656360    2.754548   13.599212      5.00      14.0067
      29     1 Ga  31   -1.665033    2.768888   15.608895     13.00      69.7230
      30     2 N    7   -1.663037    4.627113   16.205232      5.00      14.0067
      31     1 Ga  31   -1.669103    4.643728   18.292585     13.00      69.7230
      32     2 N    7   -1.669200    2.775011   18.726983      5.00      14.0067
      33     1 Ga  31   -3.230848    5.579481    0.260864     13.00      69.7230
      34     2 N    7   -3.224585    7.449081    0.539728      5.00      14.0067
      35     1 Ga  31   -3.251124    7.463114    2.572462     13.00      69.7230
      36     2 N    7   -3.228046    5.577937    3.166999      5.00      14.0067
      37     1 Ga  31   -3.236674    5.571404    5.177872     13.00      69.7230
      38     2 N    7   -3.234538    7.440756    5.784262      5.00      14.0067
      39     1 Ga  31   -3.252487    7.433177    7.783400     13.00      69.7230
      40     2 N    7   -3.255425    5.563026    8.389599      5.00      14.0067
      41     1 Ga  31   -3.265199    5.564475   10.386628     13.00      69.7230
      42     2 N    7   -3.268771    7.435777   10.993557      5.00      14.0067
      43     1 Ga  31   -3.273287    7.442930   12.992726     13.00      69.7230
      44     2 N    7   -3.270390    5.564075   13.574908      5.00      14.0067
      45     1 Ga  31   -3.269248    5.569186   15.570630     13.00      69.7230
      46     2 N    7   -3.265060    7.444400   16.130917      5.00      14.0067
      47     1 Ga  31   -3.284736    7.437614   18.178549     13.00      69.7230
      48     2 N    7   -3.306574    5.574549   18.635653      5.00      14.0067
      49     1 Ga  31    3.254747   -0.033791    0.262122     13.00      69.7230
      50     2 N    7    3.255481    1.838653    0.552170      5.00      14.0067
      51     1 Ga  31    3.282634    1.851456    2.583402     13.00      69.7230
      52     2 N    7    3.254919   -0.035523    3.167704      5.00      14.0067
      53     1 Ga  31    3.247444   -0.040236    5.178421     13.00      69.7230
      54     2 N    7    3.245427    1.829800    5.785382      5.00      14.0067
      55     1 Ga  31    3.230236    1.823757    7.784357     13.00      69.7230
      56     2 N    7    3.227330   -0.048457    8.387293      5.00      14.0067
      57     1 Ga  31    3.213865   -0.050122   10.383065     13.00      69.7230
      58     2 N    7    3.214704    1.822877   10.983185      5.00      14.0067
      59     1 Ga  31    3.204229    1.826019   12.977807     13.00      69.7230
      60     2 N    7    3.214559   -0.040309   13.595247      5.00      14.0067
      61     1 Ga  31    3.216344   -0.034727   15.598014     13.00      69.7230
      62     2 N    7    3.210159    1.855238   16.153467      5.00      14.0067
      63     1 Ga  31    3.180542    1.853962   18.195724     13.00      69.7230
      64     2 N    7    3.174904   -0.019870   18.609400      5.00      14.0067
      65     1 Ga  31    1.633047    2.773749    0.260674     13.00      69.7230
      66     2 N    7    1.642397    4.642378    0.543966      5.00      14.0067
      67     1 Ga  31    1.615008    4.656904    2.574334     13.00      69.7230
      68     2 N    7    1.634189    2.771081    3.166740      5.00      14.0067
      69     1 Ga  31    1.626943    2.766701    5.177408     13.00      69.7230
      70     2 N    7    1.631398    4.636200    5.785098      5.00      14.0067
      71     1 Ga  31    1.614835    4.630641    7.783212     13.00      69.7230
      72     2 N    7    1.606752    2.758952    8.386589      5.00      14.0067
      73     1 Ga  31    1.591821    2.756682   10.382317     13.00      69.7230
      74     2 N    7    1.594238    4.627832   10.993644      5.00      14.0067
      75     1 Ga  31    1.578067    4.632381   12.991522     13.00      69.7230
      76     2 N    7    1.578214    2.755288   13.587754      5.00      14.0067
      77     1 Ga  31    1.573811    2.763401   15.588316     13.00      69.7230
      78     2 N    7    1.585276    4.644653   16.136337      5.00      14.0067
      79     1 Ga  31    1.550452    4.631322   18.163952     13.00      69.7230
      80     2 N    7    1.580513    2.785199   18.673672      5.00      14.0067
      81     1 Ga  31    0.013838    5.579899   -0.614902     13.00      69.7230
      82     2 N    7    0.018345    7.455636    0.545662      5.00      14.0067
      83     1 Ga  31    0.019728    7.421037    2.575109     13.00      69.7230
      84     2 N    7    0.016278    5.576513    3.204967      5.00      14.0067
      85     1 Ga  31    0.008213    5.571882    5.195730     13.00      69.7230
      86     2 N    7    0.009736    7.445087    5.785251      5.00      14.0067
      87     1 Ga  31   -0.006756    7.437364    7.783300     13.00      69.7230
      88     2 N    7   -0.010920    5.564077    8.385163      5.00      14.0067
      89     1 Ga  31   -0.024150    5.562486   10.381107     13.00      69.7230
      90     2 N    7   -0.021097    7.433184   10.989030      5.00      14.0067
      91     1 Ga  31   -0.027470    7.436569   12.985290     13.00      69.7230
      92     2 N    7   -0.038488    5.572886   13.617530      5.00      14.0067
      93     1 Ga  31   -0.052285    5.591006   15.631024     13.00      69.7230
      94     2 N    7   -0.040726    7.450713   16.262064      5.00      14.0067
      95     1 Ga  31   -0.037668    7.469098   18.365349     13.00      69.7230
      96     2 N    7   -0.040526    5.574776   18.625872      5.00      14.0067
      97     1 Ga  31    6.499063   -0.032320    0.260523     13.00      69.7230
      98     2 N    7    6.503780    1.839671    0.550172      5.00      14.0067
      99     1 Ga  31    6.481932    1.851287    2.583026     13.00      69.7230
     100     2 N    7    6.502772   -0.035438    3.166911      5.00      14.0067
     101     1 Ga  31    6.493584   -0.040575    5.177433     13.00      69.7230
     102     2 N    7    6.498674    1.829348    5.784245      5.00      14.0067
     103     1 Ga  31    6.480059    1.823501    7.781960     13.00      69.7230
     104     2 N    7    6.473533   -0.046812    8.386651      5.00      14.0067
     105     1 Ga  31    6.460522   -0.047831   10.380959     13.00      69.7230
     106     2 N    7    6.463898    1.821051   10.990534      5.00      14.0067
     107     1 Ga  31    6.458368    1.822368   12.988235     13.00      69.7230
     108     2 N    7    6.443979   -0.045735   13.610619      5.00      14.0067
     109     1 Ga  31    6.427697   -0.034905   15.622526     13.00      69.7230
     110     2 N    7    6.431489    1.852344   16.161851      5.00      14.0067
     111     1 Ga  31    6.467282    1.857607   18.222849     13.00      69.7230
     112     2 N    7    6.459596   -0.014101   18.641240      5.00      14.0067
     113     1 Ga  31    4.878435    2.773833   -0.556268     13.00      69.7230
     114     2 N    7    4.882937    4.645894    0.551687      5.00      14.0067
     115     1 Ga  31    4.885053    4.615814    2.582957     13.00      69.7230
     116     2 N    7    4.882290    2.771206    3.212530      5.00      14.0067
     117     1 Ga  31    4.873653    2.766041    5.201407     13.00      69.7230
     118     2 N    7    4.874963    4.640559    5.787313      5.00      14.0067
     119     1 Ga  31    4.858214    4.632718    7.787363     13.00      69.7230
     120     2 N    7    4.854470    2.756750    8.384367      5.00      14.0067
     121     1 Ga  31    4.842590    2.755154   10.381756     13.00      69.7230
     122     2 N    7    4.845026    4.629304   10.978581      5.00      14.0067
     123     1 Ga  31    4.838141    4.636994   12.970386     13.00      69.7230
     124     2 N    7    4.829645    2.766025   13.565414      5.00      14.0067
     125     1 Ga  31    4.828703    2.776948   15.551678     13.00      69.7230
     126     2 N    7    4.826412    4.660833   16.110465      5.00      14.0067
     127     1 Ga  31    4.844651    4.649810   18.112885     13.00      69.7230
     128     2 N    7    4.814691    2.778317   18.642410      5.00      14.0067
     129     1 Ga  31    3.259415    5.579213    0.261103     13.00      69.7230
     130     2 N    7    3.259407    7.448872    0.538963      5.00      14.0067
     131     1 Ga  31    3.290086    7.463503    2.570490     13.00      69.7230
     132     2 N    7    3.261368    5.578247    3.166808      5.00      14.0067
     133     1 Ga  31    3.253431    5.571929    5.177400     13.00      69.7230
     134     2 N    7    3.253010    7.440809    5.784928      5.00      14.0067
     135     1 Ga  31    3.236994    7.433473    7.784451     13.00      69.7230
     136     2 N    7    3.233538    5.563450    8.390788      5.00      14.0067
     137     1 Ga  31    3.219242    5.564536   10.388531     13.00      69.7230
     138     2 N    7    3.222115    7.438535   10.988158      5.00      14.0067
     139     1 Ga  31    3.210406    7.448675   12.983754     13.00      69.7230
     140     2 N    7    3.208796    5.571321   13.560720      5.00      14.0067
     141     1 Ga  31    3.204585    5.579598   15.546427     13.00      69.7230
     142     2 N    7    3.195371    7.444042   16.178010      5.00      14.0067
     143     1 Ga  31    3.212526    7.468123   18.242887     13.00      69.7230
     144     2 N    7    3.200322    5.563538   18.595448      5.00      14.0067
     145     3 H    1    3.390225    5.050208   20.367091      1.00       1.0079
     146     3 H    1    4.129519    3.469640   20.439957      1.00       1.0079
     147     3 H    1    2.739622    3.839754   21.621058      1.00       1.0079
     148     4 C    6    3.662372    4.228180   21.134199      4.00      12.0107
     149     5 O    8    4.556212    4.666970   22.153565      6.00      15.9994
     150     3 H    1    5.388792    4.980253   21.706028      1.00       1.0079




 SCF PARAMETERS         Density guess:                                    ATOMIC
                        --------------------------------------------------------
                        max_scf:                                             100
                        max_scf_history:                                       0
                        max_diis:                                              4
                        --------------------------------------------------------
                        eps_scf:                                        5.00E-06
                        eps_scf_history:                                0.00E+00
                        eps_diis:                                       1.00E-01
                        eps_eigval:                                     1.00E-05
                        --------------------------------------------------------
                        level_shift [a.u.]:                                 0.00
                        --------------------------------------------------------
                        Outer loop SCF in use 
                        No variables optimised in outer loop
                        eps_scf                                         5.00E-06
                        max_scf                                               10
                        No outer loop optimization
                        step_size                                       5.00E-01

 PW_GRID| Information for grid number                                          1
 PW_GRID| Grid distributed over                                    80 processors
 PW_GRID| Real space group dimensions                                    80    1
 PW_GRID| the grid is blocked:                                                NO
 PW_GRID| Cutoff [a.u.]                                                    600.0
 PW_GRID| spherical cutoff:                                                   NO
 PW_GRID|   Bounds   1           -100      99                Points:         200
 PW_GRID|   Bounds   2           -100      99                Points:         200
 PW_GRID|   Bounds   3           -324     323                Points:         648
 PW_GRID| Volume element (a.u.^3)  0.6333E-03     Volume (a.u.^3)     16414.2734
 PW_GRID| Grid span                                                    FULLSPACE
 PW_GRID|   Distribution                         Average         Max         Min
 PW_GRID|   G-Vectors                           324000.0      324000      324000
 PW_GRID|   G-Rays                                1620.0        1620        1620
 PW_GRID|   Real Space Points                   324000.0      388800      259200

 PW_GRID| Information for grid number                                          2
 PW_GRID| Grid distributed over                                    80 processors
 PW_GRID| Real space group dimensions                                    80    1
 PW_GRID| the grid is blocked:                                                NO
 PW_GRID| Cutoff [a.u.]                                                    200.0
 PW_GRID| spherical cutoff:                                                   NO
 PW_GRID|   Bounds   1            -60      59                Points:         120
 PW_GRID|   Bounds   2            -60      59                Points:         120
 PW_GRID|   Bounds   3           -187     187                Points:         375
 PW_GRID| Volume element (a.u.^3)  0.3040E-02     Volume (a.u.^3)     16414.2734
 PW_GRID| Grid span                                                    FULLSPACE
 PW_GRID|   Distribution                         Average         Max         Min
 PW_GRID|   G-Vectors                            67500.0       68520       66240
 PW_GRID|   G-Rays                                 562.5         571         552
 PW_GRID|   Real Space Points                    67500.0       90000       45000

 PW_GRID| Information for grid number                                          3
 PW_GRID| Grid distributed over                                    80 processors
 PW_GRID| Real space group dimensions                                     8   10
 PW_GRID| the grid is blocked:                                                NO
 PW_GRID| Cutoff [a.u.]                                                     66.7
 PW_GRID| spherical cutoff:                                                   NO
 PW_GRID|   Bounds   1            -36      35                Points:          72
 PW_GRID|   Bounds   2            -36      35                Points:          72
 PW_GRID|   Bounds   3           -108     107                Points:         216
 PW_GRID| Volume element (a.u.^3)  0.1466E-01     Volume (a.u.^3)     16414.2734
 PW_GRID| Grid span                                                    FULLSPACE
 PW_GRID|   Distribution                         Average         Max         Min
 PW_GRID|   G-Vectors                            13996.8       14976       12816
 PW_GRID|   G-Rays                                 194.4         208         178
 PW_GRID|   Real Space Points                    13996.8       15552       13608

 PW_GRID| Information for grid number                                          4
 PW_GRID| Grid distributed over                                    80 processors
 PW_GRID| Real space group dimensions                                     8   10
 PW_GRID| the grid is blocked:                                                NO
 PW_GRID| Cutoff [a.u.]                                                     22.2
 PW_GRID| spherical cutoff:                                                   NO
 PW_GRID|   Bounds   1            -20      19                Points:          40
 PW_GRID|   Bounds   2            -20      19                Points:          40
 PW_GRID|   Bounds   3            -62      62                Points:         125
 PW_GRID| Volume element (a.u.^3)  0.8207E-01     Volume (a.u.^3)     16414.2734
 PW_GRID| Grid span                                                    FULLSPACE
 PW_GRID|   Distribution                         Average         Max         Min
 PW_GRID|   G-Vectors                             2500.0        2960        2040
 PW_GRID|   G-Rays                                  62.5          74          51
 PW_GRID|   Real Space Points                     2500.0        2500        2500

 PW_GRID| Information for grid number                                          5
 PW_GRID| Grid distributed over                                    80 processors
 PW_GRID| Real space group dimensions                                     8   10
 PW_GRID| the grid is blocked:                                                NO
 PW_GRID| Cutoff [a.u.]                                                      7.4
 PW_GRID| spherical cutoff:                                                   NO
 PW_GRID|   Bounds   1            -12      11                Points:          24
 PW_GRID|   Bounds   2            -12      11                Points:          24
 PW_GRID|   Bounds   3            -36      35                Points:          72
 PW_GRID| Volume element (a.u.^3)  0.3958         Volume (a.u.^3)     16414.2734
 PW_GRID| Grid span                                                    FULLSPACE
 PW_GRID|   Distribution                         Average         Max         Min
 PW_GRID|   G-Vectors                              518.4         648         240
 PW_GRID|   G-Rays                                  21.6          27          10
 PW_GRID|   Real Space Points                      518.4         648         432

 POISSON| Solver                                                        PERIODIC
 POISSON| Periodicity                                                        XYZ

 RS_GRID| Information for grid number                                          1
 RS_GRID|   Bounds   1           -100      99                Points:         200
 RS_GRID|   Bounds   2           -100      99                Points:         200
 RS_GRID|   Bounds   3           -324     323                Points:         648
 RS_GRID| Real space distribution over                                 80 groups
 RS_GRID| Real space distribution along direction                              3
 RS_GRID| Border size                                                         73
 RS_GRID|   Distribution                         Average         Max         Min
 RS_GRID|   Planes                                 154.1         155         154

 RS_GRID| Information for grid number                                          2
 RS_GRID|   Bounds   1            -60      59                Points:         120
 RS_GRID|   Bounds   2            -60      59                Points:         120
 RS_GRID|   Bounds   3           -187     187                Points:         375
 RS_GRID| Real space distribution over                                 80 groups
 RS_GRID| Real space distribution along direction                              3
 RS_GRID| Border size                                                         45
 RS_GRID|   Distribution                         Average         Max         Min
 RS_GRID|   Planes                                  94.7          95          94

 RS_GRID| Information for grid number                                          3
 RS_GRID|   Bounds   1            -36      35                Points:          72
 RS_GRID|   Bounds   2            -36      35                Points:          72
 RS_GRID|   Bounds   3           -108     107                Points:         216
 RS_GRID| Real space fully replicated
 RS_GRID| Group size                                                           1

 RS_GRID| Information for grid number                                          4
 RS_GRID|   Bounds   1            -20      19                Points:          40
 RS_GRID|   Bounds   2            -20      19                Points:          40
 RS_GRID|   Bounds   3            -62      62                Points:         125
 RS_GRID| Real space fully replicated
 RS_GRID| Group size                                                           1

 RS_GRID| Information for grid number                                          5
 RS_GRID|   Bounds   1            -12      11                Points:          24
 RS_GRID|   Bounds   2            -12      11                Points:          24
[...]
     100     N        2          5.605426                             -0.605426
     101     Ga       1         12.420317                              0.579683
     102     N        2          5.591861                             -0.591861
     103     Ga       1         12.409490                              0.590510
     104     N        2          5.592808                             -0.592808
     105     Ga       1         12.408568                              0.591432
     106     N        2          5.594217                             -0.594217
     107     Ga       1         12.413375                              0.586625
     108     N        2          5.595625                             -0.595625
     109     Ga       1         12.449258                              0.550742
     110     N        2          5.590310                             -0.590310
     111     Ga       1         12.411610                              0.588390
     112     N        2          5.446414                             -0.446414
     113     Ga       1         12.645580                              0.354420
     114     N        2          5.519281                             -0.519281
     115     Ga       1         12.460213                              0.539787
     116     N        2          5.569950                             -0.569950
     117     Ga       1         12.411497                              0.588503
     118     N        2          5.591874                             -0.591874
     119     Ga       1         12.408081                              0.591919
     120     N        2          5.594803                             -0.594803
     121     Ga       1         12.409041                              0.590959
     122     N        2          5.593395                             -0.593395
     123     Ga       1         12.425965                              0.574035
     124     N        2          5.595050                             -0.595050
     125     Ga       1         12.450955                              0.549045
     126     N        2          5.611138                             -0.611138
     127     Ga       1         12.345715                              0.654285
     128     N        2          5.414279                             -0.414279
     129     Ga       1         12.493981                              0.506019
     130     N        2          5.519527                             -0.519527
     131     Ga       1         12.459402                              0.540598
     132     N        2          5.605721                             -0.605721
     133     Ga       1         12.419667                              0.580333
     134     N        2          5.591673                             -0.591673
     135     Ga       1         12.408988                              0.591012
     136     N        2          5.592590                             -0.592590
     137     Ga       1         12.408803                              0.591197
     138     N        2          5.593791                             -0.593791
     139     Ga       1         12.417273                              0.582727
     140     N        2          5.594304                             -0.594304
     141     Ga       1         12.445100                              0.554900
     142     N        2          5.591430                             -0.591430
     143     Ga       1         12.371101                              0.628899
     144     N        2          5.477545                             -0.477545
     145     H        3          0.875626                              0.124374
     146     H        3          0.898957                              0.101043
     147     H        3          0.899586                              0.100414
     148     C        4          4.049353                             -0.049353
     149     O        5          6.315625                             -0.315625
     150     H        3          0.875154                              0.124846
 # Total charge                           1310.000000                  0.000000

 !-----------------------------------------------------------------------------!

 !-----------------------------------------------------------------------------!
                           Hirshfeld Charges

  #Atom  Element  Kind  Ref Charge     Population                    Net charge
      1       Ga     1      13.000         13.606                        -0.606
      2       N      2       5.000          4.156                         0.844
      3       Ga     1      13.000         13.843                        -0.843
      4       N      2       5.000          4.110                         0.890
      5       Ga     1      13.000         13.873                        -0.873
      6       N      2       5.000          4.134                         0.866
      7       Ga     1      13.000         13.865                        -0.865
      8       N      2       5.000          4.135                         0.865
      9       Ga     1      13.000         13.865                        -0.865
     10       N      2       5.000          4.135                         0.865
     11       Ga     1      13.000         13.863                        -0.863
     12       N      2       5.000          4.134                         0.866
     13       Ga     1      13.000         13.878                        -0.878
     14       N      2       5.000          4.136                         0.864
     15       Ga     1      13.000         13.993                        -0.993
     16       N      2       5.000          4.217                         0.783
     17       Ga     1      13.000         13.670                        -0.670
     18       N      2       5.000          4.157                         0.843
     19       Ga     1      13.000         13.844                        -0.844
     20       N      2       5.000          4.146                         0.854
     21       Ga     1      13.000         13.862                        -0.862
     22       N      2       5.000          4.134                         0.866
     23       Ga     1      13.000         13.866                        -0.866
     24       N      2       5.000          4.134                         0.866
     25       Ga     1      13.000         13.865                        -0.865
     26       N      2       5.000          4.134                         0.866
     27       Ga     1      13.000         13.867                        -0.867
     28       N      2       5.000          4.132                         0.868
     29       Ga     1      13.000         13.881                        -0.881
     30       N      2       5.000          4.137                         0.863
     31       Ga     1      13.000         14.066                        -1.066
     32       N      2       5.000          4.201                         0.799
     33       Ga     1      13.000         13.670                        -0.670
     34       N      2       5.000          4.156                         0.844
     35       Ga     1      13.000         13.843                        -0.843
     36       N      2       5.000          4.146                         0.854
     37       Ga     1      13.000         13.862                        -0.862
     38       N      2       5.000          4.134                         0.866
     39       Ga     1      13.000         13.866                        -0.866
     40       N      2       5.000          4.132                         0.868
     41       Ga     1      13.000         13.868                        -0.868
     42       N      2       5.000          4.134                         0.866
     43       Ga     1      13.000         13.869                        -0.869
     44       N      2       5.000          4.133                         0.867
     45       Ga     1      13.000         13.886                        -0.886
     46       N      2       5.000          4.136                         0.864
     47       Ga     1      13.000         14.052                        -1.052
     48       N      2       5.000          4.480                         0.520
     49       Ga     1      13.000         13.670                        -0.670
     50       N      2       5.000          4.155                         0.845
     51       Ga     1      13.000         13.844                        -0.844
     52       N      2       5.000          4.146                         0.854
     53       Ga     1      13.000         13.862                        -0.862
     54       N      2       5.000          4.134                         0.866
     55       Ga     1      13.000         13.866                        -0.866
     56       N      2       5.000          4.133                         0.867
     57       Ga     1      13.000         13.867                        -0.867
     58       N      2       5.000          4.134                         0.866
     59       Ga     1      13.000         13.865                        -0.865
     60       N      2       5.000          4.136                         0.864
     61       Ga     1      13.000         13.876                        -0.876
     62       N      2       5.000          4.129                         0.871
     63       Ga     1      13.000         14.157                        -1.157
     64       N      2       5.000          4.211                         0.789
     65       Ga     1      13.000         13.670                        -0.670
     66       N      2       5.000          4.157                         0.843
     67       Ga     1      13.000         13.844                        -0.844
     68       N      2       5.000          4.146                         0.854
     69       Ga     1      13.000         13.862                        -0.862
     70       N      2       5.000          4.134                         0.866
     71       Ga     1      13.000         13.866                        -0.866
     72       N      2       5.000          4.134                         0.866
     73       Ga     1      13.000         13.865                        -0.865
     74       N      2       5.000          4.134                         0.866
     75       Ga     1      13.000         13.867                        -0.867
     76       N      2       5.000          4.132                         0.868
     77       Ga     1      13.000         13.881                        -0.881
     78       N      2       5.000          4.136                         0.864
     79       Ga     1      13.000         14.069                        -1.069
     80       N      2       5.000          4.201                         0.799
     81       Ga     1      13.000         13.600                        -0.600
     82       N      2       5.000          4.156                         0.844
     83       Ga     1      13.000         13.844                        -0.844
     84       N      2       5.000          4.110                         0.890
     85       Ga     1      13.000         13.873                        -0.873
     86       N      2       5.000          4.134                         0.866
     87       Ga     1      13.000         13.866                        -0.866
     88       N      2       5.000          4.135                         0.865
     89       Ga     1      13.000         13.866                        -0.866
     90       N      2       5.000          4.134                         0.866
     91       Ga     1      13.000         13.868                        -0.868
     92       N      2       5.000          4.139                         0.861
     93       Ga     1      13.000         13.872                        -0.872
     94       N      2       5.000          4.145                         0.855
     95       Ga     1      13.000         14.026                        -1.026
     96       N      2       5.000          4.197                         0.803
     97       Ga     1      13.000         13.670                        -0.670
     98       N      2       5.000          4.154                         0.846
     99       Ga     1      13.000         13.844                        -0.844
    100       N      2       5.000          4.146                         0.854
    101       Ga     1      13.000         13.862                        -0.862
    102       N      2       5.000          4.134                         0.866
    103       Ga     1      13.000         13.866                        -0.866
    104       N      2       5.000          4.133                         0.867
    105       Ga     1      13.000         13.867                        -0.867
    106       N      2       5.000          4.134                         0.866
    107       Ga     1      13.000         13.865                        -0.865
    108       N      2       5.000          4.136                         0.864
    109       Ga     1      13.000         13.875                        -0.875
    110       N      2       5.000          4.128                         0.872
    111       Ga     1      13.000         14.163                        -1.163
    112       N      2       5.000          4.211                         0.789
    113       Ga     1      13.000         13.613                        -0.613
    114       N      2       5.000          4.155                         0.845
    115       Ga     1      13.000         13.844                        -0.844
    116       N      2       5.000          4.110                         0.890
    117       Ga     1      13.000         13.873                        -0.873
    118       N      2       5.000          4.134                         0.866
    119       Ga     1      13.000         13.866                        -0.866
    120       N      2       5.000          4.135                         0.865
    121       Ga     1      13.000         13.866                        -0.866
    122       N      2       5.000          4.131                         0.869
    123       Ga     1      13.000         13.874                        -0.874
    124       N      2       5.000          4.133                         0.867
    125       Ga     1      13.000         13.877                        -0.877
    126       N      2       5.000          4.145                         0.855
    127       Ga     1      13.000         14.172                        -1.172
    128       N      2       5.000          4.378                         0.622
    129       Ga     1      13.000         13.670                        -0.670
    130       N      2       5.000          4.156                         0.844
    131       Ga     1      13.000         13.843                        -0.843
    132       N      2       5.000          4.146                         0.854
    133       Ga     1      13.000         13.862                        -0.862
    134       N      2       5.000          4.134                         0.866
    135       Ga     1      13.000         13.866                        -0.866
    136       N      2       5.000          4.133                         0.867
    137       Ga     1      13.000         13.868                        -0.868
    138       N      2       5.000          4.134                         0.866
    139       Ga     1      13.000         13.869                        -0.869
    140       N      2       5.000          4.132                         0.868
    141       Ga     1      13.000         13.886                        -0.886
    142       N      2       5.000          4.135                         0.865
    143       Ga     1      13.000         14.055                        -1.055
    144       N      2       5.000          4.481                         0.519
    145       H      3       1.000          0.460                         0.540
    146       H      3       1.000          0.529                         0.471
    147       H      3       1.000          0.531                         0.469
    148       C      4       4.000          4.125                        -0.125
    149       O      5       6.000          6.379                        -0.379
    150       H      3       1.000          0.458                         0.542

  Total Charge                                                            0.000
 !-----------------------------------------------------------------------------!

 ENERGY| Total FORCE_EVAL ( QS ) energy (a.u.):            -6112.737250904747270


 --------  Informations at step =   117 ------------
  Optimization Method        =                 BFGS
  Total Energy               =     -6112.7372509047
  Real energy change         =        -0.0000457876
  Predicted change in energy =        -0.0000360842
  Scaling factor             =         0.0615162564
  Step size                  =         0.0130951486
  Trust radius               =         0.4724315332
  Decrease in energy         =                  YES
  Used time                  =               44.078

  Convergence check :
  Max. step size             =         0.0130951486
  Conv. limit for step size  =         0.0030000000
  Convergence in step size   =                   NO
  RMS step size              =         0.0020308492
  Conv. limit for RMS step   =         0.0015000000
  Convergence in RMS step    =                   NO
  Max. gradient              =         0.0011720190
  Conv. limit for gradients  =         0.0004500000
  Conv. for gradients        =                   NO
  RMS gradient               =         0.0001872671
  Conv. limit for RMS grad.  =         0.0003000000
  Conv. in RMS gradients     =                  YES
 ---------------------------------------------------

 --------------------------
 OPTIMIZATION STEP:    118
 --------------------------

 Number of electrons:                                                       1310
 Number of occupied orbitals:                                                655
 Number of molecular orbitals:                                               655

 Number of orbital functions:                                               2782
 Number of independent orbital functions:                                   2782

 Parameters for the always stable predictor-corrector (ASPC) method:

  ASPC order: 3

  B(1) =   3.000000
  B(2) =  -3.428571
  B(3) =   1.928571
  B(4) =  -0.571429
  B(5) =   0.071429

 Extrapolation method: ASPC


 SCF WAVEFUNCTION OPTIMIZATION

  ----------------------------------- OT ---------------------------------------
  Minimizer      : CG                  : conjugate gradient
  Preconditioner : FULL_ALL            : diagonalization, state selective
  Precond_solver : DEFAULT
  Line search    : 2PNT                : 2 energies, one gradient
  stepsize       :    0.15000000                  energy_gap     :    0.08000000
  eps_taylor     :   0.10000E-15                  max_taylor     :             4
  ----------------------------------- OT ---------------------------------------

  Step     Update method      Time    Convergence         Total energy    Change
  ------------------------------------------------------------------------------
     1 OT CG       0.15E+00    9.8     0.00002266     -6112.7371860778 -6.11E+03
     2 OT LS       0.11E+00    2.4                    -6112.7372340142
     3 OT CG       0.11E+00    5.5     0.00002034     -6112.7372393628 -5.33E-05
     4 OT LS       0.75E-01    2.6                    -6112.7372604321
     5 OT CG       0.75E-01    5.2     0.00000988     -6112.7372678120 -2.84E-05
     6 OT LS       0.66E-01    2.3                    -6112.7372736104
     7 OT CG       0.66E-01    5.4     0.00000502     -6112.7372737205 -5.91E-06
     8 OT LS       0.80E-01    2.5                    -6112.7372754958
