 DBCSR| Multiplication driver                                               BLAS
 DBCSR| Multrec recursion limit                                              512
 DBCSR| Multiplication stack size                                           1000
 DBCSR| Maximum elements for images                                    UNLIMITED
 DBCSR| Multiplicative factor virtual images                                   1
 DBCSR| Multiplication size stacks                                             3
 DBCSR| Number of 3D layers                                               SINGLE
 DBCSR| Use MPI memory allocation                                              T
 DBCSR| Use RMA algorithm                                                      F
 DBCSR| Use Communication thread                                               T
 DBCSR| Communication thread load                                             87


  **** **** ******  **  PROGRAM STARTED AT               2019-05-23 21:47:50.219
 ***** ** ***  *** **   PROGRAM STARTED ON        blg9210.int.ets1.calculquebec.
 **    ****   ******    PROGRAM STARTED BY                                   rzk
 ***** **    ** ** **   PROGRAM PROCESS ID                                364626
  **** **  *******  **  PROGRAM STARTED IN /lustre03/project/6004141/rzk/GaN-car
                                           bene/04-Methanol-decomp/01-CH3-decomp
                                           ose

 CP2K| version string:                    CP2K version 7.0 (Development Version)
 CP2K| source code revision number:                                    svn:18619
 CP2K| cp2kflags: libint fftw3 libxc parallel mpi3 scalapack mkl                
 CP2K| is freely available from                            https://www.cp2k.org/
 CP2K| Program compiled at                          Sun Apr  7 00:48:11 EDT 2019
 CP2K| Program compiled on                      beluga2.int.ets1.calculquebec.ca
 CP2K| Program compiled for                    Beluga-Linux-x86-64-intel-openmpi
 CP2K| Data directory path    /home/rzk/projects/def-rzk/group/cp2k/cp2k-mcgill/
 CP2K| Input file name                                             restart-2.inp
 
 GLOBAL| Force Environment number                                              1
 GLOBAL| Basis set file name                                        BASIS_MOLOPT
 GLOBAL| Potential file name                                      GTH_POTENTIALS
 GLOBAL| MM Potential file name                                     MM_POTENTIAL
 GLOBAL| Coordinate file name                                      __STD_INPUT__
 GLOBAL| Method name                                                        CP2K
 GLOBAL| Project name                                                       TEST
 GLOBAL| Preferred FFT library                                             FFTW3
 GLOBAL| Preferred diagonalization lib.                                       SL
 GLOBAL| Run type                                                        GEO_OPT
 GLOBAL| All-to-all communication in single precision                          F
 GLOBAL| FFTs using library dependent lengths                                  F
 GLOBAL| Global print level                                               MEDIUM
 GLOBAL| MPI I/O enabled                                                       T
 GLOBAL| Total number of message passing processes                            80
 GLOBAL| Number of threads for this process                                    1
 GLOBAL| This output is from process                                           0
 GLOBAL| CPU model name :  Intel(R) Xeon(R) Gold 6148 CPU @ 2.40GHz

 MEMORY| system memory details [Kb]
 MEMORY|                        rank 0           min           max       average
 MEMORY| MemTotal            196614300     196614300     196614300     196614300
 MEMORY| MemFree             177525860     177237120     177528340     177439794
 MEMORY| Buffers                     0             0             0             0
 MEMORY| Cached                1662980       1611256       1667820       1637243
 MEMORY| Slab                  2116784       2116784       2585104       2350944
 MEMORY| SReclaimable           336600        336600        449872        393236
 MEMORY| MemLikelyFree       179525440     179298248     179527920     179470273


 *** Fundamental physical constants (SI units) ***

 *** Literature: B. J. Mohr and B. N. Taylor,
 ***             CODATA recommended values of the fundamental physical
 ***             constants: 2006, Web Version 5.1
 ***             http://physics.nist.gov/constants

 Speed of light in vacuum [m/s]                             2.99792458000000E+08
 Magnetic constant or permeability of vacuum [N/A**2]       1.25663706143592E-06
 Electric constant or permittivity of vacuum [F/m]          8.85418781762039E-12
 Planck constant (h) [J*s]                                  6.62606896000000E-34
 Planck constant (h-bar) [J*s]                              1.05457162825177E-34
 Elementary charge [C]                                      1.60217648700000E-19
 Electron mass [kg]                                         9.10938215000000E-31
 Electron g factor [ ]                                     -2.00231930436220E+00
 Proton mass [kg]                                           1.67262163700000E-27
 Fine-structure constant                                    7.29735253760000E-03
 Rydberg constant [1/m]                                     1.09737315685270E+07
 Avogadro constant [1/mol]                                  6.02214179000000E+23
 Boltzmann constant [J/K]                                   1.38065040000000E-23
 Atomic mass unit [kg]                                      1.66053878200000E-27
 Bohr radius [m]                                            5.29177208590000E-11

 *** Conversion factors ***

 [u] -> [a.u.]                                              1.82288848426455E+03
 [Angstrom] -> [Bohr] = [a.u.]                              1.88972613288564E+00
 [a.u.] = [Bohr] -> [Angstrom]                              5.29177208590000E-01
 [a.u.] -> [s]                                              2.41888432650478E-17
 [a.u.] -> [fs]                                             2.41888432650478E-02
 [a.u.] -> [J]                                              4.35974393937059E-18
 [a.u.] -> [N]                                              8.23872205491840E-08
 [a.u.] -> [K]                                              3.15774647902944E+05
 [a.u.] -> [kJ/mol]                                         2.62549961709828E+03
 [a.u.] -> [kcal/mol]                                       6.27509468713739E+02
 [a.u.] -> [Pa]                                             2.94210107994716E+13
 [a.u.] -> [bar]                                            2.94210107994716E+08
 [a.u.] -> [atm]                                            2.90362800883016E+08
 [a.u.] -> [eV]                                             2.72113838565563E+01
 [a.u.] -> [Hz]                                             6.57968392072181E+15
 [a.u.] -> [1/cm] (wave numbers)                            2.19474631370540E+05
 [a.u./Bohr**2] -> [1/cm]                                   5.14048714338585E+03
 

 CELL_TOP| Volume [angstrom^3]:                                         2519.385
 CELL_TOP| Vector a [angstrom     9.737     0.000     0.000    |a| =       9.737
 CELL_TOP| Vector b [angstrom    -4.859     8.416     0.000    |b| =       9.718
 CELL_TOP| Vector c [angstrom     0.000     0.000    30.744    |c| =      30.744
 CELL_TOP| Angle (b,c), alpha [degree]:                                   90.000
 CELL_TOP| Angle (a,c), beta  [degree]:                                   90.000
 CELL_TOP| Angle (a,b), gamma [degree]:                                  120.000
 CELL_TOP| Numerically orthorhombic:                                          NO
 
 GENERATE|  Preliminary Number of Bonds generated:                             0
 GENERATE|  Achieved consistency in connectivity generation.

 CELL| Volume [angstrom^3]:                                             2519.385
 CELL| Vector a [angstrom]:       9.737     0.000     0.000    |a| =       9.737
 CELL| Vector b [angstrom]:      -4.859     8.416     0.000    |b| =       9.718
 CELL| Vector c [angstrom]:       0.000     0.000    30.744    |c| =      30.744
 CELL| Angle (b,c), alpha [degree]:                                       90.000
 CELL| Angle (a,c), beta  [degree]:                                       90.000
 CELL| Angle (a,b), gamma [degree]:                                      120.000
 CELL| Numerically orthorhombic:                                              NO

 CELL_REF| Volume [angstrom^3]:                                         2432.344
 CELL_REF| Vector a [angstrom     9.558     0.000     0.000    |a| =       9.558
 CELL_REF| Vector b [angstrom    -4.779     8.277     0.000    |b| =       9.558
 CELL_REF| Vector c [angstrom     0.000     0.000    30.744    |c| =      30.744
 CELL_REF| Angle (b,c), alpha [degree]:                                   90.000
 CELL_REF| Angle (a,c), beta  [degree]:                                   90.000
 CELL_REF| Angle (a,b), gamma [degree]:                                  120.000
 CELL_REF| Numerically orthorhombic:                                          NO

 *******************************************************************************
 *******************************************************************************
 **                                                                           **
 **     #####                         ##              ##                      **
 **    ##   ##            ##          ##              ##                      **
 **   ##     ##                       ##            ######                    **
 **   ##     ##  ##   ##  ##   #####  ##  ##   ####   ##    #####    #####    **
 **   ##     ##  ##   ##  ##  ##      ## ##   ##      ##   ##   ##  ##   ##   **
 **   ##  ## ##  ##   ##  ##  ##      ####     ###    ##   ######   ######    **
 **    ##  ###   ##   ##  ##  ##      ## ##      ##   ##   ##       ##        **
 **     #######   #####   ##   #####  ##  ##  ####    ##    #####   ##        **
 **           ##                                                    ##        **
 **                                                                           **
 **                                                ... make the atoms dance   **
 **                                                                           **
 **            Copyright (C) by CP2K developers group (2000 - 2018)           **
 **                                                                           **
 *******************************************************************************

 DFT| Spin restricted Kohn-Sham (RKS) calculation                            RKS
 DFT| Multiplicity                                                             1
 DFT| Number of spin states                                                    1
 DFT| Charge                                                                   0
 DFT| Self-interaction correction (SIC)                                       NO
 DFT| Cutoffs: density                                              1.000000E-10
 DFT|          gradient                                             1.000000E-10
 DFT|          tau                                                  1.000000E-10
 DFT|          cutoff_smoothing_range                               0.000000E+00
 DFT| XC density smoothing                                                  NONE
 DFT| XC derivatives                                                          PW
 FUNCTIONAL| ROUTINE=NEW
 FUNCTIONAL| PBE:
 FUNCTIONAL| J.P.Perdew, K.Burke, M.Ernzerhof, Phys. Rev. Letter, vol. 77, n 18,
 FUNCTIONAL|  pp. 3865-3868, (1996){spin unpolarized}                           
 vdW POTENTIAL|                                                   Pair Potential
 vdW POTENTIAL|          DFT-D3 (Version 3.1)
 vdW POTENTIAL|          Potential Form: S. Grimme et al, JCP 132: 154104 (2010)
 vdW POTENTIAL|          Zero Damping
 vdW POTENTIAL|          Cutoff Radius [Bohr]:                             18.90
 vdW POTENTIAL|          s6 Scaling Factor:                               1.0000
 vdW POTENTIAL|          sr6 Scaling Factor:                              1.2170
 vdW POTENTIAL|          s8 Scaling Factor:                               0.7220
 vdW POTENTIAL|          Cutoff for CN calculation:                   0.1000E-05

 QS| Method:                                                                 GPW
 QS| Density plane wave grid type                        NON-SPHERICAL FULLSPACE
 QS| Number of grid levels:                                                    5
 QS| Density cutoff [a.u.]:                                                600.0
 QS| Multi grid cutoff [a.u.]: 1) grid level                               600.0
 QS|                           2) grid level                               200.0
 QS|                           3) grid level                                66.7
 QS|                           4) grid level                                22.2
 QS|                           5) grid level                                 7.4
 QS| Grid level progression factor:                                          3.0
 QS| Relative density cutoff [a.u.]:                                        20.0
 QS| Consistent realspace mapping and integration 
 QS| Interaction thresholds: eps_pgf_orb:                                1.0E-07
 QS|                         eps_filter_matrix:                          0.0E+00
 QS|                         eps_core_charge:                            1.0E-16
 QS|                         eps_rho_gspace:                             1.0E-14
 QS|                         eps_rho_rspace:                             1.0E-14
 QS|                         eps_gvg_rspace:                             1.0E-07
 QS|                         eps_ppl:                                    1.0E-02
 QS|                         eps_ppnl:                                   1.0E-09


 ATOMIC KIND INFORMATION

  1. Atomic kind: Ga                                    Number of atoms:      72

     Orbital Basis Set                                    DZVP-MOLOPT-SR-GTH-q13

       Number of orbital shell sets:                                           1
       Number of orbital shells:                                               7
       Number of primitive Cartesian functions:                                6
       Number of Cartesian basis functions:                                   30
       Number of spherical basis functions:                                   25
       Norm type:                                                              2

       Normalised Cartesian orbitals:

                        Set   Shell   Orbital            Exponent    Coefficient

                          1       1    2s                7.066654       0.013136
                                                         3.428369      -0.094392
                                                         1.430064       0.265435
                                                         0.571611       0.056465
                                                         0.232197      -0.192187
                                                         0.076562      -0.044987

                          1       2    3s                7.066654      -0.098564
                                                         3.428369       0.010390
                                                         1.430064       0.351249
                                                         0.571611       0.182615
                                                         0.232197      -0.425358
                                                         0.076562       0.190349

                          1       3    3px               7.066654       0.002364
                                                         3.428369       0.019222
                                                         1.430064       0.250132
                                                         0.571611      -0.058486
                                                         0.232197      -0.159451
                                                         0.076562      -0.020696
                          1       3    3py               7.066654       0.002364
                                                         3.428369       0.019222
                                                         1.430064       0.250132
                                                         0.571611      -0.058486
                                                         0.232197      -0.159451
                                                         0.076562      -0.020696
                          1       3    3pz               7.066654       0.002364
                                                         3.428369       0.019222
                                                         1.430064       0.250132
                                                         0.571611      -0.058486
                                                         0.232197      -0.159451
                                                         0.076562      -0.020696

                          1       4    4px               7.066654       0.492448
                                                         3.428369      -0.614736
                                                         1.430064      -0.191654
                                                         0.571611       0.037801
                                                         0.232197       0.302315
                                                         0.076562      -0.071336
                          1       4    4py               7.066654       0.492448
                                                         3.428369      -0.614736
                                                         1.430064      -0.191654
                                                         0.571611       0.037801
                                                         0.232197       0.302315
                                                         0.076562      -0.071336
                          1       4    4pz               7.066654       0.492448
                                                         3.428369      -0.614736
                                                         1.430064      -0.191654
                                                         0.571611       0.037801
                                                         0.232197       0.302315
                                                         0.076562      -0.071336

                          1       5    4dx2              7.066654     -15.264855
                                                         3.428369      -5.345726
                                                         1.430064      -1.022732
                                                         0.571611      -0.123148
                                                         0.232197      -0.006983
                                                         0.076562      -0.000022
                          1       5    4dxy              7.066654     -26.439504
                                                         3.428369      -9.259069
                                                         1.430064      -1.771423
                                                         0.571611      -0.213299
                                                         0.232197      -0.012094
                                                         0.076562      -0.000037
                          1       5    4dxz              7.066654     -26.439504
                                                         3.428369      -9.259069
                                                         1.430064      -1.771423
                                                         0.571611      -0.213299
                                                         0.232197      -0.012094
                                                         0.076562      -0.000037
                          1       5    4dy2              7.066654     -15.264855
                                                         3.428369      -5.345726
                                                         1.430064      -1.022732
                                                         0.571611      -0.123148
                                                         0.232197      -0.006983
                                                         0.076562      -0.000022
                          1       5    4dyz              7.066654     -26.439504
                                                         3.428369      -9.259069
                                                         1.430064      -1.771423
                                                         0.571611      -0.213299
                                                         0.232197      -0.012094
                                                         0.076562      -0.000037
                          1       5    4dz2              7.066654     -15.264855
                                                         3.428369      -5.345726
                                                         1.430064      -1.022732
                                                         0.571611      -0.123148
                                                         0.232197      -0.006983
                                                         0.076562      -0.000022

                          1       6    5dx2              7.066654      -5.739265
                                                         3.428369      -2.129289
                                                         1.430064      -0.700423
                                                         0.571611       0.161606
                                                         0.232197       0.043513
                                                         0.076562       0.011205
                          1       6    5dxy              7.066654      -9.940698
                                                         3.428369      -3.688037
                                                         1.430064      -1.213168
                                                         0.571611       0.279909
                                                         0.232197       0.075368
                                                         0.076562       0.019407
                          1       6    5dxz              7.066654      -9.940698
                                                         3.428369      -3.688037
                                                         1.430064      -1.213168
                                                         0.571611       0.279909
                                                         0.232197       0.075368
                                                         0.076562       0.019407
                          1       6    5dy2              7.066654      -5.739265
                                                         3.428369      -2.129289
                                                         1.430064      -0.700423
                                                         0.571611       0.161606
                                                         0.232197       0.043513
                                                         0.076562       0.011205
                          1       6    5dyz              7.066654      -9.940698
                                                         3.428369      -3.688037
                                                         1.430064      -1.213168
                                                         0.571611       0.279909
                                                         0.232197       0.075368
                                                         0.076562       0.019407
                          1       6    5dz2              7.066654      -5.739265
                                                         3.428369      -2.129289
                                                         1.430064      -0.700423
                                                         0.571611       0.161606
                                                         0.232197       0.043513
                                                         0.076562       0.011205

                          1       7    5fx3              7.066654       0.705879
                                                         3.428369      -0.273976
                                                         1.430064       0.113667
                                                         0.571611       0.132480
                                                         0.232197       0.012437
                                                         0.076562       0.003241
                          1       7    5fx2y             7.066654       1.578393
                                                         3.428369      -0.612629
                                                         1.430064       0.254167
                                                         0.571611       0.296234
                                                         0.232197       0.027811
                                                         0.076562       0.007246
                          1       7    5fx2z             7.066654       1.578393
                                                         3.428369      -0.612629
                                                         1.430064       0.254167
                                                         0.571611       0.296234
                                                         0.232197       0.027811
                                                         0.076562       0.007246
                          1       7    5fxy2             7.066654       1.578393
                                                         3.428369      -0.612629
                                                         1.430064       0.254167
                                                         0.571611       0.296234
                                                         0.232197       0.027811
                                                         0.076562       0.007246
                          1       7    5fxyz             7.066654       2.733856
                                                         3.428369      -1.061105
                                                         1.430064       0.440230
                                                         0.571611       0.513092
                                                         0.232197       0.048170
                                                         0.076562       0.012551
                          1       7    5fxz2             7.066654       1.578393
                                                         3.428369      -0.612629
                                                         1.430064       0.254167
                                                         0.571611       0.296234
                                                         0.232197       0.027811
                                                         0.076562       0.007246
                          1       7    5fy3              7.066654       0.705879
                                                         3.428369      -0.273976
                                                         1.430064       0.113667
                                                         0.571611       0.132480
                                                         0.232197       0.012437
                                                         0.076562       0.003241
                          1       7    5fy2z             7.066654       1.578393
                                                         3.428369      -0.612629
                                                         1.430064       0.254167
                                                         0.571611       0.296234
                                                         0.232197       0.027811
                                                         0.076562       0.007246
                          1       7    5fyz2             7.066654       1.578393
                                                         3.428369      -0.612629
                                                         1.430064       0.254167
                                                         0.571611       0.296234
                                                         0.232197       0.027811
                                                         0.076562       0.007246
                          1       7    5fz3              7.066654       0.705879
                                                         3.428369      -0.273976
                                                         1.430064       0.113667
                                                         0.571611       0.132480
                                                         0.232197       0.012437
                                                         0.076562       0.003241

     GTH Potential information for                                   GTH-PBE-q13

       Description:                       Goedecker-Teter-Hutter pseudopotential
                                           Goedecker et al., PRB 54, 1703 (1996)
                                          Hartwigsen et al., PRB 58, 3641 (1998)
                                                      Krack, TCA 114, 145 (2005)

       Gaussian exponent of the core charge distribution:               2.082466
       Electronic configuration (s p d ...):                           2   1  10

       Parameters of the local part of the GTH pseudopotential:

                          rloc        C1          C2          C3          C4
                        0.490000

       Parameters of the non-local part of the GTH pseudopotential:

                   l      r(l)      h(i,j,l)

                   0    0.416777   10.475690   -4.921768    0.870706
                                   -4.921768    7.770178   -2.248152
                                    0.870706   -2.248152    1.784415
                   1    0.569627    1.777985    0.195860
                                    0.195860   -0.231744
                   2    0.238126  -16.248680

  2. Atomic kind: N                                     Number of atoms:      72

     Orbital Basis Set                                     DZVP-MOLOPT-SR-GTH-q5

       Number of orbital shell sets:                                           1
       Number of orbital shells:                                               5
       Number of primitive Cartesian functions:                                5
       Number of Cartesian basis functions:                                   14
       Number of spherical basis functions:                                   13
       Norm type:                                                              2

       Normalised Cartesian orbitals:

                        Set   Shell   Orbital            Exponent    Coefficient

                          1       1    2s                7.341988       0.360561
                                                         2.542637       0.139177
                                                         0.888575      -0.289383
                                                         0.333802      -0.182244
                                                         0.112012      -0.019197

                          1       2    3s                7.341988       0.282000
                                                         2.542637       0.177875
                                                         0.888575      -0.278381
                                                         0.333802       0.008577
                                                         0.112012       0.154176

                          1       3    3px               7.341988      -1.188719
                                                         2.542637      -0.973969
                                                         0.888575      -0.501079
                                                         0.333802      -0.144894
                                                         0.112012      -0.013986
                          1       3    3py               7.341988      -1.188719
                                                         2.542637      -0.973969
                                                         0.888575      -0.501079
                                                         0.333802      -0.144894
                                                         0.112012      -0.013986
                          1       3    3pz               7.341988      -1.188719
                                                         2.542637      -0.973969
                                                         0.888575      -0.501079
                                                         0.333802      -0.144894
                                                         0.112012      -0.013986

                          1       4    4px               7.341988      -0.094798
                                                         2.542637       0.050069
                                                         0.888575      -0.114797
                                                         0.333802       0.144793
                                                         0.112012       0.066710
                          1       4    4py               7.341988      -0.094798
                                                         2.542637       0.050069
                                                         0.888575      -0.114797
                                                         0.333802       0.144793
                                                         0.112012       0.066710
                          1       4    4pz               7.341988      -0.094798
                                                         2.542637       0.050069
                                                         0.888575      -0.114797
                                                         0.333802       0.144793
                                                         0.112012       0.066710

                          1       5    4dx2              7.341988       1.354688
                                                         2.542637       0.690378
                                                         0.888575       0.855359
                                                         0.333802       0.091746
                                                         0.112012       0.001253
                          1       5    4dxy              7.341988       2.346389
                                                         2.542637       1.195770
                                                         0.888575       1.481524
                                                         0.333802       0.158910
                                                         0.112012       0.002169
                          1       5    4dxz              7.341988       2.346389
                                                         2.542637       1.195770
                                                         0.888575       1.481524
                                                         0.333802       0.158910
                                                         0.112012       0.002169
                          1       5    4dy2              7.341988       1.354688
                                                         2.542637       0.690378
                                                         0.888575       0.855359
                                                         0.333802       0.091746
                                                         0.112012       0.001253
                          1       5    4dyz              7.341988       2.346389
                                                         2.542637       1.195770
                                                         0.888575       1.481524
                                                         0.333802       0.158910
                                                         0.112012       0.002169
                          1       5    4dz2              7.341988       1.354688
                                                         2.542637       0.690378
                                                         0.888575       0.855359
                                                         0.333802       0.091746
                                                         0.112012       0.001253

     GTH Potential information for                                    GTH-PBE-q5

       Description:                       Goedecker-Teter-Hutter pseudopotential
                                           Goedecker et al., PRB 54, 1703 (1996)
                                          Hartwigsen et al., PRB 58, 3641 (1998)
                                                      Krack, TCA 114, 145 (2005)

       Gaussian exponent of the core charge distribution:               6.208322
       Electronic configuration (s p d ...):                               2   3

       Parameters of the local part of the GTH pseudopotential:

                          rloc        C1          C2          C3          C4
                        0.283791  -12.415226    1.868096

       Parameters of the non-local part of the GTH pseudopotential:

                   l      r(l)      h(i,j,l)

                   0    0.255405   13.630263
                   1    0.245495

  3. Atomic kind: H                                     Number of atoms:       4

     Orbital Basis Set                                     DZVP-MOLOPT-SR-GTH-q1

       Number of orbital shell sets:                                           1
       Number of orbital shells:                                               3
       Number of primitive Cartesian functions:                                5
       Number of Cartesian basis functions:                                    5
       Number of spherical basis functions:                                    5
       Norm type:                                                              2

       Normalised Cartesian orbitals:

                        Set   Shell   Orbital            Exponent    Coefficient

                          1       1    2s               10.068468      -0.133023
                                                         2.680223      -0.177618
                                                         0.791502      -0.258419
                                                         0.239116      -0.107525
                                                         0.082193      -0.014019

                          1       2    3s               10.068468       0.344673
                                                         2.680223       1.819821
                                                         0.791502      -0.999069
                                                         0.239116       0.017430
                                                         0.082193       0.082660

                          1       3    3px              10.068468       0.155326
                                                         2.680223       0.367157
                                                         0.791502       0.311480
                                                         0.239116       0.080105
                                                         0.082193       0.033440
                          1       3    3py              10.068468       0.155326
                                                         2.680223       0.367157
                                                         0.791502       0.311480
                                                         0.239116       0.080105
                                                         0.082193       0.033440
                          1       3    3pz              10.068468       0.155326
                                                         2.680223       0.367157
                                                         0.791502       0.311480
                                                         0.239116       0.080105
                                                         0.082193       0.033440

     GTH Potential information for                                    GTH-PBE-q1

       Description:                       Goedecker-Teter-Hutter pseudopotential
                                           Goedecker et al., PRB 54, 1703 (1996)
                                          Hartwigsen et al., PRB 58, 3641 (1998)
                                                      Krack, TCA 114, 145 (2005)

       Gaussian exponent of the core charge distribution:              12.500000
       Electronic configuration (s p d ...):                                   1

       Parameters of the local part of the GTH pseudopotential:

                          rloc        C1          C2          C3          C4
                        0.200000   -4.178900    0.724463

  4. Atomic kind: C                                     Number of atoms:       1

     Orbital Basis Set                                     DZVP-MOLOPT-SR-GTH-q4

       Number of orbital shell sets:                                           1
       Number of orbital shells:                                               5
       Number of primitive Cartesian functions:                                5
       Number of Cartesian basis functions:                                   14
       Number of spherical basis functions:                                   13
       Norm type:                                                              2

       Normalised Cartesian orbitals:

                        Set   Shell   Orbital            Exponent    Coefficient

                          1       1    2s                5.605331       0.322515
                                                         2.113016       0.213043
                                                         0.769911      -0.209686
                                                         0.348157      -0.219794
                                                         0.128212      -0.022789

                          1       2    3s                5.605331       0.552234
                                                         2.113016       0.082072
                                                         0.769911       0.007843
                                                         0.348157       0.136893
                                                         0.128212       0.074283

                          1       3    3px               5.605331      -0.703879
                                                         2.113016      -0.642521
                                                         0.769911      -0.374851
                                                         0.348157      -0.139743
                                                         0.128212      -0.027849
                          1       3    3py               5.605331      -0.703879
                                                         2.113016      -0.642521
                                                         0.769911      -0.374851
                                                         0.348157      -0.139743
                                                         0.128212      -0.027849
                          1       3    3pz               5.605331      -0.703879
                                                         2.113016      -0.642521
                                                         0.769911      -0.374851
                                                         0.348157      -0.139743
                                                         0.128212      -0.027849

                          1       4    4px               5.605331      -0.480376
                                                         2.113016      -0.552894
                                                         0.769911      -0.316145
                                                         0.348157       0.210505
                                                         0.128212       0.076095
                          1       4    4py               5.605331      -0.480376
                                                         2.113016      -0.552894
                                                         0.769911      -0.316145
                                                         0.348157       0.210505
                                                         0.128212       0.076095
                          1       4    4pz               5.605331      -0.480376
                                                         2.113016      -0.552894
                                                         0.769911      -0.316145
                                                         0.348157       0.210505
                                                         0.128212       0.076095

                          1       5    4dx2              5.605331       0.640026
                                                         2.113016       0.274300
                                                         0.769911       0.446711
                                                         0.348157       0.028674
                                                         0.128212       0.029790
                          1       5    4dxy              5.605331       1.108557
                                                         2.113016       0.475102
                                                         0.769911       0.773726
                                                         0.348157       0.049666
                                                         0.128212       0.051599
                          1       5    4dxz              5.605331       1.108557
                                                         2.113016       0.475102
                                                         0.769911       0.773726
                                                         0.348157       0.049666
                                                         0.128212       0.051599
                          1       5    4dy2              5.605331       0.640026
                                                         2.113016       0.274300
                                                         0.769911       0.446711
                                                         0.348157       0.028674
                                                         0.128212       0.029790
                          1       5    4dyz              5.605331       1.108557
                                                         2.113016       0.475102
                                                         0.769911       0.773726
                                                         0.348157       0.049666
                                                         0.128212       0.051599
                          1       5    4dz2              5.605331       0.640026
                                                         2.113016       0.274300
                                                         0.769911       0.446711
                                                         0.348157       0.028674
                                                         0.128212       0.029790

     GTH Potential information for                                    GTH-PBE-q4

       Description:                       Goedecker-Teter-Hutter pseudopotential
                                           Goedecker et al., PRB 54, 1703 (1996)
                                          Hartwigsen et al., PRB 58, 3641 (1998)
                                                      Krack, TCA 114, 145 (2005)

       Gaussian exponent of the core charge distribution:               4.364419
       Electronic configuration (s p d ...):                               2   2

       Parameters of the local part of the GTH pseudopotential:

                          rloc        C1          C2          C3          C4
                        0.338471   -8.803674    1.339211

       Parameters of the non-local part of the GTH pseudopotential:

                   l      r(l)      h(i,j,l)

                   0    0.302576    9.622487
                   1    0.291507

  5. Atomic kind: O                                     Number of atoms:       1

     Orbital Basis Set                                     DZVP-MOLOPT-SR-GTH-q6

       Number of orbital shell sets:                                           1
       Number of orbital shells:                                               5
       Number of primitive Cartesian functions:                                5
       Number of Cartesian basis functions:                                   14
       Number of spherical basis functions:                                   13
       Norm type:                                                              2

       Normalised Cartesian orbitals:

                        Set   Shell   Orbital            Exponent    Coefficient

                          1       1    2s               10.389228       0.396646
                                                         3.849621       0.208811
                                                         1.388401      -0.301641
                                                         0.496955      -0.274061
                                                         0.162492      -0.033677

                          1       2    3s               10.389228       0.303673
                                                         3.849621       0.240943
                                                         1.388401      -0.313066
                                                         0.496955      -0.043055
                                                         0.162492       0.213991

                          1       3    3px              10.389228      -1.530415
                                                         3.849621      -1.371928
                                                         1.388401      -0.761951
                                                         0.496955      -0.253695
                                                         0.162492      -0.035541
                          1       3    3py              10.389228      -1.530415
                                                         3.849621      -1.371928
                                                         1.388401      -0.761951
                                                         0.496955      -0.253695
                                                         0.162492      -0.035541
                          1       3    3pz              10.389228      -1.530415
                                                         3.849621      -1.371928
                                                         1.388401      -0.761951
                                                         0.496955      -0.253695
                                                         0.162492      -0.035541

                          1       4    4px              10.389228      -0.565392
                                                         3.849621      -0.038231
                                                         1.388401      -0.382373
                                                         0.496955       0.179070
                                                         0.162492       0.122714
                          1       4    4py              10.389228      -0.565392
                                                         3.849621      -0.038231
                                                         1.388401      -0.382373
                                                         0.496955       0.179070
                                                         0.162492       0.122714
                          1       4    4pz              10.389228      -0.565392
                                                         3.849621      -0.038231
                                                         1.388401      -0.382373
                                                         0.496955       0.179070
                                                         0.162492       0.122714

                          1       5    4dx2             10.389228       1.867377
                                                         3.849621       0.670994
                                                         1.388401       1.353441
                                                         0.496955       0.273538
                                                         0.162492       0.006620
                          1       5    4dxy             10.389228       3.234392
                                                         3.849621       1.162195
                                                         1.388401       2.344229
                                                         0.496955       0.473781
                                                         0.162492       0.011466
                          1       5    4dxz             10.389228       3.234392
                                                         3.849621       1.162195
                                                         1.388401       2.344229
                                                         0.496955       0.473781
                                                         0.162492       0.011466
                          1       5    4dy2             10.389228       1.867377
                                                         3.849621       0.670994
                                                         1.388401       1.353441
                                                         0.496955       0.273538
                                                         0.162492       0.006620
                          1       5    4dyz             10.389228       3.234392
                                                         3.849621       1.162195
                                                         1.388401       2.344229
                                                         0.496955       0.473781
                                                         0.162492       0.011466
                          1       5    4dz2             10.389228       1.867377
                                                         3.849621       0.670994
                                                         1.388401       1.353441
                                                         0.496955       0.273538
                                                         0.162492       0.006620

     GTH Potential information for                                    GTH-PBE-q6

       Description:                       Goedecker-Teter-Hutter pseudopotential
                                           Goedecker et al., PRB 54, 1703 (1996)
                                          Hartwigsen et al., PRB 58, 3641 (1998)
                                                      Krack, TCA 114, 145 (2005)

       Gaussian exponent of the core charge distribution:               8.360253
       Electronic configuration (s p d ...):                               2   4

       Parameters of the local part of the GTH pseudopotential:

                          rloc        C1          C2          C3          C4
                        0.244554  -16.667215    2.487311

       Parameters of the non-local part of the GTH pseudopotential:

                   l      r(l)      h(i,j,l)

                   0    0.220956   18.337458
                   1    0.211332


 MOLECULE KIND INFORMATION


 All atoms are their own molecule, skipping detailed information


 TOTAL NUMBERS AND MAXIMUM NUMBERS

  Total number of            - Atomic kinds:                                   5
                             - Atoms:                                        150
                             - Shell sets:                                   150
                             - Shells:                                       886
                             - Primitive Cartesian functions:                822
                             - Cartesian basis functions:                   3216
                             - Spherical basis functions:                   2782

  Maximum angular momentum of- Orbital basis functions:                        3
                             - Local part of the GTH pseudopotential:          2
                             - Non-local part of the GTH pseudopotential:      4


 MODULE QUICKSTEP:  ATOMIC COORDINATES IN angstrom

  Atom  Kind  Element       X           Y           Z          Z(eff)       Mass

       1     1 Ga  31   -0.048691   -0.038319   -0.527625     13.00      69.7230
       2     2 N    7   -0.045298    1.836954    0.621488      5.00      14.0067
       3     1 Ga  31   -0.045156    1.806096    2.651443     13.00      69.7230
       4     2 N    7   -0.048040   -0.036308    3.285614      5.00      14.0067
       5     1 Ga  31   -0.048138   -0.032243    5.275893     13.00      69.7230
       6     2 N    7   -0.045621    1.842399    5.865788      5.00      14.0067
       7     1 Ga  31   -0.049051    1.843618    7.864431     13.00      69.7230
       8     2 N    7   -0.052228   -0.029199    8.466881      5.00      14.0067
       9     1 Ga  31   -0.055188   -0.024213   10.464823     13.00      69.7230
      10     2 N    7   -0.052606    1.847312   11.072375      5.00      14.0067
      11     1 Ga  31   -0.056396    1.855633   13.072663     13.00      69.7230
      12     2 N    7   -0.058911   -0.020252   13.663945      5.00      14.0067
      13     1 Ga  31   -0.062908   -0.002620   15.666314     13.00      69.7230
      14     2 N    7   -0.059857    1.878228   16.207421      5.00      14.0067
      15     1 Ga  31   -0.062219    1.843165   18.257471     13.00      69.7230
      16     2 N    7   -0.067055   -0.015146   18.708977      5.00      14.0067
      17     1 Ga  31   -1.668696    2.767318    0.341629     13.00      69.7230
      18     2 N    7   -1.670692    4.636170    0.623483      5.00      14.0067
      19     1 Ga  31   -1.640213    4.654801    2.651332     13.00      69.7230
      20     2 N    7   -1.667007    2.769326    3.245026      5.00      14.0067
      21     1 Ga  31   -1.667272    2.772816    5.254348     13.00      69.7230
      22     2 N    7   -1.667623    4.642847    5.864731      5.00      14.0067
      23     1 Ga  31   -1.670033    4.645589    7.862217     13.00      69.7230
      24     2 N    7   -1.672407    2.775832    8.471003      5.00      14.0067
      25     1 Ga  31   -1.675028    2.779642   10.467746     13.00      69.7230
      26     2 N    7   -1.673163    4.654420   11.069532      5.00      14.0067
      27     1 Ga  31   -1.675464    4.657986   13.065718     13.00      69.7230
      28     2 N    7   -1.685678    2.790166   13.663665      5.00      14.0067
      29     1 Ga  31   -1.687206    2.804452   15.664392     13.00      69.7230
      30     2 N    7   -1.706015    4.678799   16.279399      5.00      14.0067
      31     1 Ga  31   -1.660324    4.645637   18.307386     13.00      69.7230
      32     2 N    7   -1.698553    2.778495   18.658559      5.00      14.0067
      33     1 Ga  31   -3.288409    5.572163    0.341376     13.00      69.7230
      34     2 N    7   -3.281054    7.442883    0.621724      5.00      14.0067
      35     1 Ga  31   -3.309261    7.460395    2.651918     13.00      69.7230
      36     2 N    7   -3.286766    5.575216    3.245604      5.00      14.0067
      37     1 Ga  31   -3.287205    5.578347    5.255041     13.00      69.7230
      38     2 N    7   -3.282684    7.448711    5.864626      5.00      14.0067
      39     1 Ga  31   -3.287520    7.452167    7.862416     13.00      69.7230
      40     2 N    7   -3.291844    5.581170    8.465481      5.00      14.0067
      41     1 Ga  31   -3.293376    5.585205   10.458952     13.00      69.7230
      42     2 N    7   -3.292103    7.455552   11.068601      5.00      14.0067
      43     1 Ga  31   -3.299502    7.461632   13.063256     13.00      69.7230
      44     2 N    7   -3.307276    5.588191   13.671682      5.00      14.0067
      45     1 Ga  31   -3.311019    5.590130   15.661796     13.00      69.7230
      46     2 N    7   -3.301858    7.459149   16.261494      5.00      14.0067
      47     1 Ga  31   -3.285757    7.516956   18.290869     13.00      69.7230
      48     2 N    7   -3.284135    5.622719   18.862219      5.00      14.0067
      49     1 Ga  31    3.198717   -0.038867    0.341286     13.00      69.7230
      50     2 N    7    3.196072    1.831055    0.626851      5.00      14.0067
      51     1 Ga  31    3.224718    1.848897    2.655624     13.00      69.7230
      52     2 N    7    3.197392   -0.036943    3.245799      5.00      14.0067
      53     1 Ga  31    3.197418   -0.032997    5.255014     13.00      69.7230
      54     2 N    7    3.196588    1.837449    5.864926      5.00      14.0067
      55     1 Ga  31    3.193713    1.839644    7.862838     13.00      69.7230
      56     2 N    7    3.193364   -0.030413    8.469029      5.00      14.0067
      57     1 Ga  31    3.191065   -0.027407   10.465039     13.00      69.7230
      58     2 N    7    3.194493    1.843813   11.071334      5.00      14.0067
      59     1 Ga  31    3.188811    1.845651   13.067452     13.00      69.7230
      60     2 N    7    3.186809   -0.028152   13.674257      5.00      14.0067
      61     1 Ga  31    3.191805   -0.019228   15.675239     13.00      69.7230
      62     2 N    7    3.197999    1.856222   16.243232      5.00      14.0067
      63     1 Ga  31    3.157672    1.797864   18.247644     13.00      69.7230
      64     2 N    7    3.194018   -0.019153   18.761301      5.00      14.0067
      65     1 Ga  31    1.577642    2.767970    0.341422     13.00      69.7230
      66     2 N    7    1.584435    4.636734    0.624140      5.00      14.0067
      67     1 Ga  31    1.555493    4.654798    2.652016     13.00      69.7230
      68     2 N    7    1.577260    2.769120    3.245195      5.00      14.0067
      69     1 Ga  31    1.577291    2.772663    5.254381     13.00      69.7230
      70     2 N    7    1.582733    4.642921    5.863937      5.00      14.0067
      71     1 Ga  31    1.578023    4.645712    7.861519     13.00      69.7230
      72     2 N    7    1.573746    2.776289    8.471011      5.00      14.0067
      73     1 Ga  31    1.571013    2.780532   10.468318     13.00      69.7230
      74     2 N    7    1.574039    4.654574   11.070670      5.00      14.0067
      75     1 Ga  31    1.570253    4.657561   13.067222     13.00      69.7230
      76     2 N    7    1.573896    2.789024   13.662894      5.00      14.0067
      77     1 Ga  31    1.569507    2.803281   15.662819     13.00      69.7230
      78     2 N    7    1.594577    4.678053   16.271807      5.00      14.0067
      79     1 Ga  31    1.539865    4.643956   18.294545     13.00      69.7230
      80     2 N    7    1.575527    2.777287   18.652149      5.00      14.0067
      81     1 Ga  31   -0.042359    5.572811   -0.537287     13.00      69.7230
      82     2 N    7   -0.039394    7.447902    0.624353      5.00      14.0067
      83     1 Ga  31   -0.039279    7.417162    2.652564     13.00      69.7230
      84     2 N    7   -0.042222    5.574340    3.286350      5.00      14.0067
      85     1 Ga  31   -0.042046    5.578263    5.275862     13.00      69.7230
      86     2 N    7   -0.039278    7.453186    5.864560      5.00      14.0067
      87     1 Ga  31   -0.042804    7.454210    7.862083     13.00      69.7230
      88     2 N    7   -0.045780    5.581357    8.464935      5.00      14.0067
      89     1 Ga  31   -0.048609    5.585021   10.461704     13.00      69.7230
      90     2 N    7   -0.046500    7.455128   11.073524      5.00      14.0067
      91     1 Ga  31   -0.049211    7.450435   13.070110     13.00      69.7230
      92     2 N    7   -0.053240    5.582269   13.687425      5.00      14.0067
      93     1 Ga  31   -0.055173    5.586266   15.699686     13.00      69.7230
      94     2 N    7   -0.052975    7.461079   16.283984      5.00      14.0067
      95     1 Ga  31   -0.055069    7.438881   18.382258     13.00      69.7230
      96     2 N    7   -0.057977    5.576080   18.718207      5.00      14.0067
      97     1 Ga  31    6.440529   -0.038096    0.341164     13.00      69.7230
      98     2 N    7    6.448557    1.831982    0.626809      5.00      14.0067
      99     1 Ga  31    6.421357    1.848972    2.655874     13.00      69.7230
     100     2 N    7    6.442844   -0.036681    3.245637      5.00      14.0067
     101     1 Ga  31    6.443153   -0.032849    5.254655     13.00      69.7230
     102     2 N    7    6.449058    1.837287    5.864658      5.00      14.0067
     103     1 Ga  31    6.445010    1.839782    7.862277     13.00      69.7230
     104     2 N    7    6.439268   -0.030395    8.469059      5.00      14.0067
     105     1 Ga  31    6.435372   -0.027736   10.464469     13.00      69.7230
     106     2 N    7    6.437271    1.843150   11.071769      5.00      14.0067
     107     1 Ga  31    6.437535    1.844079   13.067998     13.00      69.7230
     108     2 N    7    6.432798   -0.030023   13.672850      5.00      14.0067
     109     1 Ga  31    6.420414   -0.022035   15.674737     13.00      69.7230
     110     2 N    7    6.422705    1.854087   16.242335      5.00      14.0067
     111     1 Ga  31    6.461431    1.796945   18.246190     13.00      69.7230
     112     2 N    7    6.412007   -0.018513   18.762470      5.00      14.0067
     113     1 Ga  31    4.822931    2.766551   -0.513168     13.00      69.7230
     114     2 N    7    4.825750    4.642155    0.627280      5.00      14.0067
     115     1 Ga  31    4.826165    4.612532    2.656197     13.00      69.7230
     116     2 N    7    4.823242    2.769035    3.288806      5.00      14.0067
     117     1 Ga  31    4.823220    2.772191    5.277967     13.00      69.7230
     118     2 N    7    4.825973    4.647493    5.863847      5.00      14.0067
     119     1 Ga  31    4.822286    4.648293    7.861264     13.00      69.7230
     120     2 N    7    4.819427    2.773880    8.463436      5.00      14.0067
     121     1 Ga  31    4.816671    2.774959   10.459402     13.00      69.7230
     122     2 N    7    4.819014    4.649298   11.058812      5.00      14.0067
     123     1 Ga  31    4.816763    4.654650   13.045534     13.00      69.7230
     124     2 N    7    4.813398    2.790182   13.671373      5.00      14.0067
     125     1 Ga  31    4.811633    2.805736   15.656247     13.00      69.7230
     126     2 N    7    4.813447    4.655969   16.332066      5.00      14.0067
     127     1 Ga  31    4.808828    4.667260   18.340984     13.00      69.7230
     128     2 N    7    4.809450    2.750305   18.883381      5.00      14.0067
     129     1 Ga  31    3.202882    5.571817    0.342030     13.00      69.7230
     130     2 N    7    3.201027    7.442483    0.622301      5.00      14.0067
     131     1 Ga  31    3.230795    7.460476    2.651575     13.00      69.7230
     132     2 N    7    3.202947    5.575249    3.245331      5.00      14.0067
     133     1 Ga  31    3.203239    5.578479    5.254700     13.00      69.7230
     134     2 N    7    3.203814    7.448831    5.864263      5.00      14.0067
     135     1 Ga  31    3.201866    7.452386    7.862143     13.00      69.7230
     136     2 N    7    3.199460    5.581003    8.464960      5.00      14.0067
     137     1 Ga  31    3.195249    5.585024   10.459308     13.00      69.7230
     138     2 N    7    3.199417    7.455043   11.067724      5.00      14.0067
     139     1 Ga  31    3.201036    7.460487   13.062307     13.00      69.7230
     140     2 N    7    3.204216    5.587028   13.668981      5.00      14.0067
     141     1 Ga  31    3.204468    5.589226   15.657933     13.00      69.7230
     142     2 N    7    3.196459    7.456485   16.257568      5.00      14.0067
     143     1 Ga  31    3.170577    7.517289   18.286725     13.00      69.7230
     144     2 N    7    3.160892    5.622756   18.856745      5.00      14.0067
     145     3 H    1    3.186649    5.608027   19.883168      1.00       1.0079
     146     3 H    1    5.701089    2.354712   20.778491      1.00       1.0079
     147     3 H    1    3.957829    2.339990   20.791866      1.00       1.0079
     148     4 C    6    4.820620    2.914360   20.353466      4.00      12.0107
     149     5 O    8    4.818516    4.197460   20.741188      6.00      15.9994
     150     3 H    1    6.398056    5.592313   19.889172      1.00       1.0079




 SCF PARAMETERS         Density guess:                                    ATOMIC
                        --------------------------------------------------------
                        max_scf:                                             100
                        max_scf_history:                                       0
                        max_diis:                                              4
                        --------------------------------------------------------
                        eps_scf:                                        5.00E-06
                        eps_scf_history:                                0.00E+00
                        eps_diis:                                       1.00E-01
                        eps_eigval:                                     1.00E-05
                        --------------------------------------------------------
                        level_shift [a.u.]:                                 0.00
                        --------------------------------------------------------
                        Outer loop SCF in use 
                        No variables optimised in outer loop
                        eps_scf                                         5.00E-06
                        max_scf                                               10
                        No outer loop optimization
                        step_size                                       5.00E-01

 PW_GRID| Information for grid number                                          1
 PW_GRID| Grid distributed over                                    80 processors
 PW_GRID| Real space group dimensions                                    80    1
 PW_GRID| the grid is blocked:                                                NO
 PW_GRID| Cutoff [a.u.]                                                    600.0
 PW_GRID| spherical cutoff:                                                   NO
 PW_GRID|   Bounds   1           -100      99                Points:         200
 PW_GRID|   Bounds   2           -100      99                Points:         200
 PW_GRID|   Bounds   3           -324     323                Points:         648
 PW_GRID| Volume element (a.u.^3)  0.6333E-03     Volume (a.u.^3)     16414.2734
 PW_GRID| Grid span                                                    FULLSPACE
 PW_GRID|   Distribution                         Average         Max         Min
 PW_GRID|   G-Vectors                           324000.0      324000      324000
 PW_GRID|   G-Rays                                1620.0        1620        1620
 PW_GRID|   Real Space Points                   324000.0      388800      259200

 PW_GRID| Information for grid number                                          2
 PW_GRID| Grid distributed over                                    80 processors
 PW_GRID| Real space group dimensions                                    80    1
 PW_GRID| the grid is blocked:                                                NO
 PW_GRID| Cutoff [a.u.]                                                    200.0
 PW_GRID| spherical cutoff:                                                   NO
 PW_GRID|   Bounds   1            -60      59                Points:         120
 PW_GRID|   Bounds   2            -60      59                Points:         120
 PW_GRID|   Bounds   3           -187     187                Points:         375
 PW_GRID| Volume element (a.u.^3)  0.3040E-02     Volume (a.u.^3)     16414.2734
 PW_GRID| Grid span                                                    FULLSPACE
 PW_GRID|   Distribution                         Average         Max         Min
 PW_GRID|   G-Vectors                            67500.0       68520       66240
 PW_GRID|   G-Rays                                 562.5         571         552
 PW_GRID|   Real Space Points                    67500.0       90000       45000

 PW_GRID| Information for grid number                                          3
 PW_GRID| Grid distributed over                                    80 processors
 PW_GRID| Real space group dimensions                                     8   10
 PW_GRID| the grid is blocked:                                                NO
 PW_GRID| Cutoff [a.u.]                                                     66.7
 PW_GRID| spherical cutoff:                                                   NO
 PW_GRID|   Bounds   1            -36      35                Points:          72
 PW_GRID|   Bounds   2            -36      35                Points:          72
 PW_GRID|   Bounds   3           -108     107                Points:         216
 PW_GRID| Volume element (a.u.^3)  0.1466E-01     Volume (a.u.^3)     16414.2734
 PW_GRID| Grid span                                                    FULLSPACE
 PW_GRID|   Distribution                         Average         Max         Min
 PW_GRID|   G-Vectors                            13996.8       14976       12816
 PW_GRID|   G-Rays                                 194.4         208         178
 PW_GRID|   Real Space Points                    13996.8       15552       13608

 PW_GRID| Information for grid number                                          4
 PW_GRID| Grid distributed over                                    80 processors
 PW_GRID| Real space group dimensions                                     8   10
 PW_GRID| the grid is blocked:                                                NO
 PW_GRID| Cutoff [a.u.]                                                     22.2
 PW_GRID| spherical cutoff:                                                   NO
 PW_GRID|   Bounds   1            -20      19                Points:          40
 PW_GRID|   Bounds   2            -20      19                Points:          40
 PW_GRID|   Bounds   3            -62      62                Points:         125
 PW_GRID| Volume element (a.u.^3)  0.8207E-01     Volume (a.u.^3)     16414.2734
 PW_GRID| Grid span                                                    FULLSPACE
 PW_GRID|   Distribution                         Average         Max         Min
 PW_GRID|   G-Vectors                             2500.0        2960        2040
 PW_GRID|   G-Rays                                  62.5          74          51
 PW_GRID|   Real Space Points                     2500.0        2500        2500

 PW_GRID| Information for grid number                                          5
 PW_GRID| Grid distributed over                                    80 processors
 PW_GRID| Real space group dimensions                                     8   10
 PW_GRID| the grid is blocked:                                                NO
 PW_GRID| Cutoff [a.u.]                                                      7.4
 PW_GRID| spherical cutoff:                                                   NO
 PW_GRID|   Bounds   1            -12      11                Points:          24
 PW_GRID|   Bounds   2            -12      11                Points:          24
 PW_GRID|   Bounds   3            -36      35                Points:          72
 PW_GRID| Volume element (a.u.^3)  0.3958         Volume (a.u.^3)     16414.2734
 PW_GRID| Grid span                                                    FULLSPACE
 PW_GRID|   Distribution                         Average         Max         Min
 PW_GRID|   G-Vectors                              518.4         648         240
 PW_GRID|   G-Rays                                  21.6          27          10
 PW_GRID|   Real Space Points                      518.4         648         432

 POISSON| Solver                                                        PERIODIC
 POISSON| Periodicity                                                        XYZ

 RS_GRID| Information for grid number                                          1
 RS_GRID|   Bounds   1           -100      99                Points:         200
 RS_GRID|   Bounds   2           -100      99                Points:         200
 RS_GRID|   Bounds   3           -324     323                Points:         648
 RS_GRID| Real space distribution over                                 80 groups
 RS_GRID| Real space distribution along direction                              3
 RS_GRID| Border size                                                         73
 RS_GRID|   Distribution                         Average         Max         Min
 RS_GRID|   Planes                                 154.1         155         154

 RS_GRID| Information for grid number                                          2
 RS_GRID|   Bounds   1            -60      59                Points:         120
 RS_GRID|   Bounds   2            -60      59                Points:         120
 RS_GRID|   Bounds   3           -187     187                Points:         375
 RS_GRID| Real space distribution over                                 80 groups
 RS_GRID| Real space distribution along direction                              3
 RS_GRID| Border size                                                         45
 RS_GRID|   Distribution                         Average         Max         Min
 RS_GRID|   Planes                                  94.7          95          94

 RS_GRID| Information for grid number                                          3
 RS_GRID|   Bounds   1            -36      35                Points:          72
 RS_GRID|   Bounds   2            -36      35                Points:          72
 RS_GRID|   Bounds   3           -108     107                Points:         216
 RS_GRID| Real space fully replicated
 RS_GRID| Group size                                                           1

 RS_GRID| Information for grid number                                          4
 RS_GRID|   Bounds   1            -20      19                Points:          40
 RS_GRID|   Bounds   2            -20      19                Points:          40
 RS_GRID|   Bounds   3            -62      62                Points:         125
 RS_GRID| Real space fully replicated
 RS_GRID| Group size                                                           1

 RS_GRID| Information for grid number                                          5
 RS_GRID|   Bounds   1            -12      11                Points:          24
[...]
 flops     5 x    13 x    47            289522350     100.0%      0.0%      0.0%
 flops    13 x    15 x     5            323973000     100.0%      0.0%      0.0%
 flops     5 x    15 x    13            323973000     100.0%      0.0%      0.0%
 flops     5 x    32 x     5            363520000     100.0%      0.0%      0.0%
 flops    13 x    32 x    32            551649280     100.0%      0.0%      0.0%
 flops    25 x     5 x    47            680501250     100.0%      0.0%      0.0%
 flops     5 x    25 x    47            680501250     100.0%      0.0%      0.0%
 flops    25 x    15 x     5            761475000     100.0%      0.0%      0.0%
 flops     5 x    15 x    25            761475000     100.0%      0.0%      0.0%
 flops    25 x    32 x    32           1032192000     100.0%      0.0%      0.0%
 flops   175 x    47 x    47           1410225600     100.0%      0.0%      0.0%
 flops    13 x     5 x    32           3745310400     100.0%      0.0%      0.0%
 flops     5 x    13 x    32           3745310400     100.0%      0.0%      0.0%
 flops   160 x    47 x    47           3868047360     100.0%      0.0%      0.0%
 flops   175 x    47 x   139           4513649700     100.0%      0.0%      0.0%
 flops   175 x    47 x   128           6234681600     100.0%      0.0%      0.0%
 flops   695 x    47 x    47           8321082100     100.0%      0.0%      0.0%
 flops   696 x    47 x    47           8333054880     100.0%      0.0%      0.0%
 flops    25 x     5 x    32           8803080000     100.0%      0.0%      0.0%
 flops     5 x    25 x    32           8803080000     100.0%      0.0%      0.0%
 flops   175 x    47 x   127          10309955250     100.0%      0.0%      0.0%
 flops   160 x    47 x   139          12380296320     100.0%      0.0%      0.0%
 flops    13 x    32 x     5          13822848000     100.0%      0.0%      0.0%
 flops     5 x    32 x    13          13822848000     100.0%      0.0%      0.0%
 flops    13 x    13 x    47          14477579012     100.0%      0.0%      0.0%
 flops   695 x    47 x   139          15328508560     100.0%      0.0%      0.0%
 flops   696 x    47 x   139          15350563968     100.0%      0.0%      0.0%
 flops    13 x    15 x    13          15936429600     100.0%      0.0%      0.0%
 flops   160 x    47 x   128          17100840960     100.0%      0.0%      0.0%
 flops   175 x    47 x    32          18242918400     100.0%      0.0%      0.0%
 flops   175 x    32 x    47          18242918400     100.0%      0.0%      0.0%
 flops   695 x    47 x   128          21173191680     100.0%      0.0%      0.0%
 flops   696 x    47 x   128          21203656704     100.0%      0.0%      0.0%
 flops   160 x    47 x   127          28278734400     100.0%      0.0%      0.0%
 flops    25 x    13 x    47          30717475100     100.0%      0.0%      0.0%
 flops    13 x    25 x    47          31886134800     100.0%      0.0%      0.0%
 flops    25 x    32 x     5          32489600000     100.0%      0.0%      0.0%
 flops     5 x    32 x    25          32489600000     100.0%      0.0%      0.0%
 flops   695 x    47 x   127          35012960200     100.0%      0.0%      0.0%
 flops    13 x    15 x    25          35026036500     100.0%      0.0%      0.0%
 flops    25 x    15 x    13          35026036500     100.0%      0.0%      0.0%
 flops   696 x    47 x   127          35063338560     100.0%      0.0%      0.0%
 flops   160 x    32 x    47          50037719040     100.0%      0.0%      0.0%
 flops   160 x    47 x    32          50037719040     100.0%      0.0%      0.0%
 flops   175 x    32 x   139          58389340800     100.0%      0.0%      0.0%
 flops    25 x    25 x    47          62529975000     100.0%      0.0%      0.0%
 flops    25 x    15 x    25          69012000000     100.0%      0.0%      0.0%
 flops   175 x    32 x   128          80652902400     100.0%      0.0%      0.0%
 flops   695 x    32 x    47         107642934400     100.0%      0.0%      0.0%
 flops   695 x    47 x    32         107642934400     100.0%      0.0%      0.0%
 flops   696 x    47 x    32         107797816320     100.0%      0.0%      0.0%
 flops   696 x    32 x    47         107797816320     100.0%      0.0%      0.0%
 flops   175 x    32 x   127         133371336000     100.0%      0.0%      0.0%
 flops   160 x    32 x   139         160153620480     100.0%      0.0%      0.0%
 flops    13 x    13 x    32         187284426368     100.0%      0.0%      0.0%
 flops   695 x    32 x   139         198292195840     100.0%      0.0%      0.0%
 flops   696 x    32 x   139         198577508352     100.0%      0.0%      0.0%
 flops   160 x    32 x   128         221219389440     100.0%      0.0%      0.0%
 flops   175 x    32 x    32         235993497600     100.0%      0.0%      0.0%
 flops   695 x    32 x   128         273900011520     100.0%      0.0%      0.0%
 flops   696 x    32 x   128         274294112256     100.0%      0.0%      0.0%
 flops   160 x    32 x   127         365818521600     100.0%      0.0%      0.0%
 flops    25 x    13 x    32         397366486400     100.0%      0.0%      0.0%
 flops    13 x    25 x    32         412484467200     100.0%      0.0%      0.0%
 flops   695 x    32 x   127         452933612800     100.0%      0.0%      0.0%
 flops   696 x    32 x   127         453585315840     100.0%      0.0%      0.0%
 flops   160 x    32 x    32         647296450560     100.0%      0.0%      0.0%
 flops    13 x    32 x    13         679954329600     100.0%      0.0%      0.0%
 flops    25 x    25 x    32         808898400000     100.0%      0.0%      0.0%
 flops   695 x    32 x    32        1392487321600     100.0%      0.0%      0.0%
 flops   696 x    32 x    32        1394490900480     100.0%      0.0%      0.0%
 flops    13 x    32 x    25        1494444224000     100.0%      0.0%      0.0%
 flops    25 x    32 x    13        1494444224000     100.0%      0.0%      0.0%
 flops    25 x    32 x    25        2944512000000     100.0%      0.0%      0.0%
 flops inhomo. stacks               3911138567600     100.0%      0.0%      0.0%
 flops total                        20.101871E+12     100.0%      0.0%      0.0%
 flops max/rank                    351.831576E+09     100.0%      0.0%      0.0%
 matmuls inhomo. stacks                   1127200     100.0%      0.0%      0.0%
 matmuls total                          402104568     100.0%      0.0%      0.0%
 number of processed stacks              17268220     100.0%      0.0%      0.0%
 average stack size                                    23.3       0.0       0.0
 marketing flops                    22.265580E+12
 -------------------------------------------------------------------------------
 # multiplications                           5731
 max memory usage/rank             828.743680E+06
 # max total images/rank                        5
 # max 3D layers                                1
 # MPI messages exchanged                52266720
 MPI messages size (bytes):
  total size                         3.085312E+12
  min size                           0.000000E+00
  max size                         913.152000E+03
  average size                      59.030137E+03
 MPI breakdown and total messages size (bytes):
             size <=      128              228760                        0
       128 < size <=     8192            21809815             178666004480
      8192 < size <=    32768             9240536             250757025496
     32768 < size <=   131072            15070249             595962887744
    131072 < size <=  4194304             5917360            2057552796816
   4194304 < size <= 16777216                   0                        0
  16777216 < size                               0                        0
 -------------------------------------------------------------------------------

 *** WARNING in dbcsr/mm/dbcsr_mm.F:268 :: Using a non-square number of ***
 *** MPI ranks might lead to poor performance.                          ***
 *** Used ranks: 80                                                     ***
 *** Suggested: 81 169                                                  ***

 -------------------------------------------------------------------------------
 
 MEMORY| Estimated peak process memory [MiB]                                 796

 -------------------------------------------------------------------------------
 ----                             MULTIGRID INFO                            ----
 -------------------------------------------------------------------------------
 count for grid        1:        1080667          cutoff [a.u.]          600.00
 count for grid        2:        3327767          cutoff [a.u.]          200.00
 count for grid        3:        2504323          cutoff [a.u.]           66.67
 count for grid        4:        2553496          cutoff [a.u.]           22.22
 count for grid        5:        1772072          cutoff [a.u.]            7.41
 total gridlevel count  :       11238325

 -------------------------------------------------------------------------------
 -                                                                             -
 -                         MESSAGE PASSING PERFORMANCE                         -
 -                                                                             -
 -------------------------------------------------------------------------------

 ROUTINE             CALLS      AVE VOLUME [Bytes]
 MP_Group              512
 MP_Bcast            19796                  19317.
 MP_Allreduce        81185                    298.
 MP_Sync               351
 MP_Alltoall         30863                2599208.
 MP_SendRecv          3476                   5262.
 MP_ISendRecv       142674                  49867.
 MP_Wait           1293803
 MP_comm_split         346
 MP_ISend          1484958                  55702.
 MP_IRecv          1484958                  55687.
 MP_Recv               190                  82800.
 MP_Memory          641874
 -------------------------------------------------------------------------------


 -------------------------------------------------------------------------------
 -                                                                             -
 -                           R E F E R E N C E S                               -
 -                                                                             -
 -------------------------------------------------------------------------------
 
 CP2K version 7.0 (Development Version), the CP2K developers group (2018).
 CP2K is freely available from https://www.cp2k.org/ .

 Schuett, Ole; Messmer, Peter; Hutter, Juerg; VandeVondele, Joost. 
 Electronic Structure Calculations on Graphics Processing Units, John Wiley & Sons, Ltd, 173-190 (2016). 
 GPU-Accelerated Sparse Matrix-Matrix Multiplication for Linear Scaling Density Functional Theory.
 http://dx.doi.org/10.1002/9781118670712.ch8


 Borstnik, U; VandeVondele, J; Weber, V; Hutter, J. 
 PARALLEL COMPUTING, 40 (5-6), 47-58 (2014). 
 Sparse matrix multiplication: The distributed block-compressed sparse
 row library.
 http://dx.doi.org/10.1016/j.parco.2014.03.012


 Hutter, J; Iannuzzi, M; Schiffmann, F; VandeVondele, J. 
 WILEY INTERDISCIPLINARY REVIEWS-COMPUTATIONAL MOLECULAR SCIENCE, 4 (1), 15-25 (2014). 
 CP2K: atomistic simulations of condensed matter systems.
 http://dx.doi.org/10.1002/wcms.1159


 Grimme, S; Ehrlich, S; Goerigk, L. 
 JOURNAL OF COMPUTATIONAL CHEMISTRY, 32, 1456 (2011). 
 Effect of the damping function in dispersion corrected density functional theory.
 http://dx.doi.org/10.1002/jcc.21759


 Grimme, S; Antony, J; Ehrlich, S; Krieg, H. 
 JOURNAL OF CHEMICAL PHYSICS, 132 (15), 154104 (2010). 
 A consistent and accurate ab initio parametrization of density
 functional dispersion correction (DFT-D) for the 94 elements H-Pu.
 http://dx.doi.org/10.1063/1.3382344


 VandeVondele, J; Hutter, J. 
 JOURNAL OF CHEMICAL PHYSICS, 127 (11), 114105 (2007). 
 Gaussian basis sets for accurate calculations on molecular systems in
 gas and condensed phases.
 http://dx.doi.org/10.1063/1.2770708


 Krack, M. 
 THEORETICAL CHEMISTRY ACCOUNTS, 114 (1-3), 145-152 (2005). 
 Pseudopotentials for H to Kr optimized for gradient-corrected
 exchange-correlation functionals.
 http://dx.doi.org/10.1007/s00214-005-0655-y


 VandeVondele, J; Krack, M; Mohamed, F; Parrinello, M; Chassaing, T;
 Hutter, J. COMPUTER PHYSICS COMMUNICATIONS, 167 (2), 103-128 (2005). 
 QUICKSTEP: Fast and accurate density functional calculations using a
 mixed Gaussian and plane waves approach.
 http://dx.doi.org/10.1016/j.cpc.2004.12.014


 Frigo, M; Johnson, SG. 
 PROCEEDINGS OF THE IEEE, 93 (2), 216-231 (2005). 
 The design and implementation of FFTW3.
 http://dx.doi.org/10.1109/JPROC.2004.840301


 Kolafa, J. 
 JOURNAL OF COMPUTATIONAL CHEMISTRY, 25 (3), 335-342 (2004). 
 Time-reversible always stable predictor-corrector method for molecular dynamics of polarizable molecules.
 http://dx.doi.org/10.1002/jcc.10385


 VandeVondele, J; Hutter, J. 
 JOURNAL OF CHEMICAL PHYSICS, 118 (10), 4365-4369 (2003). 
 An efficient orbital transformation method for electronic structure
 calculations.
 http://dx.doi.org/10.1063/1.1543154


 Hartwigsen, C; Goedecker, S; Hutter, J. 
 PHYSICAL REVIEW B, 58 (7), 3641-3662 (1998). 
 Relativistic separable dual-space Gaussian pseudopotentials from H to Rn.
 http://dx.doi.org/10.1103/PhysRevB.58.3641


 Lippert, G; Hutter, J; Parrinello, M. 
 MOLECULAR PHYSICS, 92 (3), 477-487 (1997). 
 A hybrid Gaussian and plane wave density functional scheme.
 http://dx.doi.org/10.1080/002689797170220


 Perdew, JP; Burke, K; Ernzerhof, M. 
 PHYSICAL REVIEW LETTERS, 77 (18), 3865-3868 (1996). 
 Generalized gradient approximation made simple.
 http://dx.doi.org/10.1103/PhysRevLett.77.3865


 Goedecker, S; Teter, M; Hutter, J. 
 PHYSICAL REVIEW B, 54 (3), 1703-1710 (1996). 
 Separable dual-space Gaussian pseudopotentials.
 http://dx.doi.org/10.1103/PhysRevB.54.1703


 -------------------------------------------------------------------------------
 -                                                                             -
 -                                T I M I N G                                  -
 -                                                                             -
 -------------------------------------------------------------------------------
 SUBROUTINE                       CALLS  ASD         SELF TIME        TOTAL TIME
                                MAXIMUM       AVERAGE  MAXIMUM  AVERAGE  MAXIMUM
 CP2K                                 1  1.0    0.169    0.201 1544.804 1544.843
 cp_geo_opt                           1  2.0    0.002    0.002 1543.886 1543.897
 geoopt_bfgs                          1  3.0    0.012    0.024 1543.884 1543.896
 cp_eval_at                          12  4.0    0.011    0.023 1539.562 1539.593
 qs_forces                           11  5.0    0.014    0.036 1513.401 1513.414
 qs_energies                         12  5.9    0.045    0.064 1453.805 1453.860
 scf_env_do_scf                      12  6.9    0.003    0.015 1397.024 1397.035
 scf_env_do_scf_inner_loop          382  8.0    0.028    0.040 1314.702 1314.728
 qs_rho_update_rho                  394  9.0    0.002    0.003  626.480  627.089
 calculate_rho_elec                 394 10.0  372.168  385.345  626.477  627.086
 rebuild_ks_matrix                  393  9.9    0.002    0.002  616.567  616.724
 qs_ks_build_kohn_sham_matrix       393 10.9    0.069    0.170  616.565  616.722
 qs_ks_update_qs_env                396  9.0    0.004    0.030  551.025  551.250
 sum_up_and_integrate               208 11.8    0.705    0.880  385.566  385.688
 integrate_v_rspace                 208 12.8  243.017  249.364  384.861  385.136
 rs_pw_transfer                    3057 12.9    0.032    0.038  259.549  267.775
 pw_transfer                       6421 13.3    0.664    0.795  245.780  247.123
 fft_wrap_pw1pw2                   5635 14.4    0.064    0.077  243.020  244.208
 density_rs2pw                      394 11.0    0.028    0.039  232.100  239.815
 fft_wrap_pw1pw2_600               3227 15.7   17.880   20.878  223.339  224.599
 fft3d_ps                          5635 16.4   60.502   69.780  201.778  205.971
 qs_scf_new_mos                     382  9.0    0.003    0.017  192.815  193.026
 qs_scf_loop_do_ot                  382 10.0    0.011    0.040  192.812  193.024
 dbcsr_multiply_generic            5731 13.8    0.333    0.541  192.339  192.737
 qs_vxc_create                      393 11.9    0.008    0.010  182.093  182.993
 ot_scf_mini                        382 11.0    0.022    0.040  177.220  177.512
 mp_waitall_1                   1166295 16.7  163.825  176.573  163.825  176.573
 mp_waitany                      127508 14.9  158.689  176.559  158.689  176.559
 multiply_cannon                   5731 14.8    1.717    1.796  146.269  148.593
 mp_alltoall_z22v                  5635 18.4  119.506  134.617  119.506  134.617
 xc_vxc_pw_create                   208 12.8    3.299    4.061  129.003  129.879
 rs_pw_transfer_RS2PW_600           418 12.9   25.226   30.716  118.778  126.730
 xc_rho_set_and_dset_create         393 13.9    1.177    1.364  102.560  105.821
 potential_pw2rs                    208 13.8    0.090    0.128  104.751  104.966
 multiply_cannon_metrocomm3      114620 15.8    0.311    0.336   92.664  101.201
 ot_mini                            382 12.0    0.003    0.004   84.999   85.214
 init_scf_loop                       14  7.9    0.004    0.010   82.186   82.191
 x_to_yz                           2197 18.0    9.150   11.470   74.871   78.456
 yz_to_x                           1632 17.0    6.352    7.983   59.524   67.711
 qs_ks_update_qs_env_forces          11  6.0    0.000    0.000   66.950   66.983
 rs_pw_transfer_PW2RS_600           231 15.4   19.933   22.342   57.688   58.351
 xc_exc_calc                        185 13.0    0.423    0.514   53.082   53.139
 qs_ot_get_derivative               197 13.0    0.002    0.002   51.451   51.652
 mp_alltoall_d11v                  5833 15.8   44.575   51.486   44.575   51.486
 rs_distribute_matrix               613 12.0    0.352    1.032   42.898   49.535
 cp_fm_syevd                        346 14.3    0.002    0.004   45.059   48.037
 qs_ot_get_p                        396 11.9    0.008    0.027   47.158   47.549
 cp_fm_redistribute_end             346 15.3   27.957   44.563   28.423   46.321
 prepare_preconditioner              14  8.9    0.000    0.000   43.883   43.907
 multiply_cannon_metrocomm1      114620 15.8    0.340    0.377   26.943   43.162
 cp_fm_syevd_base                   346 15.2   14.999   40.783   14.999   40.783
 make_preconditioner                 14  9.9    0.003    0.006   39.974   40.001
 make_full_all                       14 10.9    0.005    0.013   37.004   37.034
 mp_sum_d                         14034 14.8   27.287   36.465   27.287   36.465
 apply_preconditioner_dbcsr         211 14.0    0.001    0.001   33.754   33.874
 apply_all                          211 15.0    0.014    0.025   33.753   33.873
 ot_new_cg_direction                197 13.0    0.003    0.005   32.962   32.974
 rs_pw_transfer_RS2PW_200           394 13.0    4.059    4.655   28.311   32.340
 -------------------------------------------------------------------------------

 The number of warnings for this run is : 1
 
 -------------------------------------------------------------------------------
  **** **** ******  **  PROGRAM ENDED AT                 2019-05-23 22:13:59.075
 ***** ** ***  *** **   PROGRAM RAN ON            blg9210.int.ets1.calculquebec.
 **    ****   ******    PROGRAM RAN BY                                       rzk
 ***** **    ** ** **   PROGRAM PROCESS ID                                364626
  **** **  *******  **  PROGRAM STOPPED IN /lustre03/project/6004141/rzk/GaN-car
                                           bene/04-Methanol-decomp/01-CH3-decomp
                                           ose
