 DBCSR| Multiplication driver                                               BLAS
 DBCSR| Multrec recursion limit                                              512
 DBCSR| Multiplication stack size                                           1000
 DBCSR| Maximum elements for images                                    UNLIMITED
 DBCSR| Multiplicative factor virtual images                                   1
 DBCSR| Multiplication size stacks                                             3
 DBCSR| Number of 3D layers                                               SINGLE
 DBCSR| Use MPI memory allocation                                              T
 DBCSR| Use RMA algorithm                                                      F
 DBCSR| Use Communication thread                                               T
 DBCSR| Communication thread load                                             87


  **** **** ******  **  PROGRAM STARTED AT               2019-05-23 12:28:44.543
 ***** ** ***  *** **   PROGRAM STARTED ON        blg5321.int.ets1.calculquebec.
 **    ****   ******    PROGRAM STARTED BY                                   rzk
 ***** **    ** ** **   PROGRAM PROCESS ID                                116274
  **** **  *******  **  PROGRAM STARTED IN /lustre03/project/6004141/rzk/GaN-car
                                           bene/01-Methanol/01-CH3-ads

 CP2K| version string:                    CP2K version 7.0 (Development Version)
 CP2K| source code revision number:                                    svn:18619
 CP2K| cp2kflags: libint fftw3 libxc parallel mpi3 scalapack mkl                
 CP2K| is freely available from                            https://www.cp2k.org/
 CP2K| Program compiled at                          Sun Apr  7 00:48:11 EDT 2019
 CP2K| Program compiled on                      beluga2.int.ets1.calculquebec.ca
 CP2K| Program compiled for                    Beluga-Linux-x86-64-intel-openmpi
 CP2K| Data directory path    /home/rzk/projects/def-rzk/group/cp2k/cp2k-mcgill/
 CP2K| Input file name                                                 start.inp
 
 GLOBAL| Force Environment number                                              1
 GLOBAL| Basis set file name                                        BASIS_MOLOPT
 GLOBAL| Potential file name                                      GTH_POTENTIALS
 GLOBAL| MM Potential file name                                     MM_POTENTIAL
 GLOBAL| Coordinate file name                                      __STD_INPUT__
 GLOBAL| Method name                                                        CP2K
 GLOBAL| Project name                                                       TEST
 GLOBAL| Preferred FFT library                                             FFTW3
 GLOBAL| Preferred diagonalization lib.                                       SL
 GLOBAL| Run type                                                        GEO_OPT
 GLOBAL| All-to-all communication in single precision                          F
 GLOBAL| FFTs using library dependent lengths                                  F
 GLOBAL| Global print level                                               MEDIUM
 GLOBAL| MPI I/O enabled                                                       T
 GLOBAL| Total number of message passing processes                            80
 GLOBAL| Number of threads for this process                                    1
 GLOBAL| This output is from process                                           0
 GLOBAL| CPU model name :  Intel(R) Xeon(R) Gold 6148 CPU @ 2.40GHz

 MEMORY| system memory details [Kb]
 MEMORY|                        rank 0           min           max       average
 MEMORY| MemTotal            196614300     196614300     196614300     196614300
 MEMORY| MemFree             160415772     145765352     160415772     153133235
 MEMORY| Buffers                     0             0            76            38
 MEMORY| Cached                1554188       1554188      29552800      15553494
 MEMORY| Slab                  3030600       3030600       7452424       5241512
 MEMORY| SReclaimable           829720        829720       2288544       1559132
 MEMORY| MemLikelyFree       162799680     162795456     177752312     170245899


 *** Fundamental physical constants (SI units) ***

 *** Literature: B. J. Mohr and B. N. Taylor,
 ***             CODATA recommended values of the fundamental physical
 ***             constants: 2006, Web Version 5.1
 ***             http://physics.nist.gov/constants

 Speed of light in vacuum [m/s]                             2.99792458000000E+08
 Magnetic constant or permeability of vacuum [N/A**2]       1.25663706143592E-06
 Electric constant or permittivity of vacuum [F/m]          8.85418781762039E-12
 Planck constant (h) [J*s]                                  6.62606896000000E-34
 Planck constant (h-bar) [J*s]                              1.05457162825177E-34
 Elementary charge [C]                                      1.60217648700000E-19
 Electron mass [kg]                                         9.10938215000000E-31
 Electron g factor [ ]                                     -2.00231930436220E+00
 Proton mass [kg]                                           1.67262163700000E-27
 Fine-structure constant                                    7.29735253760000E-03
 Rydberg constant [1/m]                                     1.09737315685270E+07
 Avogadro constant [1/mol]                                  6.02214179000000E+23
 Boltzmann constant [J/K]                                   1.38065040000000E-23
 Atomic mass unit [kg]                                      1.66053878200000E-27
 Bohr radius [m]                                            5.29177208590000E-11

 *** Conversion factors ***

 [u] -> [a.u.]                                              1.82288848426455E+03
 [Angstrom] -> [Bohr] = [a.u.]                              1.88972613288564E+00
 [a.u.] = [Bohr] -> [Angstrom]                              5.29177208590000E-01
 [a.u.] -> [s]                                              2.41888432650478E-17
 [a.u.] -> [fs]                                             2.41888432650478E-02
 [a.u.] -> [J]                                              4.35974393937059E-18
 [a.u.] -> [N]                                              8.23872205491840E-08
 [a.u.] -> [K]                                              3.15774647902944E+05
 [a.u.] -> [kJ/mol]                                         2.62549961709828E+03
 [a.u.] -> [kcal/mol]                                       6.27509468713739E+02
 [a.u.] -> [Pa]                                             2.94210107994716E+13
 [a.u.] -> [bar]                                            2.94210107994716E+08
 [a.u.] -> [atm]                                            2.90362800883016E+08
 [a.u.] -> [eV]                                             2.72113838565563E+01
 [a.u.] -> [Hz]                                             6.57968392072181E+15
 [a.u.] -> [1/cm] (wave numbers)                            2.19474631370540E+05
 [a.u./Bohr**2] -> [1/cm]                                   5.14048714338585E+03
 

 CELL_TOP| Volume [angstrom^3]:                                         2519.385
 CELL_TOP| Vector a [angstrom     9.737     0.000     0.000    |a| =       9.737
 CELL_TOP| Vector b [angstrom    -4.859     8.416     0.000    |b| =       9.718
 CELL_TOP| Vector c [angstrom     0.000     0.000    30.744    |c| =      30.744
 CELL_TOP| Angle (b,c), alpha [degree]:                                   90.000
 CELL_TOP| Angle (a,c), beta  [degree]:                                   90.000
 CELL_TOP| Angle (a,b), gamma [degree]:                                  120.000
 CELL_TOP| Numerically orthorhombic:                                          NO
 
 GENERATE|  Preliminary Number of Bonds generated:                             0
 GENERATE|  Achieved consistency in connectivity generation.

 CELL| Volume [angstrom^3]:                                             2519.385
 CELL| Vector a [angstrom]:       9.737     0.000     0.000    |a| =       9.737
 CELL| Vector b [angstrom]:      -4.859     8.416     0.000    |b| =       9.718
 CELL| Vector c [angstrom]:       0.000     0.000    30.744    |c| =      30.744
 CELL| Angle (b,c), alpha [degree]:                                       90.000
 CELL| Angle (a,c), beta  [degree]:                                       90.000
 CELL| Angle (a,b), gamma [degree]:                                      120.000
 CELL| Numerically orthorhombic:                                              NO

 CELL_REF| Volume [angstrom^3]:                                         2432.344
 CELL_REF| Vector a [angstrom     9.558     0.000     0.000    |a| =       9.558
 CELL_REF| Vector b [angstrom    -4.779     8.277     0.000    |b| =       9.558
 CELL_REF| Vector c [angstrom     0.000     0.000    30.744    |c| =      30.744
 CELL_REF| Angle (b,c), alpha [degree]:                                   90.000
 CELL_REF| Angle (a,c), beta  [degree]:                                   90.000
 CELL_REF| Angle (a,b), gamma [degree]:                                  120.000
 CELL_REF| Numerically orthorhombic:                                          NO

 *******************************************************************************
 *******************************************************************************
 **                                                                           **
 **     #####                         ##              ##                      **
 **    ##   ##            ##          ##              ##                      **
 **   ##     ##                       ##            ######                    **
 **   ##     ##  ##   ##  ##   #####  ##  ##   ####   ##    #####    #####    **
 **   ##     ##  ##   ##  ##  ##      ## ##   ##      ##   ##   ##  ##   ##   **
 **   ##  ## ##  ##   ##  ##  ##      ####     ###    ##   ######   ######    **
 **    ##  ###   ##   ##  ##  ##      ## ##      ##   ##   ##       ##        **
 **     #######   #####   ##   #####  ##  ##  ####    ##    #####   ##        **
 **           ##                                                    ##        **
 **                                                                           **
 **                                                ... make the atoms dance   **
 **                                                                           **
 **            Copyright (C) by CP2K developers group (2000 - 2018)           **
 **                                                                           **
 *******************************************************************************

 DFT| Spin restricted Kohn-Sham (RKS) calculation                            RKS
 DFT| Multiplicity                                                             1
 DFT| Number of spin states                                                    1
 DFT| Charge                                                                   0
 DFT| Self-interaction correction (SIC)                                       NO
 DFT| Cutoffs: density                                              1.000000E-10
 DFT|          gradient                                             1.000000E-10
 DFT|          tau                                                  1.000000E-10
 DFT|          cutoff_smoothing_range                               0.000000E+00
 DFT| XC density smoothing                                                  NONE
 DFT| XC derivatives                                                          PW
 FUNCTIONAL| ROUTINE=NEW
 FUNCTIONAL| PBE:
 FUNCTIONAL| J.P.Perdew, K.Burke, M.Ernzerhof, Phys. Rev. Letter, vol. 77, n 18,
 FUNCTIONAL|  pp. 3865-3868, (1996){spin unpolarized}                           
 vdW POTENTIAL|                                                   Pair Potential
 vdW POTENTIAL|          DFT-D3 (Version 3.1)
 vdW POTENTIAL|          Potential Form: S. Grimme et al, JCP 132: 154104 (2010)
 vdW POTENTIAL|          Zero Damping
 vdW POTENTIAL|          Cutoff Radius [Bohr]:                             18.90
 vdW POTENTIAL|          s6 Scaling Factor:                               1.0000
 vdW POTENTIAL|          sr6 Scaling Factor:                              1.2170
 vdW POTENTIAL|          s8 Scaling Factor:                               0.7220
 vdW POTENTIAL|          Cutoff for CN calculation:                   0.1000E-05

 QS| Method:                                                                 GPW
 QS| Density plane wave grid type                        NON-SPHERICAL FULLSPACE
 QS| Number of grid levels:                                                    5
 QS| Density cutoff [a.u.]:                                                600.0
 QS| Multi grid cutoff [a.u.]: 1) grid level                               600.0
 QS|                           2) grid level                               200.0
 QS|                           3) grid level                                66.7
 QS|                           4) grid level                                22.2
 QS|                           5) grid level                                 7.4
 QS| Grid level progression factor:                                          3.0
 QS| Relative density cutoff [a.u.]:                                        20.0
 QS| Consistent realspace mapping and integration 
 QS| Interaction thresholds: eps_pgf_orb:                                1.0E-07
 QS|                         eps_filter_matrix:                          0.0E+00
 QS|                         eps_core_charge:                            1.0E-16
 QS|                         eps_rho_gspace:                             1.0E-14
 QS|                         eps_rho_rspace:                             1.0E-14
 QS|                         eps_gvg_rspace:                             1.0E-07
 QS|                         eps_ppl:                                    1.0E-02
 QS|                         eps_ppnl:                                   1.0E-09


 ATOMIC KIND INFORMATION

  1. Atomic kind: Ga                                    Number of atoms:      72

     Orbital Basis Set                                    DZVP-MOLOPT-SR-GTH-q13

       Number of orbital shell sets:                                           1
       Number of orbital shells:                                               7
       Number of primitive Cartesian functions:                                6
       Number of Cartesian basis functions:                                   30
       Number of spherical basis functions:                                   25
       Norm type:                                                              2

       Normalised Cartesian orbitals:

                        Set   Shell   Orbital            Exponent    Coefficient

                          1       1    2s                7.066654       0.013136
                                                         3.428369      -0.094392
                                                         1.430064       0.265435
                                                         0.571611       0.056465
                                                         0.232197      -0.192187
                                                         0.076562      -0.044987

                          1       2    3s                7.066654      -0.098564
                                                         3.428369       0.010390
                                                         1.430064       0.351249
                                                         0.571611       0.182615
                                                         0.232197      -0.425358
                                                         0.076562       0.190349

                          1       3    3px               7.066654       0.002364
                                                         3.428369       0.019222
                                                         1.430064       0.250132
                                                         0.571611      -0.058486
                                                         0.232197      -0.159451
                                                         0.076562      -0.020696
                          1       3    3py               7.066654       0.002364
                                                         3.428369       0.019222
                                                         1.430064       0.250132
                                                         0.571611      -0.058486
                                                         0.232197      -0.159451
                                                         0.076562      -0.020696
                          1       3    3pz               7.066654       0.002364
                                                         3.428369       0.019222
                                                         1.430064       0.250132
                                                         0.571611      -0.058486
                                                         0.232197      -0.159451
                                                         0.076562      -0.020696

                          1       4    4px               7.066654       0.492448
                                                         3.428369      -0.614736
                                                         1.430064      -0.191654
                                                         0.571611       0.037801
                                                         0.232197       0.302315
                                                         0.076562      -0.071336
                          1       4    4py               7.066654       0.492448
                                                         3.428369      -0.614736
                                                         1.430064      -0.191654
                                                         0.571611       0.037801
                                                         0.232197       0.302315
                                                         0.076562      -0.071336
                          1       4    4pz               7.066654       0.492448
                                                         3.428369      -0.614736
                                                         1.430064      -0.191654
                                                         0.571611       0.037801
                                                         0.232197       0.302315
                                                         0.076562      -0.071336

                          1       5    4dx2              7.066654     -15.264855
                                                         3.428369      -5.345726
                                                         1.430064      -1.022732
                                                         0.571611      -0.123148
                                                         0.232197      -0.006983
                                                         0.076562      -0.000022
                          1       5    4dxy              7.066654     -26.439504
                                                         3.428369      -9.259069
                                                         1.430064      -1.771423
                                                         0.571611      -0.213299
                                                         0.232197      -0.012094
                                                         0.076562      -0.000037
                          1       5    4dxz              7.066654     -26.439504
                                                         3.428369      -9.259069
                                                         1.430064      -1.771423
                                                         0.571611      -0.213299
                                                         0.232197      -0.012094
                                                         0.076562      -0.000037
                          1       5    4dy2              7.066654     -15.264855
                                                         3.428369      -5.345726
                                                         1.430064      -1.022732
                                                         0.571611      -0.123148
                                                         0.232197      -0.006983
                                                         0.076562      -0.000022
                          1       5    4dyz              7.066654     -26.439504
                                                         3.428369      -9.259069
                                                         1.430064      -1.771423
                                                         0.571611      -0.213299
                                                         0.232197      -0.012094
                                                         0.076562      -0.000037
                          1       5    4dz2              7.066654     -15.264855
                                                         3.428369      -5.345726
                                                         1.430064      -1.022732
                                                         0.571611      -0.123148
                                                         0.232197      -0.006983
                                                         0.076562      -0.000022

                          1       6    5dx2              7.066654      -5.739265
                                                         3.428369      -2.129289
                                                         1.430064      -0.700423
                                                         0.571611       0.161606
                                                         0.232197       0.043513
                                                         0.076562       0.011205
                          1       6    5dxy              7.066654      -9.940698
                                                         3.428369      -3.688037
                                                         1.430064      -1.213168
                                                         0.571611       0.279909
                                                         0.232197       0.075368
                                                         0.076562       0.019407
                          1       6    5dxz              7.066654      -9.940698
                                                         3.428369      -3.688037
                                                         1.430064      -1.213168
                                                         0.571611       0.279909
                                                         0.232197       0.075368
                                                         0.076562       0.019407
                          1       6    5dy2              7.066654      -5.739265
                                                         3.428369      -2.129289
                                                         1.430064      -0.700423
                                                         0.571611       0.161606
                                                         0.232197       0.043513
                                                         0.076562       0.011205
                          1       6    5dyz              7.066654      -9.940698
                                                         3.428369      -3.688037
                                                         1.430064      -1.213168
                                                         0.571611       0.279909
                                                         0.232197       0.075368
                                                         0.076562       0.019407
                          1       6    5dz2              7.066654      -5.739265
                                                         3.428369      -2.129289
                                                         1.430064      -0.700423
                                                         0.571611       0.161606
                                                         0.232197       0.043513
                                                         0.076562       0.011205

                          1       7    5fx3              7.066654       0.705879
                                                         3.428369      -0.273976
                                                         1.430064       0.113667
                                                         0.571611       0.132480
                                                         0.232197       0.012437
                                                         0.076562       0.003241
                          1       7    5fx2y             7.066654       1.578393
                                                         3.428369      -0.612629
                                                         1.430064       0.254167
                                                         0.571611       0.296234
                                                         0.232197       0.027811
                                                         0.076562       0.007246
                          1       7    5fx2z             7.066654       1.578393
                                                         3.428369      -0.612629
                                                         1.430064       0.254167
                                                         0.571611       0.296234
                                                         0.232197       0.027811
                                                         0.076562       0.007246
                          1       7    5fxy2             7.066654       1.578393
                                                         3.428369      -0.612629
                                                         1.430064       0.254167
                                                         0.571611       0.296234
                                                         0.232197       0.027811
                                                         0.076562       0.007246
                          1       7    5fxyz             7.066654       2.733856
                                                         3.428369      -1.061105
                                                         1.430064       0.440230
                                                         0.571611       0.513092
                                                         0.232197       0.048170
                                                         0.076562       0.012551
                          1       7    5fxz2             7.066654       1.578393
                                                         3.428369      -0.612629
                                                         1.430064       0.254167
                                                         0.571611       0.296234
                                                         0.232197       0.027811
                                                         0.076562       0.007246
                          1       7    5fy3              7.066654       0.705879
                                                         3.428369      -0.273976
                                                         1.430064       0.113667
                                                         0.571611       0.132480
                                                         0.232197       0.012437
                                                         0.076562       0.003241
                          1       7    5fy2z             7.066654       1.578393
                                                         3.428369      -0.612629
                                                         1.430064       0.254167
                                                         0.571611       0.296234
                                                         0.232197       0.027811
                                                         0.076562       0.007246
                          1       7    5fyz2             7.066654       1.578393
                                                         3.428369      -0.612629
                                                         1.430064       0.254167
                                                         0.571611       0.296234
                                                         0.232197       0.027811
                                                         0.076562       0.007246
                          1       7    5fz3              7.066654       0.705879
                                                         3.428369      -0.273976
                                                         1.430064       0.113667
                                                         0.571611       0.132480
                                                         0.232197       0.012437
                                                         0.076562       0.003241

     GTH Potential information for                                   GTH-PBE-q13

       Description:                       Goedecker-Teter-Hutter pseudopotential
                                           Goedecker et al., PRB 54, 1703 (1996)
                                          Hartwigsen et al., PRB 58, 3641 (1998)
                                                      Krack, TCA 114, 145 (2005)

       Gaussian exponent of the core charge distribution:               2.082466
       Electronic configuration (s p d ...):                           2   1  10

       Parameters of the local part of the GTH pseudopotential:

                          rloc        C1          C2          C3          C4
                        0.490000

       Parameters of the non-local part of the GTH pseudopotential:

                   l      r(l)      h(i,j,l)

                   0    0.416777   10.475690   -4.921768    0.870706
                                   -4.921768    7.770178   -2.248152
                                    0.870706   -2.248152    1.784415
                   1    0.569627    1.777985    0.195860
                                    0.195860   -0.231744
                   2    0.238126  -16.248680

  2. Atomic kind: N                                     Number of atoms:      72

     Orbital Basis Set                                     DZVP-MOLOPT-SR-GTH-q5

       Number of orbital shell sets:                                           1
       Number of orbital shells:                                               5
       Number of primitive Cartesian functions:                                5
       Number of Cartesian basis functions:                                   14
       Number of spherical basis functions:                                   13
       Norm type:                                                              2

       Normalised Cartesian orbitals:

                        Set   Shell   Orbital            Exponent    Coefficient

                          1       1    2s                7.341988       0.360561
                                                         2.542637       0.139177
                                                         0.888575      -0.289383
                                                         0.333802      -0.182244
                                                         0.112012      -0.019197

                          1       2    3s                7.341988       0.282000
                                                         2.542637       0.177875
                                                         0.888575      -0.278381
                                                         0.333802       0.008577
                                                         0.112012       0.154176

                          1       3    3px               7.341988      -1.188719
                                                         2.542637      -0.973969
                                                         0.888575      -0.501079
                                                         0.333802      -0.144894
                                                         0.112012      -0.013986
                          1       3    3py               7.341988      -1.188719
                                                         2.542637      -0.973969
                                                         0.888575      -0.501079
                                                         0.333802      -0.144894
                                                         0.112012      -0.013986
                          1       3    3pz               7.341988      -1.188719
                                                         2.542637      -0.973969
                                                         0.888575      -0.501079
                                                         0.333802      -0.144894
                                                         0.112012      -0.013986

                          1       4    4px               7.341988      -0.094798
                                                         2.542637       0.050069
                                                         0.888575      -0.114797
                                                         0.333802       0.144793
                                                         0.112012       0.066710
                          1       4    4py               7.341988      -0.094798
                                                         2.542637       0.050069
                                                         0.888575      -0.114797
                                                         0.333802       0.144793
                                                         0.112012       0.066710
                          1       4    4pz               7.341988      -0.094798
                                                         2.542637       0.050069
                                                         0.888575      -0.114797
                                                         0.333802       0.144793
                                                         0.112012       0.066710

                          1       5    4dx2              7.341988       1.354688
                                                         2.542637       0.690378
                                                         0.888575       0.855359
                                                         0.333802       0.091746
                                                         0.112012       0.001253
                          1       5    4dxy              7.341988       2.346389
                                                         2.542637       1.195770
                                                         0.888575       1.481524
                                                         0.333802       0.158910
                                                         0.112012       0.002169
                          1       5    4dxz              7.341988       2.346389
                                                         2.542637       1.195770
                                                         0.888575       1.481524
                                                         0.333802       0.158910
                                                         0.112012       0.002169
                          1       5    4dy2              7.341988       1.354688
                                                         2.542637       0.690378
                                                         0.888575       0.855359
                                                         0.333802       0.091746
                                                         0.112012       0.001253
                          1       5    4dyz              7.341988       2.346389
                                                         2.542637       1.195770
                                                         0.888575       1.481524
                                                         0.333802       0.158910
                                                         0.112012       0.002169
                          1       5    4dz2              7.341988       1.354688
                                                         2.542637       0.690378
                                                         0.888575       0.855359
                                                         0.333802       0.091746
                                                         0.112012       0.001253

     GTH Potential information for                                    GTH-PBE-q5

       Description:                       Goedecker-Teter-Hutter pseudopotential
                                           Goedecker et al., PRB 54, 1703 (1996)
                                          Hartwigsen et al., PRB 58, 3641 (1998)
                                                      Krack, TCA 114, 145 (2005)

       Gaussian exponent of the core charge distribution:               6.208322
       Electronic configuration (s p d ...):                               2   3

       Parameters of the local part of the GTH pseudopotential:

                          rloc        C1          C2          C3          C4
                        0.283791  -12.415226    1.868096

       Parameters of the non-local part of the GTH pseudopotential:

                   l      r(l)      h(i,j,l)

                   0    0.255405   13.630263
                   1    0.245495

  3. Atomic kind: H                                     Number of atoms:       4

     Orbital Basis Set                                     DZVP-MOLOPT-SR-GTH-q1

       Number of orbital shell sets:                                           1
       Number of orbital shells:                                               3
       Number of primitive Cartesian functions:                                5
       Number of Cartesian basis functions:                                    5
       Number of spherical basis functions:                                    5
       Norm type:                                                              2

       Normalised Cartesian orbitals:

                        Set   Shell   Orbital            Exponent    Coefficient

                          1       1    2s               10.068468      -0.133023
                                                         2.680223      -0.177618
                                                         0.791502      -0.258419
                                                         0.239116      -0.107525
                                                         0.082193      -0.014019

                          1       2    3s               10.068468       0.344673
                                                         2.680223       1.819821
                                                         0.791502      -0.999069
                                                         0.239116       0.017430
                                                         0.082193       0.082660

                          1       3    3px              10.068468       0.155326
                                                         2.680223       0.367157
                                                         0.791502       0.311480
                                                         0.239116       0.080105
                                                         0.082193       0.033440
                          1       3    3py              10.068468       0.155326
                                                         2.680223       0.367157
                                                         0.791502       0.311480
                                                         0.239116       0.080105
                                                         0.082193       0.033440
                          1       3    3pz              10.068468       0.155326
                                                         2.680223       0.367157
                                                         0.791502       0.311480
                                                         0.239116       0.080105
                                                         0.082193       0.033440

     GTH Potential information for                                    GTH-PBE-q1

       Description:                       Goedecker-Teter-Hutter pseudopotential
                                           Goedecker et al., PRB 54, 1703 (1996)
                                          Hartwigsen et al., PRB 58, 3641 (1998)
                                                      Krack, TCA 114, 145 (2005)

       Gaussian exponent of the core charge distribution:              12.500000
       Electronic configuration (s p d ...):                                   1

       Parameters of the local part of the GTH pseudopotential:

                          rloc        C1          C2          C3          C4
                        0.200000   -4.178900    0.724463

  4. Atomic kind: C                                     Number of atoms:       1

     Orbital Basis Set                                     DZVP-MOLOPT-SR-GTH-q4

       Number of orbital shell sets:                                           1
       Number of orbital shells:                                               5
       Number of primitive Cartesian functions:                                5
       Number of Cartesian basis functions:                                   14
       Number of spherical basis functions:                                   13
       Norm type:                                                              2

       Normalised Cartesian orbitals:

                        Set   Shell   Orbital            Exponent    Coefficient

                          1       1    2s                5.605331       0.322515
                                                         2.113016       0.213043
                                                         0.769911      -0.209686
                                                         0.348157      -0.219794
                                                         0.128212      -0.022789

                          1       2    3s                5.605331       0.552234
                                                         2.113016       0.082072
                                                         0.769911       0.007843
                                                         0.348157       0.136893
                                                         0.128212       0.074283

                          1       3    3px               5.605331      -0.703879
                                                         2.113016      -0.642521
                                                         0.769911      -0.374851
                                                         0.348157      -0.139743
                                                         0.128212      -0.027849
                          1       3    3py               5.605331      -0.703879
                                                         2.113016      -0.642521
                                                         0.769911      -0.374851
                                                         0.348157      -0.139743
                                                         0.128212      -0.027849
                          1       3    3pz               5.605331      -0.703879
                                                         2.113016      -0.642521
                                                         0.769911      -0.374851
                                                         0.348157      -0.139743
                                                         0.128212      -0.027849

                          1       4    4px               5.605331      -0.480376
                                                         2.113016      -0.552894
                                                         0.769911      -0.316145
                                                         0.348157       0.210505
                                                         0.128212       0.076095
                          1       4    4py               5.605331      -0.480376
                                                         2.113016      -0.552894
                                                         0.769911      -0.316145
                                                         0.348157       0.210505
                                                         0.128212       0.076095
                          1       4    4pz               5.605331      -0.480376
                                                         2.113016      -0.552894
                                                         0.769911      -0.316145
                                                         0.348157       0.210505
                                                         0.128212       0.076095

                          1       5    4dx2              5.605331       0.640026
                                                         2.113016       0.274300
                                                         0.769911       0.446711
                                                         0.348157       0.028674
                                                         0.128212       0.029790
                          1       5    4dxy              5.605331       1.108557
                                                         2.113016       0.475102
                                                         0.769911       0.773726
                                                         0.348157       0.049666
                                                         0.128212       0.051599
                          1       5    4dxz              5.605331       1.108557
                                                         2.113016       0.475102
                                                         0.769911       0.773726
                                                         0.348157       0.049666
                                                         0.128212       0.051599
                          1       5    4dy2              5.605331       0.640026
                                                         2.113016       0.274300
                                                         0.769911       0.446711
                                                         0.348157       0.028674
                                                         0.128212       0.029790
                          1       5    4dyz              5.605331       1.108557
                                                         2.113016       0.475102
                                                         0.769911       0.773726
                                                         0.348157       0.049666
                                                         0.128212       0.051599
                          1       5    4dz2              5.605331       0.640026
                                                         2.113016       0.274300
                                                         0.769911       0.446711
                                                         0.348157       0.028674
                                                         0.128212       0.029790

     GTH Potential information for                                    GTH-PBE-q4

       Description:                       Goedecker-Teter-Hutter pseudopotential
                                           Goedecker et al., PRB 54, 1703 (1996)
                                          Hartwigsen et al., PRB 58, 3641 (1998)
                                                      Krack, TCA 114, 145 (2005)

       Gaussian exponent of the core charge distribution:               4.364419
       Electronic configuration (s p d ...):                               2   2

       Parameters of the local part of the GTH pseudopotential:

                          rloc        C1          C2          C3          C4
                        0.338471   -8.803674    1.339211

       Parameters of the non-local part of the GTH pseudopotential:

                   l      r(l)      h(i,j,l)

                   0    0.302576    9.622487
                   1    0.291507

  5. Atomic kind: O                                     Number of atoms:       1

     Orbital Basis Set                                     DZVP-MOLOPT-SR-GTH-q6

       Number of orbital shell sets:                                           1
       Number of orbital shells:                                               5
       Number of primitive Cartesian functions:                                5
       Number of Cartesian basis functions:                                   14
       Number of spherical basis functions:                                   13
       Norm type:                                                              2

       Normalised Cartesian orbitals:

                        Set   Shell   Orbital            Exponent    Coefficient

                          1       1    2s               10.389228       0.396646
                                                         3.849621       0.208811
                                                         1.388401      -0.301641
                                                         0.496955      -0.274061
                                                         0.162492      -0.033677

                          1       2    3s               10.389228       0.303673
                                                         3.849621       0.240943
                                                         1.388401      -0.313066
                                                         0.496955      -0.043055
                                                         0.162492       0.213991

                          1       3    3px              10.389228      -1.530415
                                                         3.849621      -1.371928
                                                         1.388401      -0.761951
                                                         0.496955      -0.253695
                                                         0.162492      -0.035541
                          1       3    3py              10.389228      -1.530415
                                                         3.849621      -1.371928
                                                         1.388401      -0.761951
                                                         0.496955      -0.253695
                                                         0.162492      -0.035541
                          1       3    3pz              10.389228      -1.530415
                                                         3.849621      -1.371928
                                                         1.388401      -0.761951
                                                         0.496955      -0.253695
                                                         0.162492      -0.035541

                          1       4    4px              10.389228      -0.565392
                                                         3.849621      -0.038231
                                                         1.388401      -0.382373
                                                         0.496955       0.179070
                                                         0.162492       0.122714
                          1       4    4py              10.389228      -0.565392
                                                         3.849621      -0.038231
                                                         1.388401      -0.382373
                                                         0.496955       0.179070
                                                         0.162492       0.122714
                          1       4    4pz              10.389228      -0.565392
                                                         3.849621      -0.038231
                                                         1.388401      -0.382373
                                                         0.496955       0.179070
                                                         0.162492       0.122714

                          1       5    4dx2             10.389228       1.867377
                                                         3.849621       0.670994
                                                         1.388401       1.353441
                                                         0.496955       0.273538
                                                         0.162492       0.006620
                          1       5    4dxy             10.389228       3.234392
                                                         3.849621       1.162195
                                                         1.388401       2.344229
                                                         0.496955       0.473781
                                                         0.162492       0.011466
                          1       5    4dxz             10.389228       3.234392
                                                         3.849621       1.162195
                                                         1.388401       2.344229
                                                         0.496955       0.473781
                                                         0.162492       0.011466
                          1       5    4dy2             10.389228       1.867377
                                                         3.849621       0.670994
                                                         1.388401       1.353441
                                                         0.496955       0.273538
                                                         0.162492       0.006620
                          1       5    4dyz             10.389228       3.234392
                                                         3.849621       1.162195
                                                         1.388401       2.344229
                                                         0.496955       0.473781
                                                         0.162492       0.011466
                          1       5    4dz2             10.389228       1.867377
                                                         3.849621       0.670994
                                                         1.388401       1.353441
                                                         0.496955       0.273538
                                                         0.162492       0.006620

     GTH Potential information for                                    GTH-PBE-q6

       Description:                       Goedecker-Teter-Hutter pseudopotential
                                           Goedecker et al., PRB 54, 1703 (1996)
                                          Hartwigsen et al., PRB 58, 3641 (1998)
                                                      Krack, TCA 114, 145 (2005)

       Gaussian exponent of the core charge distribution:               8.360253
       Electronic configuration (s p d ...):                               2   4

       Parameters of the local part of the GTH pseudopotential:

                          rloc        C1          C2          C3          C4
                        0.244554  -16.667215    2.487311

       Parameters of the non-local part of the GTH pseudopotential:

                   l      r(l)      h(i,j,l)

                   0    0.220956   18.337458
                   1    0.211332


 MOLECULE KIND INFORMATION


 All atoms are their own molecule, skipping detailed information


 TOTAL NUMBERS AND MAXIMUM NUMBERS

  Total number of            - Atomic kinds:                                   5
                             - Atoms:                                        150
                             - Shell sets:                                   150
                             - Shells:                                       886
                             - Primitive Cartesian functions:                822
                             - Cartesian basis functions:                   3216
                             - Spherical basis functions:                   2782

  Maximum angular momentum of- Orbital basis functions:                        3
                             - Local part of the GTH pseudopotential:          2
                             - Non-local part of the GTH pseudopotential:      4


 MODULE QUICKSTEP:  ATOMIC COORDINATES IN angstrom

  Atom  Kind  Element       X           Y           Z          Z(eff)       Mass

       1     1 Ga  31    0.000360   -0.002487   -0.587894     13.00      69.7230
       2     2 N    7    0.003347    1.871515    0.566332      5.00      14.0067
       3     1 Ga  31    0.002818    1.839149    2.596260     13.00      69.7230
       4     2 N    7   -0.000026   -0.003698    3.229868      5.00      14.0067
       5     1 Ga  31    0.000554   -0.003207    5.220727     13.00      69.7230
       6     2 N    7    0.003200    1.871609    5.807480      5.00      14.0067
       7     1 Ga  31    0.002713    1.870134    7.805998     13.00      69.7230
       8     2 N    7   -0.000031   -0.003041    8.408967      5.00      14.0067
       9     1 Ga  31   -0.000186   -0.000964   10.406371     13.00      69.7230
      10     2 N    7    0.002660    1.871331   11.010597      5.00      14.0067
      11     1 Ga  31    0.002162    1.877771   13.003938     13.00      69.7230
      12     2 N    7   -0.001053    0.008021   13.608321      5.00      14.0067
      13     1 Ga  31   -0.003586    0.017478   15.611338     13.00      69.7230
      14     2 N    7    0.001984    1.883587   16.265172      5.00      14.0067
      15     1 Ga  31    0.007350    1.895829   18.386242     13.00      69.7230
      16     2 N    7    0.003201    0.000926   18.659710      5.00      14.0067
      17     1 Ga  31   -1.618091    2.802783    0.280660     13.00      69.7230
      18     2 N    7   -1.621656    4.671868    0.566100      5.00      14.0067
      19     1 Ga  31   -1.592904    4.687638    2.595742     13.00      69.7230
      20     2 N    7   -1.619448    2.802043    3.187948      5.00      14.0067
      21     1 Ga  31   -1.618937    2.802725    5.198711     13.00      69.7230
      22     2 N    7   -1.619258    4.672840    5.807515      5.00      14.0067
      23     1 Ga  31   -1.618485    4.673120    7.806158     13.00      69.7230
      24     2 N    7   -1.619979    2.802404    8.410675      5.00      14.0067
      25     1 Ga  31   -1.619583    2.803819   10.405985     13.00      69.7230
      26     2 N    7   -1.612939    4.674395   11.013700      5.00      14.0067
      27     1 Ga  31   -1.608417    4.673976   13.008992     13.00      69.7230
      28     2 N    7   -1.617628    2.805347   13.623149      5.00      14.0067
      29     1 Ga  31   -1.619239    2.804736   15.631565     13.00      69.7230
      30     2 N    7   -1.621860    4.682361   16.214071      5.00      14.0067
      31     1 Ga  31   -1.616308    4.670930   18.295916     13.00      69.7230
      32     2 N    7   -1.622959    2.811046   18.747260      5.00      14.0067
      33     1 Ga  31   -3.238991    5.609007    0.280185     13.00      69.7230
      34     2 N    7   -3.233108    7.478336    0.566128      5.00      14.0067
      35     1 Ga  31   -3.261648    7.493168    2.595995     13.00      69.7230
      36     2 N    7   -3.239588    5.607693    3.188508      5.00      14.0067
      37     1 Ga  31   -3.239269    5.608423    5.199334     13.00      69.7230
      38     2 N    7   -3.233490    7.477896    5.808811      5.00      14.0067
      39     1 Ga  31   -3.234753    7.477734    7.807924     13.00      69.7230
      40     2 N    7   -3.238893    5.607358    8.415191      5.00      14.0067
      41     1 Ga  31   -3.238436    5.608703   10.412584     13.00      69.7230
      42     2 N    7   -3.237007    7.482657   11.012975      5.00      14.0067
      43     1 Ga  31   -3.236686    7.486776   13.008515     13.00      69.7230
      44     2 N    7   -3.236174    5.607466   13.589808      5.00      14.0067
      45     1 Ga  31   -3.236242    5.609858   15.582405     13.00      69.7230
      46     2 N    7   -3.243494    7.481934   16.155652      5.00      14.0067
      47     1 Ga  31   -3.251582    7.489763   18.205733     13.00      69.7230
      48     2 N    7   -3.251198    5.612851   18.596616      5.00      14.0067
      49     1 Ga  31    3.246046   -0.003955    0.280782     13.00      69.7230
      50     2 N    7    3.245382    1.867233    0.565225      5.00      14.0067
      51     1 Ga  31    3.272073    1.881816    2.598031     13.00      69.7230
      52     2 N    7    3.245183   -0.003573    3.187981      5.00      14.0067
      53     1 Ga  31    3.245629   -0.003058    5.198664     13.00      69.7230
      54     2 N    7    3.246202    1.867022    5.807241      5.00      14.0067
      55     1 Ga  31    3.246955    1.866736    7.806095     13.00      69.7230
      56     2 N    7    3.246186   -0.003450    8.412543      5.00      14.0067
      57     1 Ga  31    3.246132   -0.001817   10.408957     13.00      69.7230
      58     2 N    7    3.246422    1.869779   11.014616      5.00      14.0067
      59     1 Ga  31    3.241602    1.869001   13.011485     13.00      69.7230
      60     2 N    7    3.246402   -0.001066   13.623593      5.00      14.0067
      61     1 Ga  31    3.254814    0.000043   15.627316     13.00      69.7230
      62     2 N    7    3.230138    1.881168   16.202750      5.00      14.0067
      63     1 Ga  31    3.233541    1.885488   18.270085     13.00      69.7230
      64     2 N    7    3.237905   -0.007852   18.575037      5.00      14.0067
      65     1 Ga  31    1.624786    2.803278    0.280888     13.00      69.7230
      66     2 N    7    1.633452    4.672437    0.566286      5.00      14.0067
      67     1 Ga  31    1.604475    4.687678    2.595848     13.00      69.7230
      68     2 N    7    1.625708    2.801979    3.188146      5.00      14.0067
      69     1 Ga  31    1.626189    2.802679    5.198983     13.00      69.7230
      70     2 N    7    1.631984    4.672886    5.807609      5.00      14.0067
      71     1 Ga  31    1.630445    4.673166    7.806376     13.00      69.7230
      72     2 N    7    1.626135    2.802315    8.410521      5.00      14.0067
      73     1 Ga  31    1.625762    2.803807   10.405879     13.00      69.7230
      74     2 N    7    1.624428    4.674608   11.012947      5.00      14.0067
      75     1 Ga  31    1.617732    4.674666   13.008104     13.00      69.7230
      76     2 N    7    1.621543    2.806078   13.620734      5.00      14.0067
      77     1 Ga  31    1.620550    2.805986   15.628301     13.00      69.7230
      78     2 N    7    1.632548    4.682252   16.214539      5.00      14.0067
      79     1 Ga  31    1.642439    4.669710   18.296372     13.00      69.7230
      80     2 N    7    1.634737    2.808994   18.747091      5.00      14.0067
      81     1 Ga  31    0.006664    5.608915   -0.585853     13.00      69.7230
      82     2 N    7    0.009483    7.483863    0.566574      5.00      14.0067
      83     1 Ga  31    0.008963    7.450743    2.596037     13.00      69.7230
      84     2 N    7    0.006095    5.607184    3.228726      5.00      14.0067
      85     1 Ga  31    0.006675    5.608134    5.219347     13.00      69.7230
      86     2 N    7    0.009418    7.482791    5.806759      5.00      14.0067
      87     1 Ga  31    0.009027    7.481022    7.805241     13.00      69.7230
      88     2 N    7    0.006193    5.608293    8.407349      5.00      14.0067
      89     1 Ga  31    0.006041    5.610831   10.403930     13.00      69.7230
      90     2 N    7    0.008999    7.480181   11.016630      5.00      14.0067
      91     1 Ga  31    0.008089    7.481358   13.014892     13.00      69.7230
      92     2 N    7    0.004661    5.615077   13.636789      5.00      14.0067
      93     1 Ga  31    0.004787    5.625443   15.648097     13.00      69.7230
      94     2 N    7    0.007134    7.494603   16.229312      5.00      14.0067
      95     1 Ga  31    0.015810    7.470789   18.297690     13.00      69.7230
      96     2 N    7    0.011365    5.587628   18.657261      5.00      14.0067
      97     1 Ga  31    6.491258   -0.003519    0.280651     13.00      69.7230
      98     2 N    7    6.497149    1.867735    0.565198      5.00      14.0067
      99     1 Ga  31    6.470102    1.881958    2.598062     13.00      69.7230
     100     2 N    7    6.491516   -0.003527    3.188074      5.00      14.0067
     101     1 Ga  31    6.492164   -0.003065    5.198712     13.00      69.7230
     102     2 N    7    6.497163    1.867113    5.807093      5.00      14.0067
     103     1 Ga  31    6.495596    1.866802    7.805806     13.00      69.7230
     104     2 N    7    6.490764   -0.003381    8.412331      5.00      14.0067
     105     1 Ga  31    6.490866   -0.001840   10.408800     13.00      69.7230
     106     2 N    7    6.496320    1.869433   11.015090      5.00      14.0067
     107     1 Ga  31    6.499458    1.868210   13.011833     13.00      69.7230
     108     2 N    7    6.488080   -0.001295   13.625235      5.00      14.0067
     109     1 Ga  31    6.479218   -0.001296   15.629768     13.00      69.7230
     110     2 N    7    6.509976    1.877688   16.208351      5.00      14.0067
     111     1 Ga  31    6.519534    1.884775   18.278542     13.00      69.7230
     112     2 N    7    6.505787   -0.007525   18.584359      5.00      14.0067
     113     1 Ga  31    4.871889    2.803069   -0.559252     13.00      69.7230
     114     2 N    7    4.874805    4.676590    0.565258      5.00      14.0067
     115     1 Ga  31    4.874313    4.645974    2.597941     13.00      69.7230
     116     2 N    7    4.871395    2.802090    3.229176      5.00      14.0067
     117     1 Ga  31    4.871933    2.802946    5.220696     13.00      69.7230
     118     2 N    7    4.874741    4.677229    5.809600      5.00      14.0067
     119     1 Ga  31    4.874309    4.675048    7.809448     13.00      69.7230
     120     2 N    7    4.871667    2.800688    8.409624      5.00      14.0067
     121     1 Ga  31    4.871882    2.800447   10.407653     13.00      69.7230
     122     2 N    7    4.874386    4.671207   11.011614      5.00      14.0067
     123     1 Ga  31    4.873623    4.666926   13.006634     13.00      69.7230
     124     2 N    7    4.871198    2.789711   13.614257      5.00      14.0067
     125     1 Ga  31    4.869308    2.783661   15.615531     13.00      69.7230
     126     2 N    7    4.872039    4.674823   16.115264      5.00      14.0067
     127     1 Ga  31    4.880031    4.684568   18.151247     13.00      69.7230
     128     2 N    7    4.874364    2.810854   18.564256      5.00      14.0067
     129     1 Ga  31    3.251808    5.608458    0.280250     13.00      69.7230
     130     2 N    7    3.251160    7.477717    0.566051      5.00      14.0067
     131     1 Ga  31    3.279297    7.492985    2.595984     13.00      69.7230
     132     2 N    7    3.251986    5.607511    3.188427      5.00      14.0067
     133     1 Ga  31    3.252659    5.608277    5.199230     13.00      69.7230
     134     2 N    7    3.252407    7.477780    5.808697      5.00      14.0067
     135     1 Ga  31    3.252750    7.477639    7.807730     13.00      69.7230
     136     2 N    7    3.251445    5.607395    8.415312      5.00      14.0067
     137     1 Ga  31    3.251044    5.608891   10.412750     13.00      69.7230
     138     2 N    7    3.254657    7.482714   11.013486      5.00      14.0067
     139     1 Ga  31    3.252803    7.486261   13.009443     13.00      69.7230
     140     2 N    7    3.246472    5.606835   13.588854      5.00      14.0067
     141     1 Ga  31    3.243271    5.610640   15.581266     13.00      69.7230
     142     2 N    7    3.259363    7.481180   16.158075      5.00      14.0067
     143     1 Ga  31    3.278537    7.489335   18.208218     13.00      69.7230
     144     2 N    7    3.272135    5.613377   18.601627      5.00      14.0067
     145     3 H    1    3.073584    4.877041   20.444384      1.00       1.0079
     146     3 H    1    4.269401    3.064873   20.416490      1.00       1.0079
     147     3 H    1    2.181959    3.237873   20.595512      1.00       1.0079
     148     4 C    6    3.355151    3.722510   20.836851      4.00      12.0107
     149     5 O    8    3.511350    3.785641   22.256892      6.00      15.9994
     150     3 H    1    4.421050    3.584596   22.488468      1.00       1.0079




 SCF PARAMETERS         Density guess:                                    ATOMIC
                        --------------------------------------------------------
                        max_scf:                                             100
                        max_scf_history:                                       0
                        max_diis:                                              4
                        --------------------------------------------------------
                        eps_scf:                                        5.00E-06
                        eps_scf_history:                                0.00E+00
                        eps_diis:                                       1.00E-01
                        eps_eigval:                                     1.00E-05
                        --------------------------------------------------------
                        level_shift [a.u.]:                                 0.00
                        --------------------------------------------------------
                        Outer loop SCF in use 
                        No variables optimised in outer loop
                        eps_scf                                         5.00E-06
                        max_scf                                               10
                        No outer loop optimization
                        step_size                                       5.00E-01

 PW_GRID| Information for grid number                                          1
 PW_GRID| Grid distributed over                                    80 processors
 PW_GRID| Real space group dimensions                                    80    1
 PW_GRID| the grid is blocked:                                                NO
 PW_GRID| Cutoff [a.u.]                                                    600.0
 PW_GRID| spherical cutoff:                                                   NO
 PW_GRID|   Bounds   1           -100      99                Points:         200
 PW_GRID|   Bounds   2           -100      99                Points:         200
 PW_GRID|   Bounds   3           -324     323                Points:         648
 PW_GRID| Volume element (a.u.^3)  0.6333E-03     Volume (a.u.^3)     16414.2734
 PW_GRID| Grid span                                                    FULLSPACE
 PW_GRID|   Distribution                         Average         Max         Min
 PW_GRID|   G-Vectors                           324000.0      324000      324000
 PW_GRID|   G-Rays                                1620.0        1620        1620
 PW_GRID|   Real Space Points                   324000.0      388800      259200

 PW_GRID| Information for grid number                                          2
 PW_GRID| Grid distributed over                                    80 processors
 PW_GRID| Real space group dimensions                                    80    1
 PW_GRID| the grid is blocked:                                                NO
 PW_GRID| Cutoff [a.u.]                                                    200.0
 PW_GRID| spherical cutoff:                                                   NO
 PW_GRID|   Bounds   1            -60      59                Points:         120
 PW_GRID|   Bounds   2            -60      59                Points:         120
 PW_GRID|   Bounds   3           -187     187                Points:         375
 PW_GRID| Volume element (a.u.^3)  0.3040E-02     Volume (a.u.^3)     16414.2734
 PW_GRID| Grid span                                                    FULLSPACE
 PW_GRID|   Distribution                         Average         Max         Min
 PW_GRID|   G-Vectors                            67500.0       68520       66240
 PW_GRID|   G-Rays                                 562.5         571         552
 PW_GRID|   Real Space Points                    67500.0       90000       45000

 PW_GRID| Information for grid number                                          3
 PW_GRID| Grid distributed over                                    80 processors
 PW_GRID| Real space group dimensions                                     8   10
 PW_GRID| the grid is blocked:                                                NO
 PW_GRID| Cutoff [a.u.]                                                     66.7
 PW_GRID| spherical cutoff:                                                   NO
 PW_GRID|   Bounds   1            -36      35                Points:          72
 PW_GRID|   Bounds   2            -36      35                Points:          72
 PW_GRID|   Bounds   3           -108     107                Points:         216
 PW_GRID| Volume element (a.u.^3)  0.1466E-01     Volume (a.u.^3)     16414.2734
 PW_GRID| Grid span                                                    FULLSPACE
 PW_GRID|   Distribution                         Average         Max         Min
 PW_GRID|   G-Vectors                            13996.8       14976       12816
 PW_GRID|   G-Rays                                 194.4         208         178
 PW_GRID|   Real Space Points                    13996.8       15552       13608

 PW_GRID| Information for grid number                                          4
 PW_GRID| Grid distributed over                                    80 processors
 PW_GRID| Real space group dimensions                                     8   10
 PW_GRID| the grid is blocked:                                                NO
 PW_GRID| Cutoff [a.u.]                                                     22.2
 PW_GRID| spherical cutoff:                                                   NO
 PW_GRID|   Bounds   1            -20      19                Points:          40
 PW_GRID|   Bounds   2            -20      19                Points:          40
 PW_GRID|   Bounds   3            -62      62                Points:         125
 PW_GRID| Volume element (a.u.^3)  0.8207E-01     Volume (a.u.^3)     16414.2734
 PW_GRID| Grid span                                                    FULLSPACE
 PW_GRID|   Distribution                         Average         Max         Min
 PW_GRID|   G-Vectors                             2500.0        2960        2040
 PW_GRID|   G-Rays                                  62.5          74          51
 PW_GRID|   Real Space Points                     2500.0        2500        2500

 PW_GRID| Information for grid number                                          5
 PW_GRID| Grid distributed over                                    80 processors
 PW_GRID| Real space group dimensions                                     8   10
 PW_GRID| the grid is blocked:                                                NO
 PW_GRID| Cutoff [a.u.]                                                      7.4
 PW_GRID| spherical cutoff:                                                   NO
 PW_GRID|   Bounds   1            -12      11                Points:          24
 PW_GRID|   Bounds   2            -12      11                Points:          24
 PW_GRID|   Bounds   3            -36      35                Points:          72
 PW_GRID| Volume element (a.u.^3)  0.3958         Volume (a.u.^3)     16414.2734
 PW_GRID| Grid span                                                    FULLSPACE
 PW_GRID|   Distribution                         Average         Max         Min
 PW_GRID|   G-Vectors                              518.4         648         240
 PW_GRID|   G-Rays                                  21.6          27          10
 PW_GRID|   Real Space Points                      518.4         648         432

 POISSON| Solver                                                        PERIODIC
 POISSON| Periodicity                                                        XYZ

 RS_GRID| Information for grid number                                          1
 RS_GRID|   Bounds   1           -100      99                Points:         200
 RS_GRID|   Bounds   2           -100      99                Points:         200
 RS_GRID|   Bounds   3           -324     323                Points:         648
 RS_GRID| Real space distribution over                                 80 groups
 RS_GRID| Real space distribution along direction                              3
 RS_GRID| Border size                                                         73
 RS_GRID|   Distribution                         Average         Max         Min
 RS_GRID|   Planes                                 154.1         155         154

 RS_GRID| Information for grid number                                          2
 RS_GRID|   Bounds   1            -60      59                Points:         120
 RS_GRID|   Bounds   2            -60      59                Points:         120
 RS_GRID|   Bounds   3           -187     187                Points:         375
 RS_GRID| Real space distribution over                                 80 groups
 RS_GRID| Real space distribution along direction                              3
 RS_GRID| Border size                                                         45
 RS_GRID|   Distribution                         Average         Max         Min
 RS_GRID|   Planes                                  94.7          95          94

 RS_GRID| Information for grid number                                          3
 RS_GRID|   Bounds   1            -36      35                Points:          72
 RS_GRID|   Bounds   2            -36      35                Points:          72
 RS_GRID|   Bounds   3           -108     107                Points:         216
 RS_GRID| Real space fully replicated
 RS_GRID| Group size                                                           1

 RS_GRID| Information for grid number                                          4
 RS_GRID|   Bounds   1            -20      19                Points:          40
 RS_GRID|   Bounds   2            -20      19                Points:          40
 RS_GRID|   Bounds   3            -62      62                Points:         125
 RS_GRID| Real space fully replicated
 RS_GRID| Group size                                                           1

 RS_GRID| Information for grid number                                          5
 RS_GRID|   Bounds   1            -12      11                Points:          24
 RS_GRID|   Bounds   2            -12      11                Points:          24
[...]
     112     N        2          5.455522                             -0.455522
     113     Ga       1         12.637718                              0.362282
     114     N        2          5.522492                             -0.522492
     115     Ga       1         12.461533                              0.538467
     116     N        2          5.569478                             -0.569478
     117     Ga       1         12.412663                              0.587337
     118     N        2          5.592401                             -0.592401
     119     Ga       1         12.408269                              0.591731
     120     N        2          5.594701                             -0.594701
     121     Ga       1         12.406167                              0.593833
     122     N        2          5.593548                             -0.593548
     123     Ga       1         12.411778                              0.588222
     124     N        2          5.591567                             -0.591567
     125     Ga       1         12.457695                              0.542305
     126     N        2          5.581519                             -0.581519
     127     Ga       1         12.389591                              0.610409
     128     N        2          5.498139                             -0.498139
     129     Ga       1         12.492879                              0.507121
     130     N        2          5.518854                             -0.518854
     131     Ga       1         12.458557                              0.541443
     132     N        2          5.605364                             -0.605364
     133     Ga       1         12.420800                              0.579200
     134     N        2          5.591323                             -0.591323
     135     Ga       1         12.409739                              0.590261
     136     N        2          5.592414                             -0.592414
     137     Ga       1         12.405256                              0.594744
     138     N        2          5.592775                             -0.592775
     139     Ga       1         12.420902                              0.579098
     140     N        2          5.592308                             -0.592308
     141     Ga       1         12.452072                              0.547928
     142     N        2          5.581326                             -0.581326
     143     Ga       1         12.372375                              0.627625
     144     N        2          5.503413                             -0.503413
     145     H        3          0.910478                              0.089522
     146     H        3          0.912042                              0.087958
     147     H        3          0.899224                              0.100776
     148     C        4          4.088275                             -0.088275
     149     O        5          6.150343                             -0.150343
     150     H        3          0.823861                              0.176139
 # Total charge                           1310.000000                 -0.000000

 !-----------------------------------------------------------------------------!

 !-----------------------------------------------------------------------------!
                           Hirshfeld Charges

  #Atom  Element  Kind  Ref Charge     Population                    Net charge
      1       Ga     1      13.000         13.598                        -0.598
      2       N      2       5.000          4.159                         0.841
      3       Ga     1      13.000         13.843                        -0.843
      4       N      2       5.000          4.109                         0.891
      5       Ga     1      13.000         13.873                        -0.873
      6       N      2       5.000          4.134                         0.866
      7       Ga     1      13.000         13.865                        -0.865
      8       N      2       5.000          4.134                         0.866
      9       Ga     1      13.000         13.867                        -0.867
     10       N      2       5.000          4.132                         0.868
     11       Ga     1      13.000         13.874                        -0.874
     12       N      2       5.000          4.137                         0.863
     13       Ga     1      13.000         13.880                        -0.880
     14       N      2       5.000          4.160                         0.840
     15       Ga     1      13.000         14.002                        -1.002
     16       N      2       5.000          4.199                         0.801
     17       Ga     1      13.000         13.669                        -0.669
     18       N      2       5.000          4.157                         0.843
     19       Ga     1      13.000         13.844                        -0.844
     20       N      2       5.000          4.145                         0.855
     21       Ga     1      13.000         13.862                        -0.862
     22       N      2       5.000          4.134                         0.866
     23       Ga     1      13.000         13.866                        -0.866
     24       N      2       5.000          4.133                         0.867
     25       Ga     1      13.000         13.868                        -0.868
     26       N      2       5.000          4.135                         0.865
     27       Ga     1      13.000         13.869                        -0.869
     28       N      2       5.000          4.137                         0.863
     29       Ga     1      13.000         13.890                        -0.890
     30       N      2       5.000          4.141                         0.859
     31       Ga     1      13.000         14.011                        -1.011
     32       N      2       5.000          4.211                         0.789
     33       Ga     1      13.000         13.669                        -0.669
     34       N      2       5.000          4.159                         0.841
     35       Ga     1      13.000         13.843                        -0.843
     36       N      2       5.000          4.146                         0.854
     37       Ga     1      13.000         13.862                        -0.862
     38       N      2       5.000          4.134                         0.866
     39       Ga     1      13.000         13.866                        -0.866
     40       N      2       5.000          4.133                         0.867
     41       Ga     1      13.000         13.866                        -0.866
     42       N      2       5.000          4.134                         0.866
     43       Ga     1      13.000         13.864                        -0.864
     44       N      2       5.000          4.131                         0.869
     45       Ga     1      13.000         13.885                        -0.885
     46       N      2       5.000          4.129                         0.871
     47       Ga     1      13.000         14.020                        -1.020
     48       N      2       5.000          4.226                         0.774
     49       Ga     1      13.000         13.669                        -0.669
     50       N      2       5.000          4.152                         0.848
     51       Ga     1      13.000         13.844                        -0.844
     52       N      2       5.000          4.146                         0.854
     53       Ga     1      13.000         13.862                        -0.862
     54       N      2       5.000          4.134                         0.866
     55       Ga     1      13.000         13.865                        -0.865
     56       N      2       5.000          4.133                         0.867
     57       Ga     1      13.000         13.866                        -0.866
     58       N      2       5.000          4.134                         0.866
     59       Ga     1      13.000         13.868                        -0.868
     60       N      2       5.000          4.135                         0.865
     61       Ga     1      13.000         13.885                        -0.885
     62       N      2       5.000          4.130                         0.870
     63       Ga     1      13.000         14.094                        -1.094
     64       N      2       5.000          4.195                         0.805
     65       Ga     1      13.000         13.669                        -0.669
     66       N      2       5.000          4.157                         0.843
     67       Ga     1      13.000         13.844                        -0.844
     68       N      2       5.000          4.146                         0.854
     69       Ga     1      13.000         13.862                        -0.862
     70       N      2       5.000          4.134                         0.866
     71       Ga     1      13.000         13.867                        -0.867
     72       N      2       5.000          4.133                         0.867
     73       Ga     1      13.000         13.867                        -0.867
     74       N      2       5.000          4.136                         0.864
     75       Ga     1      13.000         13.863                        -0.863
     76       N      2       5.000          4.135                         0.865
     77       Ga     1      13.000         13.884                        -0.884
     78       N      2       5.000          4.126                         0.874
     79       Ga     1      13.000         14.095                        -1.095
     80       N      2       5.000          4.215                         0.785
     81       Ga     1      13.000         13.600                        -0.600
     82       N      2       5.000          4.157                         0.843
     83       Ga     1      13.000         13.844                        -0.844
     84       N      2       5.000          4.110                         0.890
     85       Ga     1      13.000         13.873                        -0.873
     86       N      2       5.000          4.133                         0.867
     87       Ga     1      13.000         13.866                        -0.866
     88       N      2       5.000          4.134                         0.866
     89       Ga     1      13.000         13.868                        -0.868
     90       N      2       5.000          4.134                         0.866
     91       Ga     1      13.000         13.873                        -0.873
     92       N      2       5.000          4.138                         0.862
     93       Ga     1      13.000         13.883                        -0.883
     94       N      2       5.000          4.152                         0.848
     95       Ga     1      13.000         13.997                        -0.997
     96       N      2       5.000          4.195                         0.805
     97       Ga     1      13.000         13.669                        -0.669
     98       N      2       5.000          4.152                         0.848
     99       Ga     1      13.000         13.843                        -0.843
    100       N      2       5.000          4.146                         0.854
    101       Ga     1      13.000         13.862                        -0.862
    102       N      2       5.000          4.134                         0.866
    103       Ga     1      13.000         13.867                        -0.867
    104       N      2       5.000          4.132                         0.868
    105       Ga     1      13.000         13.869                        -0.869
    106       N      2       5.000          4.134                         0.866
    107       Ga     1      13.000         13.865                        -0.865
    108       N      2       5.000          4.138                         0.862
    109       Ga     1      13.000         13.885                        -0.885
    110       N      2       5.000          4.135                         0.865
    111       Ga     1      13.000         14.010                        -1.010
    112       N      2       5.000          4.195                         0.805
    113       Ga     1      13.000         13.624                        -0.624
    114       N      2       5.000          4.151                         0.849
    115       Ga     1      13.000         13.844                        -0.844
    116       N      2       5.000          4.110                         0.890
    117       Ga     1      13.000         13.874                        -0.874
    118       N      2       5.000          4.135                         0.865
    119       Ga     1      13.000         13.865                        -0.865
    120       N      2       5.000          4.135                         0.865
    121       Ga     1      13.000         13.865                        -0.865
    122       N      2       5.000          4.132                         0.868
    123       Ga     1      13.000         13.867                        -0.867
    124       N      2       5.000          4.129                         0.871
    125       Ga     1      13.000         13.892                        -0.892
    126       N      2       5.000          4.119                         0.881
    127       Ga     1      13.000         14.195                        -1.195
    128       N      2       5.000          4.269                         0.731
    129       Ga     1      13.000         13.669                        -0.669
    130       N      2       5.000          4.159                         0.841
    131       Ga     1      13.000         13.843                        -0.843
    132       N      2       5.000          4.146                         0.854
    133       Ga     1      13.000         13.862                        -0.862
    134       N      2       5.000          4.134                         0.866
    135       Ga     1      13.000         13.866                        -0.866
    136       N      2       5.000          4.133                         0.867
    137       Ga     1      13.000         13.864                        -0.864
    138       N      2       5.000          4.133                         0.867
    139       Ga     1      13.000         13.870                        -0.870
    140       N      2       5.000          4.128                         0.872
    141       Ga     1      13.000         13.896                        -0.896
    142       N      2       5.000          4.140                         0.860
    143       Ga     1      13.000         14.035                        -1.035
    144       N      2       5.000          4.276                         0.724
    145       H      3       1.000          0.506                         0.494
    146       H      3       1.000          0.514                         0.486
    147       H      3       1.000          0.549                         0.451
    148       C      4       4.000          4.627                        -0.627
    149       O      5       6.000          6.674                        -0.674
    150       H      3       1.000          0.428                         0.572

  Total Charge                                                            0.001
 !-----------------------------------------------------------------------------!

 ENERGY| Total FORCE_EVAL ( QS ) energy (a.u.):            -6112.542964144954567


 --------  Informations at step =    52 ------------
  Optimization Method        =                 BFGS
  Total Energy               =     -6112.5429641450
  Real energy change         =        -0.0000454874
  Predicted change in energy =        -0.0004776514
  Scaling factor             =         0.2318538955
  Step size                  =         0.4724315332
  Trust radius               =         0.4724315332
  Decrease in energy         =                  YES
  Used time                  =              144.764

  Convergence check :
  Max. step size             =         0.4724315332
  Conv. limit for step size  =         0.0030000000
  Convergence in step size   =                   NO
  RMS step size              =         0.0489320394
  Conv. limit for RMS step   =         0.0015000000
  Convergence in RMS step    =                   NO
  Max. gradient              =         0.0176315901
  Conv. limit for gradients  =         0.0004500000
  Conv. for gradients        =                   NO
  RMS gradient               =         0.0014314541
  Conv. limit for RMS grad.  =         0.0003000000
  Conv. for gradients        =                   NO
 ---------------------------------------------------

 --------------------------
 OPTIMIZATION STEP:     53
 --------------------------

 Number of electrons:                                                       1310
 Number of occupied orbitals:                                                655
 Number of molecular orbitals:                                               655

 Number of orbital functions:                                               2782
 Number of independent orbital functions:                                   2782

 Parameters for the always stable predictor-corrector (ASPC) method:

  ASPC order: 3

  B(1) =   3.000000
  B(2) =  -3.428571
  B(3) =   1.928571
  B(4) =  -0.571429
  B(5) =   0.071429

 Extrapolation method: ASPC


 SCF WAVEFUNCTION OPTIMIZATION

  ----------------------------------- OT ---------------------------------------
  Minimizer      : CG                  : conjugate gradient
  Preconditioner : FULL_ALL            : diagonalization, state selective
  Precond_solver : DEFAULT
  Line search    : 2PNT                : 2 energies, one gradient
  stepsize       :    0.15000000                  energy_gap     :    0.08000000
  eps_taylor     :   0.10000E-15                  max_taylor     :             4
  ----------------------------------- OT ---------------------------------------

  Step     Update method      Time    Convergence         Total energy    Change
  ------------------------------------------------------------------------------
     1 OT CG       0.15E+00    9.6     0.00022679     -6112.5329025125 -6.11E+03
     2 OT LS       0.16E+00    2.6                    -6112.5401983238
     3 OT CG       0.16E+00    5.4     0.00021406     -6112.5402150542 -7.31E-03
     4 OT LS       0.61E-01    2.5                    -6112.5364401427
     5 OT CG       0.61E-01    5.7     0.00008084     -6112.5427881737 -2.57E-03
     6 OT LS       0.55E-01    2.7                    -6112.5431165391
     7 OT CG       0.55E-01    5.2     0.00003996     -6112.5431194260 -3.31E-04
     8 OT LS       0.63E-01    2.4                    -6112.5432096609
     9 OT CG       0.63E-01    5.3     0.00002179     -6112.5432109692 -9.15E-05
    10 OT LS       0.11E+00    2.4                    -6112.5432497287
    11 OT CG       0.11E+00    5.7     0.00002014     -6112.5432580672 -4.71E-05
    12 OT LS       0.17E+00    2.3                    -6112.5433129713
    13 OT CG       0.17E+00    5.3     0.00001839     -6112.5433214840 -6.34E-05
    14 OT LS       0.10E+00    2.4                    -6112.5433400755
    15 OT CG       0.10E+00    5.5     0.00001658     -6112.5433535745 -3.21E-05
    16 OT LS       0.93E-01    2.4                    -6112.5433764938
    17 OT CG       0.93E-01    5.3     0.00001116     -6112.5433768639 -2.33E-05
    18 OT LS       0.83E-01    2.4                    -6112.5433861011
    19 OT CG       0.83E-01    5.3     0.00000876     -6112.5433862458 -9.38E-06
    20 OT LS       0.12E+00    2.4                    -6112.5433939380
