     150
 i =        1, E =     -6112.5232740188
 Ga         0.0004148280       -0.0025494702       -0.5870062531
  N         0.0033572997        1.8711964101        0.5653634642
 Ga         0.0029077514        1.8391609458        2.5962777381
  N        -0.0001078244       -0.0036520419        3.2294162520
 Ga         0.0005069144       -0.0031891167        5.2208556782
  N         0.0032105005        1.8716739936        5.8074147706
 Ga         0.0028336076        1.8702056908        7.8061151702
  N        -0.0000230054       -0.0029525372        8.4082958766
 Ga         0.0000083741       -0.0007795060       10.4058152995
  N         0.0028266136        1.8715049119       11.0092492532
 Ga         0.0022130665        1.8762169838       13.0020108082
  N         0.0013411700        0.0085397730       13.6088597268
 Ga        -0.0028986749        0.0153129822       15.6108978064
  N         0.0155447899        1.8820009436       16.2603867147
 Ga         0.0060858365        1.8908811212       18.3762063499
  N         0.0025922988       -0.0006348542       18.6717319619
 Ga        -1.6182217114        2.8027982766        0.2831576612
  N        -1.6210909564        4.6721669833        0.5653588810
 Ga        -1.5928453165        4.6876598805        2.5958777558
  N        -1.6193308728        2.8020402693        3.1874426981
 Ga        -1.6189635605        2.8027177357        5.1988955642
  N        -1.6192461609        4.6728529328        5.8073595739
 Ga        -1.6185804830        4.6732168652        7.8061553211
  N        -1.6200041908        2.8024456169        8.4099241031
 Ga        -1.6192622790        2.8040266384       10.4052721236
  N        -1.6134180486        4.6745970852       11.0141149266
 Ga        -1.6082688906        4.6735048114       13.0099900208
  N        -1.6162892094        2.8042329143       13.6274538289
 Ga        -1.6162152202        2.8057599730       15.6380674983
  N        -1.6263882545        4.6823151978       16.2085749348
 Ga        -1.6162685762        4.6657559492       18.2870078394
  N        -1.6207899525        2.8086200399       18.7554956112
 Ga        -3.2389761929        5.6088668054        0.2826703079
  N        -3.2333686260        7.4784785713        0.5652310415
 Ga        -3.2617030551        7.4932405230        2.5961707669
  N        -3.2394868734        5.6077371275        3.1879553105
 Ga        -3.2392818599        5.6084334496        5.1994714043
  N        -3.2334931809        7.4779509037        5.8087505943
 Ga        -3.2349078113        7.4776885845        7.8080213849
  N        -3.2389687581        5.6073457354        8.4142141725
 Ga        -3.2385405801        5.6088040805       10.4113461144
  N        -3.2369623076        7.4823631501       11.0133764968
 Ga        -3.2355921321        7.4868861617       13.0091587711
  N        -3.2371680866        5.6071111517       13.5913144021
 Ga        -3.2352171591        5.6111949173       15.5821429660
  N        -3.2430196402        7.4805635815       16.1548147011
 Ga        -3.2507210015        7.4879482795       18.2060577476
  N        -3.2469078542        5.6134706349       18.6100686443
 Ga         3.2460834036       -0.0039137192        0.2831130687
  N         3.2457653926        1.8674112213        0.5647642220
 Ga         3.2719697818        1.8818291698        2.5982651998
  N         3.2452785891       -0.0036724841        3.1873597717
 Ga         3.2455484581       -0.0030534389        5.1986832133
  N         3.2461770075        1.8670551597        5.8071275028
 Ga         3.2467846923        1.8669409938        7.8060473388
  N         3.2460677168       -0.0033417576        8.4117508695
 Ga         3.2458846078       -0.0017244377       10.4081564154
  N         3.2463671222        1.8697966376       11.0148855455
 Ga         3.2413834498        1.8693079364       13.0112334658
  N         3.2482326204        0.0001038430       13.6271759527
 Ga         3.2565680322       -0.0033026349       15.6313265591
  N         3.2273867126        1.8779541985       16.1889193885
 Ga         3.2380637912        1.8741524009       18.2370730040
  N         3.2359412899       -0.0040636772       18.5912244247
 Ga         1.6248772869        2.8032759902        0.2833190275
  N         1.6328837400        4.6727381940        0.5654626532
 Ga         1.6044438524        4.6877308247        2.5959759812
  N         1.6256355607        2.8020411285        3.1875850975
 Ga         1.6261491814        2.8026016398        5.1990250268
  N         1.6319787734        4.6728580581        5.8073986953
 Ga         1.6304878022        4.6732001372        7.8063840079
  N         1.6261557635        2.8023997858        8.4102197195
 Ga         1.6257611881        2.8043675756       10.4056415858
  N         1.6248034479        4.6746713790       11.0150346035
 Ga         1.6177890778        4.6739162967       13.0106233545
  N         1.6208536780        2.8045637068       13.6169950682
 Ga         1.6220023125        2.8146927476       15.6177178124
  N         1.6294258027        4.6808042178       16.1958842876
 Ga         1.6225541485        4.6773262414       18.2440148579
  N         1.6447705331        2.8166681499       18.7687536328
 Ga         0.0065699247        5.6087833627       -0.5859574028
  N         0.0094952743        7.4833050596        0.5657695190
 Ga         0.0089656996        7.4506127287        2.5961564934
  N         0.0060699731        5.6071689925        3.2282899030
 Ga         0.0066215374        5.6081472409        5.2194566406
  N         0.0094483543        7.4829110243        5.8066381200
 Ga         0.0089449089        7.4809638804        7.8053233818
  N         0.0061093672        5.6082141298        8.4068404754
 Ga         0.0063972067        5.6101878755       10.4037056033
  N         0.0089632627        7.4801875751       11.0170768524
 Ga         0.0079285530        7.4796659680       13.0159168538
  N         0.0042262515        5.6131758320       13.6371066506
 Ga         0.0051752394        5.6203433759       15.6468874975
  N         0.0121968844        7.4883725180       16.2343880298
 Ga         0.0123898336        7.4739906740       18.3030197891
  N         0.0076892845        5.5930482611       18.6623336489
 Ga         6.4911541422       -0.0034694054        0.2830762366
  N         6.4967819360        1.8679213195        0.5647942087
 Ga         6.4701835203        1.8820305789        2.5983214436
  N         6.4915481632       -0.0036390590        3.1873875213
 Ga         6.4921804763       -0.0030748256        5.1986782145
  N         6.4971672632        1.8670393072        5.8069739235
 Ga         6.4956052047        1.8670106560        7.8058020530
  N         6.4907559473       -0.0032754692        8.4116501922
 Ga         6.4912953606       -0.0019766782       10.4082463977
  N         6.4958503018        1.8699326666       11.0149598233
 Ga         6.4997479300        1.8686988840       13.0120849694
  N         6.4886009672       -0.0007556876       13.6265655142
 Ga         6.4840252233       -0.0070613329       15.6316627665
  N         6.4971234046        1.8791406238       16.1918229377
 Ga         6.5249148224        1.8817799440       18.2602283944
  N         6.5056281464       -0.0036576479       18.5945441996
 Ga         4.8719727567        2.8030747973       -0.5608865768
  N         4.8748387024        4.6762077839        0.5648230362
 Ga         4.8742971024        4.6460744747        2.5982479618
  N         4.8713552227        2.8020252771        3.2286493531
 Ga         4.8719554371        2.8029118857        5.2207271422
  N         4.8747201335        4.6772443837        5.8094359268
 Ga         4.8742898914        4.6752673567        7.8094024049
  N         4.8715493617        2.8007703236        8.4088949649
 Ga         4.8712626762        2.8010693440       10.4067979147
  N         4.8745485339        4.6716303013       11.0114988309
 Ga         4.8718119466        4.6683039269       13.0058931339
  N         4.8703877415        2.7923104814       13.6162702264
 Ga         4.8636346631        2.7944705066       15.6150094635
  N         4.8664774735        4.6855604815       16.1126093658
 Ga         4.8943673726        4.6802238567       18.1353553925
  N         4.8792230961        2.8072497292       18.5757995684
 Ga         3.2517728783        5.6082502929        0.2828128008
  N         3.2513659375        7.4778228126        0.5651214441
 Ga         3.2794576910        7.4929980841        2.5960811675
  N         3.2518555756        5.6076144576        3.1879454516
 Ga         3.2526663594        5.6083583464        5.1994490485
  N         3.2523304175        7.4778807603        5.8086674941
 Ga         3.2529381199        7.4775534008        7.8078929064
  N         3.2514360966        5.6073394327        8.4147744984
 Ga         3.2507729766        5.6086244718       10.4122267574
  N         3.2550982901        7.4824846800       11.0134803271
 Ga         3.2543359592        7.4879869970       13.0095149298
  N         3.2455725517        5.6088728381       13.5882195345
 Ga         3.2360603079        5.6084247602       15.5747080689
  N         3.2628191278        7.4732777529       16.1640749193
 Ga         3.2736993066        7.4861604158       18.2155331743
  N         3.2722722322        5.5958560791       18.6332321306
  H         3.1631820011        4.7765484974       20.4031924847
  H         4.1398831113        3.1773868957       20.3596139220
  H         2.2870516433        3.2315855853       20.5414740311
  C         3.3014989226        3.7235027304       20.9560251619
  O         3.4892848630        3.8236078612       22.3480314214
  H         4.4251092107        3.5673297888       22.4732288572
     150
 i =        2, E =     -6112.5304346629
 Ga         0.0004657956       -0.0026120564       -0.5873941166
  N         0.0033794331        1.8711140362        0.5657870881
 Ga         0.0028833218        1.8390729102        2.5968121336
  N        -0.0001225406       -0.0036721228        3.2297517010
 Ga         0.0004349978       -0.0031500103        5.2210462819
  N         0.0032885076        1.8717399473        5.8067622397
 Ga         0.0029150539        1.8703215090        7.8058151565
  N         0.0000177391       -0.0029851366        8.4084572959
 Ga         0.0004620371       -0.0008534461       10.4064174854
  N         0.0026039318        1.8714033647       11.0077725007
 Ga         0.0012021432        1.8743377709       13.0002971883
  N         0.0028510143        0.0081865211       13.6080458675
 Ga        -0.0004411114        0.0122280362       15.6112569309
  N         0.0210784792        1.8788490342       16.2660221083
 Ga         0.0085571433        1.8835023265       18.3807280503
  N         0.0010338917       -0.0038346464       18.6758122117
 Ga        -1.6183505751        2.8026967783        0.2830423931
  N        -1.6209266205        4.6722242414        0.5659419929
 Ga        -1.5926622117        4.6877753584        2.5964936538
  N        -1.6193570083        2.8020427013        3.1874413475
 Ga        -1.6189041125        2.8027326056        5.1989121565
  N        -1.6192355896        4.6728936101        5.8066326792
 Ga        -1.6185513948        4.6734057378        7.8057605058
  N        -1.6200648356        2.8025350187        8.4104290096
 Ga        -1.6196546992        2.8042283366       10.4064190899
  N        -1.6135921114        4.6745114882       11.0141503739
 Ga        -1.6093826914        4.6720068586       13.0104436524
  N        -1.6154109465        2.8028262805       13.6252560621
 Ga        -1.6148627591        2.8069599140       15.6368818978
  N        -1.6327592064        4.6782544587       16.2127992349
 Ga        -1.6166991692        4.6617962139       18.2903315429
  N        -1.6178176981        2.8033104706       18.7452652096
 Ga        -3.2390741837        5.6087488977        0.2826006346
  N        -3.2334578681        7.4785349097        0.5656291201
 Ga        -3.2617692522        7.4933118000        2.5966883321
  N        -3.2394559484        5.6077375538        3.1879641839
 Ga        -3.2392354671        5.6084766024        5.1994899359
  N        -3.2335302128        7.4780228806        5.8079430655
 Ga        -3.2348847335        7.4777011846        7.8074656986
  N        -3.2390233236        5.6074112873        8.4147482339
 Ga        -3.2382707640        5.6089561426       10.4125404230
  N        -3.2365761654        7.4825377461       11.0136668766
 Ga        -3.2347831215        7.4865678302       13.0098337216
  N        -3.2374423642        5.6073635656       13.5897333168
 Ga        -3.2338534110        5.6133487227       15.5801195838
  N        -3.2403767713        7.4801155047       16.1608697457
 Ga        -3.2500537326        7.4868618626       18.2136810028
  N        -3.2430424664        5.6149768069       18.6126825896
 Ga         3.2461230628       -0.0038775433        0.2829696436
  N         3.2458459184        1.8674761083        0.5655081612
 Ga         3.2721947318        1.8818951729        2.5987837546
  N         3.2453136185       -0.0037312388        3.1874008916
 Ga         3.2455517761       -0.0031141630        5.1987317427
  N         3.2460749675        1.8670571286        5.8064183158
 Ga         3.2466470624        1.8670285964        7.8056245433
  N         3.2460566950       -0.0033148408        8.4122708690
 Ga         3.2461938204       -0.0019300828       10.4090408972
  N         3.2464155205        1.8695014122       11.0143608777
 Ga         3.2432241300        1.8680866150       13.0103237998
  N         3.2505494394       -0.0005930362       13.6266181810
 Ga         3.2580293255       -0.0058241444       15.6315969050
  N         3.2266284366        1.8757969593       16.1843586174
 Ga         3.2440717267        1.8639875669       18.2166453486
  N         3.2348240375       -0.0007468405       18.5940397143
 Ga         1.6249645252        2.8032162066        0.2829895589
  N         1.6326804443        4.6728102168        0.5660684477
 Ga         1.6042866633        4.6878873303        2.5966450731
  N         1.6256354225        2.8020327601        3.1875146136
 Ga         1.6261021304        2.8026959727        5.1989730938
  N         1.6319589149        4.6728888407        5.8067011888
 Ga         1.6304331165        4.6733470138        7.8058853663
  N         1.6262012395        2.8026398502        8.4108625616
 Ga         1.6257175127        2.8044745556       10.4068267406
  N         1.6249688025        4.6749234777       11.0135646856
 Ga         1.6170879601        4.6747837650       13.0088537281
  N         1.6211485999        2.8038448036       13.6076975393
 Ga         1.6192408315        2.8155518335       15.6046886670
  N         1.6267089730        4.6785183249       16.1801777201
 Ga         1.6082378953        4.6834258173       18.2055115872
  N         1.6558551334        2.8224430499       18.7701046567
 Ga         0.0065256426        5.6087502077       -0.5871345277
  N         0.0095074832        7.4830467681        0.5662516064
 Ga         0.0089733319        7.4504699146        2.5966493492
  N         0.0060462129        5.6072345486        3.2286897943
 Ga         0.0066286318        5.6081540672        5.2196263563
  N         0.0094473957        7.4829433686        5.8060684266
 Ga         0.0089686194        7.4809188398        7.8050573540
  N         0.0061592548        5.6082167841        8.4076833770
 Ga         0.0061045913        5.6100117040       10.4051531180
  N         0.0091410323        7.4800771822       11.0169543642
 Ga         0.0091321071        7.4793359797       13.0155535086
  N         0.0027364284        5.6121976759       13.6325044490
 Ga         0.0002193908        5.6164087263       15.6421420383
  N         0.0168479720        7.4835329550       16.2464305371
 Ga         0.0099167782        7.4781479528       18.3209697986
  N         0.0055748173        5.5979065439       18.6544125701
 Ga         6.4910812090       -0.0034051422        0.2830110523
  N         6.4966634413        1.8679885024        0.5656102648
 Ga         6.4700457000        1.8820834930        2.5988369484
  N         6.4915478654       -0.0037070423        3.1873740863
 Ga         6.4921646957       -0.0031644580        5.1986771829
  N         6.4971878639        1.8670302674        5.8062714534
 Ga         6.4955884394        1.8669889921        7.8054953295
  N         6.4906800255       -0.0032871598        8.4125704450
 Ga         6.4912030843       -0.0016561465       10.4096885872
  N         6.4957267137        1.8700685847       11.0166326617
 Ga         6.4992119060        1.8688218345       13.0146204760
  N         6.4900202791       -0.0012428283       13.6253143820
 Ga         6.4862905805       -0.0098770223       15.6313164681
  N         6.4889483962        1.8803299408       16.1852943423
 Ga         6.5262696157        1.8773642742       18.2515183770
  N         6.5074833508       -0.0014053026       18.5978502153
 Ga         4.8720718855        2.8030759099       -0.5637312753
  N         4.8748367553        4.6760432878        0.5656139398
 Ga         4.8743096234        4.6459437068        2.5987741276
  N         4.8713829154        2.8020158715        3.2290926006
 Ga         4.8718903737        2.8029133692        5.2208635077
  N         4.8747009059        4.6773610759        5.8086189268
 Ga         4.8742027752        4.6755079325        7.8089082121
  N         4.8714226494        2.8008881322        8.4095886099
 Ga         4.8714064420        2.8012149384       10.4081888213
  N         4.8744372687        4.6721592533       11.0097587888
 Ga         4.8719389858        4.6703952228       13.0032916240
  N         4.8690930409        2.7969222208       13.6113116162
 Ga         4.8626241462        2.8006745735       15.6079280066
  N         4.8626397409        4.6911179856       16.1163133084
 Ga         4.9061173907        4.6774199184       18.1285069610
  N         4.8821320825        2.8062152834       18.5746190803
 Ga         3.2518195812        5.6080970429        0.2826525209
  N         3.2514386446        7.4778449642        0.5655154684
 Ga         3.2795919081        7.4931031807        2.5965715735
  N         3.2518431423        5.6076850851        3.1879523637
 Ga         3.2525436610        5.6083964731        5.1994652583
  N         3.2523206068        7.4779018652        5.8080640147
 Ga         3.2528701787        7.4775932091        7.8076080540
  N         3.2512823324        5.6073638706        8.4152461732
 Ga         3.2506577655        5.6089786603       10.4131692932
  N         3.2554192621        7.4829447317       11.0120581690
 Ga         3.2552209884        7.4897918914       13.0076041514
  N         3.2451464505        5.6105659659       13.5832000971
 Ga         3.2336609126        5.6102164640       15.5667865460
  N         3.2636571282        7.4702192015       16.1798842323
 Ga         3.2698861738        7.4802924333       18.2349442382
  N         3.2733247355        5.5780677729       18.6602207378
  H         3.1900657255        4.7567606850       20.4219104163
  H         4.0905854368        3.2237716621       20.4089757342
  H         2.3345314576        3.2409981324       20.5798692204
  C         3.2737397649        3.7448875549       20.9155793418
  O         3.4933350363        3.8160981442       22.2949457575
  H         4.4099822683        3.5591160290       22.5005334503
     150
 i =        3, E =     -6112.5322943149
 Ga         0.0004897441       -0.0026421713       -0.5870786764
  N         0.0033827703        1.8711677839        0.5659431588
 Ga         0.0028669810        1.8390597385        2.5966515387
  N        -0.0001178840       -0.0036694981        3.2298929172
 Ga         0.0004125556       -0.0031307979        5.2210285291
  N         0.0032867175        1.8717947554        5.8071353435
 Ga         0.0028070549        1.8704169426        7.8063079090
  N         0.0001371470       -0.0030554156        8.4077689228
 Ga         0.0007881825       -0.0009904064       10.4053773626
  N         0.0022279559        1.8710787886       11.0069134609
 Ga         0.0002324427        1.8730566024       12.9994591421
  N         0.0029326039        0.0071846359       13.6110939920
 Ga         0.0000131955        0.0104345644       15.6158876444
  N         0.0189203386        1.8767422780       16.2699038289
 Ga         0.0061761701        1.8767319903       18.3838639801
  N         0.0023164275       -0.0071387748       18.6778255370
 Ga        -1.6183269818        2.8026308795        0.2828800643
  N        -1.6211223284        4.6720982358        0.5660987276
 Ga        -1.5926223115        4.6877960181        2.5963170163
  N        -1.6194207631        2.8019990367        3.1875034233
 Ga        -1.6189421634        2.8027274706        5.1988137249
  N        -1.6192740702        4.6729123425        5.8069856936
 Ga        -1.6185911751        4.6733937986        7.8062084330
  N        -1.6202277160        2.8025378760        8.4102903111
 Ga        -1.6202342190        2.8040176848       10.4061691447
  N        -1.6137274753        4.6741919273       11.0131392646
 Ga        -1.6103888254        4.6710336821       13.0093248290
  N        -1.6155109530        2.8022703871       13.6244247046
 Ga        -1.6149653747        2.8071247319       15.6357864874
  N        -1.6343933236        4.6746362592       16.2166150224
 Ga        -1.6165556878        4.6618330863       18.2952679061
  N        -1.6164918507        2.8013861209       18.7343564617
 Ga        -3.2391080934        5.6087595182        0.2824568098
  N        -3.2334126933        7.4784985141        0.5657922263
 Ga        -3.2617736509        7.4933325668        2.5965238695
  N        -3.2395221556        5.6077059544        3.1879900808
 Ga        -3.2392632685        5.6084722985        5.1993454542
  N        -3.2335065255        7.4780256845        5.8081604774
 Ga        -3.2347630659        7.4777305218        7.8076732398
  N        -3.2389781987        5.6075614444        8.4144064527
 Ga        -3.2379485254        5.6092272171       10.4121081125
  N        -3.2362936484        7.4828404869       11.0133301933
 Ga        -3.2343212149        7.4867482504       13.0095136342
  N        -3.2371847094        5.6080263798       13.5908041680
 Ga        -3.2331950285        5.6141247070       15.5821316215
  N        -3.2382567374        7.4814433428       16.1646696003
 Ga        -3.2484007038        7.4855222927       18.2191987086
  N        -3.2434223915        5.6139835190       18.6102717057
 Ga         3.2460844154       -0.0039166148        0.2827924547
  N         3.2456481048        1.8673613871        0.5655632961
 Ga         3.2723811129        1.8819842926        2.5984569375
  N         3.2453029679       -0.0036438254        3.1874701493
 Ga         3.2455863553       -0.0030964541        5.1986577375
  N         3.2460668915        1.8670689060        5.8068687145
 Ga         3.2467597529        1.8670353933        7.8062032042
  N         3.2460722341       -0.0033847709        8.4120868069
 Ga         3.2466102590       -0.0022011188       10.4086021283
  N         3.2468552400        1.8691465300       11.0131635921
 Ga         3.2445614918        1.8673255756       13.0087492510
  N         3.2518616231       -0.0011617495       13.6266297478
 Ga         3.2587429150       -0.0062784066       15.6316965973
  N         3.2272721618        1.8759227902       16.1847915401
 Ga         3.2481079848        1.8641079940       18.2139503472
  N         3.2354856998        0.0016352754       18.5912508573
 Ga         1.6249334252        2.8031707789        0.2827668707
  N         1.6328529128        4.6726891134        0.5662473205
 Ga         1.6042519690        4.6879179848        2.5964973007
  N         1.6256999117        2.8019811884        3.1875450926
 Ga         1.6261126052        2.8027097612        5.1988561426
  N         1.6319546405        4.6729163894        5.8071182708
 Ga         1.6303532355        4.6734369364        7.8064399500
  N         1.6262083642        2.8026410358        8.4106443143
 Ga         1.6257789187        2.8042154833       10.4066484863
  N         1.6249550495        4.6753119857       11.0111232834
 Ga         1.6166718545        4.6756997398       13.0059012136
  N         1.6213961156        2.8037051954       13.6037918305
 Ga         1.6158090394        2.8114050562       15.6001925058
  N         1.6253563778        4.6771420734       16.1727053212
 Ga         1.6096215131        4.6815635159       18.1954767968
  N         1.6536798191        2.8184332512       18.7439538748
 Ga         0.0065239135        5.6087314436       -0.5870992788
  N         0.0094983176        7.4832246440        0.5663864974
 Ga         0.0089758430        7.4504556755        2.5964519364
  N         0.0060454650        5.6072439402        3.2288665221
 Ga         0.0066059156        5.6081889941        5.2196138421
  N         0.0094423338        7.4829675982        5.8065433250
 Ga         0.0090728749        7.4810194809        7.8056087968
  N         0.0060308756        5.6083098257        8.4074831592
 Ga         0.0056191829        5.6102894443       10.4048517612
  N         0.0095804833        7.4801856275       11.0165046012
 Ga         0.0102334863        7.4797486553       13.0146409690
  N         0.0014842368        5.6121404501       13.6303013797
 Ga        -0.0039545181        5.6168166059       15.6397989353
  N         0.0169443116        7.4822108625       16.2511212350
 Ga         0.0100718144        7.4794642304       18.3296468624
  N         0.0082937923        5.5979304706       18.6461535881
 Ga         6.4911101100       -0.0034484761        0.2828616417
  N         6.4968535206        1.8678690362        0.5657365599
 Ga         6.4698929332        1.8821567771        2.5985590119
  N         6.4915516188       -0.0036402863        3.1874539812
 Ga         6.4921362988       -0.0031386140        5.1986177842
  N         6.4971838523        1.8670485446        5.8066599691
 Ga         6.4955363043        1.8669663639        7.8059301600
  N         6.4906362846       -0.0031545816        8.4125274139
 Ga         6.4910562902       -0.0011866747       10.4093338680
  N         6.4956399075        1.8699113418       11.0172932908
 Ga         6.4991964113        1.8683015691       13.0153755632
  N         6.4909467758       -0.0018593639       13.6267384715
 Ga         6.4849876582       -0.0119346541       15.6332889675
  N         6.4884369715        1.8784201453       16.1842983929
 Ga         6.5298876006        1.8728592286       18.2480267178
  N         6.5082206701       -0.0018043439       18.6019464058
 Ga         4.8721049846        2.8030672276       -0.5637406075
  N         4.8748176436        4.6762363704        0.5657152715
 Ga         4.8743238088        4.6457632753        2.5984607548
  N         4.8713772497        2.8020168143        3.2293838441
 Ga         4.8718871354        2.8029284407        5.2208807149
  N         4.8747045429        4.6774010646        5.8090058764
 Ga         4.8742404190        4.6755156266        7.8093934429
  N         4.8715070129        2.8009206220        8.4094760605
 Ga         4.8718668159        2.8011277437       10.4079964134
  N         4.8744051086        4.6726031374       11.0077132325
 Ga         4.8727472006        4.6716531985       13.0005532005
  N         4.8690902825        2.7992729288       13.6078011994
 Ga         4.8643280569        2.8005231079       15.6035975945
  N         4.8615777554        4.6903043173       16.1190617474
 Ga         4.9065267083        4.6761947857       18.1298907748
  N         4.8884877771        2.8033487986       18.5558778182
 Ga         3.2518155051        5.6081134365        0.2824244388
  N         3.2514099952        7.4778087443        0.5656479356
 Ga         3.2796091851        7.4931403454        2.5963696274
  N         3.2519243245        5.6076590937        3.1879802040
 Ga         3.2525500032        5.6084273838        5.1993419264
  N         3.2522923061        7.4779342773        5.8084344623
 Ga         3.2527059436        7.4777941120        7.8080421901
  N         3.2512783435        5.6075280268        8.4145446637
 Ga         3.2506922598        5.6095466436       10.4122188045
  N         3.2555018259        7.4835769151       11.0106023551
 Ga         3.2552177373        7.4908720908       13.0054393417
  N         3.2454557495        5.6116173094       13.5812960820
 Ga         3.2345621164        5.6128099097       15.5649448954
  N         3.2621893281        7.4705785231       16.1893964263
 Ga         3.2698045985        7.4828063084       18.2462690045
  N         3.2729189848        5.5783928594       18.6541436856
  H         3.1839773143        4.7644129717       20.4338453426
  H         4.1030999375        3.2215321281       20.4075201358
  H         2.3317214650        3.2564665121       20.6120016963
  C         3.2950204429        3.7536111844       20.9251803743
  O         3.4730413058        3.8208493334       22.3103891124
  H         4.3936593278        3.5556234271       22.4929664639
     150
 i =        4, E =     -6112.5338684172
 Ga         0.0005435638       -0.0027039084       -0.5861159456
  N         0.0033832707        1.8712677059        0.5660114196
 Ga         0.0028619192        1.8390527729        2.5963503237
  N        -0.0001358117       -0.0036484619        3.2301964371
 Ga         0.0003881170       -0.0030448963        5.2210944000
  N         0.0032340203        1.8719094526        5.8075666473
 Ga         0.0026395988        1.8706262627        7.8065701535
  N         0.0004370781       -0.0031319699        8.4061302091