     156
 i =        1, E =     -6136.6213146076
 Ga        -0.0031979550       -0.0157636791       -0.5349797959
  N        -0.0002856270        1.8585380768        0.6065135989
 Ga        -0.0003421424        1.8278895577        2.6381432329
  N        -0.0034132092       -0.0156277995        3.2696079826
 Ga        -0.0021913732       -0.0150481127        5.2603582806
  N         0.0008087930        1.8596046647        5.8482135628
 Ga         0.0022289537        1.8581576499        7.8481127308
  N         0.0007947158       -0.0150552559        8.4504112782
 Ga         0.0037936934       -0.0153434042       10.4497030349
  N         0.0041523968        1.8599964135       11.0438334587
 Ga         0.0091500784        1.8628878358       13.0353307968
  N         0.0155355736       -0.0097553248       13.6295807843
 Ga         0.0284342252       -0.0098002662       15.6204468541
  N         0.0148598102        1.8570056715       16.2251807854
 Ga         0.0442456491        1.8442270664       18.2881458895
  N         0.0508977858       -0.0306115061       18.7037644103
 Ga        -1.6231742209        2.7900778998        0.3240867846
  N        -1.6247134229        4.6598014452        0.6069148156
 Ga        -1.5957372542        4.6757287293        2.6368071661
  N        -1.6229652168        2.7899303226        3.2283241734
 Ga        -1.6217439565        2.7906084780        5.2399036490
  N        -1.6212905498        4.6609116635        5.8464635222
 Ga        -1.6191457974        4.6614012185        7.8451087333
  N        -1.6203770821        2.7917895198        8.4509759235
 Ga        -1.6191990532        2.7951159253       10.4470743671
  N        -1.6174215998        4.6667528540       11.0553010247
 Ga        -1.6180672830        4.6708216561       13.0526002035
  N        -1.6091846034        2.8002118889       13.6555642961
 Ga        -1.5965415412        2.8138620367       15.6579743120
  N        -1.5868456237        4.6815867547       16.3075565541
 Ga        -1.5166301983        4.6825880491       18.3849861052
  N        -1.5540608115        2.7885923792       18.7644868228
 Ga        -3.2436266506        5.5953485365        0.3240138000
  N        -3.2373471919        7.4661221947        0.6067390133
 Ga        -3.2643349107        7.4807941638        2.6382581076
  N        -3.2426882121        5.5952400225        3.2286525965
 Ga        -3.2419058712        5.5960208782        5.2400950820
  N        -3.2358304050        7.4662987906        5.8469301290
 Ga        -3.2359052096        7.4670750356        7.8460193312
  N        -3.2399013171        5.5961632119        8.4492357485
 Ga        -3.2388060527        5.5971930809       10.4446563309
  N        -3.2308132981        7.4657949132       11.0554815961
 Ga        -3.2221916655        7.4630979388       13.0536561801
  N        -3.2339572211        5.5984095148       13.6941515676
 Ga        -3.2228139484        5.5928051080       15.7307253447
  N        -3.2131317502        7.4794375856       16.2641830275
 Ga        -3.1833511880        7.4486562747       18.3236492797
  N        -3.1683902820        5.5848630921       18.8535870465
 Ga         3.2427724821       -0.0154220054        0.3243683716
  N         3.2412098019        1.8546753787        0.6064261439
 Ga         3.2695526796        1.8704235045        2.6371953799
  N         3.2426388189       -0.0154137206        3.2283079832
 Ga         3.2439818275       -0.0146450289        5.2399659730
  N         3.2446072003        1.8555056907        5.8474460591
 Ga         3.2470263360        1.8562634700        7.8468247200
  N         3.2449082249       -0.0147278183        8.4495749790
 Ga         3.2477732292       -0.0139888554       10.4451043089
  N         3.2513981136        1.8569012355       11.0513420868
 Ga         3.2582352820        1.8541844577       13.0485056103
  N         3.2570702099       -0.0166151340       13.6602601900
 Ga         3.2727548816       -0.0167279657       15.6661403352
  N         3.2825832077        1.8600743772       16.2242467414
 Ga         3.3174881638        1.8611797605       18.2482144611
  N         3.3096123044       -0.0262908434       18.7046961475
 Ga         1.6222295646        2.7907799808        0.3239862485
  N         1.6291974894        4.6604387533        0.6072083161
 Ga         1.6011685716        4.6758597724        2.6371395772
  N         1.6227423675        2.7900689829        3.2290599149
 Ga         1.6242259481        2.7909359155        5.2409177883
  N         1.6297157568        4.6611561799        5.8483595800
 Ga         1.6301225729        4.6614844142        7.8481717053
  N         1.6260421856        2.7902643937        8.4493853100
 Ga         1.6293063312        2.7916244608       10.4448980944
  N         1.6277015775        4.6623020245       11.0487482431
 Ga         1.6292568536        4.6633879291       13.0437691718
  N         1.6322703170        2.7874517976       13.6464143865
 Ga         1.6476958555        2.7792546391       15.6409832969
  N         1.6325481620        4.6642721196       16.1834647210
 Ga         1.6801978334        4.6396953513       18.1829595531
  N         1.6840910499        2.7760091132       18.6418872208
 Ga         0.0031096168        5.5957695826       -0.5472822426
  N         0.0059468738        7.4706542405        0.6068906446
 Ga         0.0060571761        7.4383262525        2.6368950332
  N         0.0030012719        5.5951907136        3.2696115541
 Ga         0.0046726587        5.5961958647        5.2597992507
  N         0.0074563881        7.4707127283        5.8476760723
 Ga         0.0088636161        7.4693363565        7.8471387524
  N         0.0049378512        5.5957258035        8.4470978591
 Ga         0.0065147750        5.5972019316       10.4442695887
  N         0.0117318821        7.4693344142       11.0457945305
 Ga         0.0147800721        7.4716878997       13.0382829522
  N         0.0064101380        5.6021890321       13.6463683291
 Ga         0.0049602950        5.6022052744       15.6423135380
  N         0.0359518549        7.4634724736       16.2731948426
 Ga         0.0780092243        7.4301040744       18.3598357835
  N         0.1443554966        5.5771675117       18.9137123872
 Ga         6.4870714208       -0.0149868018        0.3235907019
  N         6.4935736896        1.8551212618        0.6060802328
 Ga         6.4661420729        1.8702552976        2.6369831582
  N         6.4881894710       -0.0153478882        3.2289000286
 Ga         6.4897616739       -0.0146627591        5.2408206522
  N         6.4945330379        1.8558741170        5.8478903885
 Ga         6.4944898192        1.8569098283        7.8474029787
  N         6.4909730905       -0.0136091585        8.4511827155
 Ga         6.4944599390       -0.0111806357       10.4476917103
  N         6.4966419852        1.8610180016       11.0533173201
 Ga         6.5002077919        1.8658349815       13.0503032887
  N         6.4900844725       -0.0072575289       13.6400853555
 Ga         6.5065718371        0.0015494253       15.6416342286
  N         6.5198947513        1.8764084786       16.2258056825
 Ga         6.5720449263        1.8789766051       18.2667854346
  N         6.5642723972       -0.0195915005       18.6545566349
 Ga         4.8675694355        2.7916282002       -0.5415262905
  N         4.8709710570        4.6646629292        0.6069598616
 Ga         4.8708136800        4.6333348610        2.6374531447
  N         4.8682893099        2.7899269759        3.2692838398
 Ga         4.8695670345        2.7911305255        5.2595423032
  N         4.8721793045        4.6652058656        5.8480566113
 Ga         4.8727939714        4.6639521838        7.8476634269
  N         4.8709247228        2.7914023334        8.4503375537
 Ga         4.8737996446        2.7953216435       10.4497208572
  N         4.8796870764        4.6660266377       11.0586620468
 Ga         4.8823909761        4.6695603049       13.0612221523
  N         4.8753368708        2.7952728231       13.6532003256
 Ga         4.8848482927        2.8002596664       15.6652385240
  N         4.8645152316        4.6718781506       16.1718840231
 Ga         4.9211074748        4.6629787434       19.1291497696
  N         4.9382938167        2.7856278970       18.7422734013
 Ga         3.2487688807        5.5948444944        0.3235487898
  N         3.2479807358        7.4655186966        0.6062165184
 Ga         3.2755928803        7.4806573443        2.6378004640
  N         3.2486117104        5.5954811200        3.2290712248
 Ga         3.2500025348        5.5963700518        5.2406934500
  N         3.2504707062        7.4661763770        5.8493297880
 Ga         3.2531554805        7.4666727363        7.8496193309
  N         3.2514524472        5.5959878597        8.4548210338
 Ga         3.2549753057        5.5975752044       10.4538202412
  N         3.2566281019        7.4713848036       11.0515569443
 Ga         3.2579316211        7.4723874346       13.0487201940
  N         3.2490582676        5.5970133636       13.6315131240
 Ga         3.2594452276        5.6067158249       15.6376204666
  N         3.2803142725        7.4891396430       16.1567914041
 Ga         3.3291181487        7.4925504959       18.1706979349
  N         3.3620527862        5.5713646287       18.4695457412
  O         1.8273727178        4.9594249749       21.1631613240
  H         1.0647162936        5.3647362883       20.5625016206
  C         0.8960198845        4.0479073370       21.8473877616
  H         0.1427854355        3.5620993027       21.2034680488
  H         1.5347841285        3.2245437745       22.1817136270
  H         0.3343017104        4.3682301179       22.7402640805
  O         4.0512516375        4.7113613371       21.0611902679
  H         3.0261205999        4.8797788461       21.1173730612
  C         4.5388598851        3.6274328905       21.9207303621
  H         4.1240880480        2.6744515276       21.5650097377
  H         5.6307219255        3.5050595512       21.9648469667
  H         4.1840591089        3.8066654192       22.9433202489
     156
 i =        2, E =     -6136.6452538490
 Ga        -0.0031990413       -0.0158072525       -0.5387298952
  N        -0.0002603171        1.8585393823        0.6070792433
 Ga        -0.0003028172        1.8279766155        2.6382702540
  N        -0.0033627356       -0.0156099535        3.2697697637
 Ga        -0.0021548497       -0.0150456387        5.2603962154
  N         0.0008485808        1.8597049940        5.8484335938
 Ga         0.0023474054        1.8581836274        7.8483632042
  N         0.0008758373       -0.0150144830        8.4504415162
 Ga         0.0038109744       -0.0156924883       10.4496216963
  N         0.0043324840        1.8600187527       11.0422385545
 Ga         0.0098930171        1.8620516826       13.0329382723
  N         0.0155452210       -0.0088092463       13.6342678105
 Ga         0.0312149579       -0.0199440947       15.6266980761
  N         0.0216503144        1.8572756576       16.2197324697
 Ga         0.0449992474        1.8478396333       18.2849729895
  N         0.0469657287       -0.0248026654       18.6981261073
 Ga        -1.6229936092        2.7898410070        0.3240110851
  N        -1.6247408078        4.6597613181        0.6066466443
 Ga        -1.5957186542        4.6757121133        2.6367358481
  N        -1.6230552217        2.7899743272        3.2283130964
 Ga        -1.6217509382        2.7906530462        5.2398389005
  N        -1.6212412182        4.6609179968        5.8466374603
 Ga        -1.6190888052        4.6616284935        7.8453540800
  N        -1.6203669940        2.7918702636        8.4511948429
 Ga        -1.6194361321        2.7954025256       10.4472259342
  N        -1.6175388818        4.6668616905       11.0553564001
 Ga        -1.6183461095        4.6712038084       13.0530840915
  N        -1.6067768235        2.7997103322       13.6598121200
 Ga        -1.6012040493        2.8164264568       15.6645876429
  N        -1.5860768171        4.6839424007       16.3127729157
 Ga        -1.5127449226        4.6828881941       18.3903574630
  N        -1.5532185081        2.7880706557       18.7553313884
 Ga        -3.2437211061        5.5955977189        0.3239266092
  N        -3.2372973405        7.4661158331        0.6073264404
 Ga        -3.2642148734        7.4807206527        2.6384251886
  N        -3.2426585720        5.5950631650        3.2286654347
 Ga        -3.2418960330        5.5960120192        5.2400957596
  N        -3.2357424355        7.4663204778        5.8470721808
 Ga        -3.2358203574        7.4670718850        7.8461959612
  N        -3.2398870612        5.5962231408        8.4496297141
 Ga        -3.2389863746        5.5972610557       10.4451838494
  N        -3.2308962804        7.4659090303       11.0555876795
 Ga        -3.2221128828        7.4628743872       13.0544979422
  N        -3.2361430593        5.5970481788       13.6925128640
 Ga        -3.2227274039        5.5916559636       15.7298138935
  N        -3.2071314744        7.4722971120       16.2720745195
 Ga        -3.1883430060        7.4453923491       18.3298800730
  N        -3.1657553584        5.5812331697       18.8556504678
 Ga         3.2425307026       -0.0154537143        0.3242996846
  N         3.2415292864        1.8548393115        0.6064059828
 Ga         3.2696258202        1.8704251591        2.6372887240
  N         3.2428014044       -0.0153333671        3.2283136782
 Ga         3.2440586089       -0.0145892371        5.2399530336
  N         3.2446681919        1.8555481901        5.8475944838
 Ga         3.2471661916        1.8563034484        7.8469430901
  N         3.2448688229       -0.0146053456        8.4498870949
 Ga         3.2477537013       -0.0140737235       10.4454827016
  N         3.2517443748        1.8569862008       11.0513494096
 Ga         3.2585771976        1.8538470768       13.0487548998
  N         3.2573760355       -0.0165827182       13.6600625262
 Ga         3.2690034369       -0.0189777696       15.6659531752
  N         3.2838112763        1.8535036854       16.2328572306
 Ga         3.3211956790        1.8612171721       18.2585052377
  N         3.3049473256       -0.0259082072       18.7163549942
 Ga         1.6221063640        2.7905507093        0.3239319528
  N         1.6292853494        4.6603935501        0.6069789838
 Ga         1.6012371948        4.6758335152        2.6370970816
  N         1.6229190955        2.7900914547        3.2290574070
 Ga         1.6243320004        2.7909859369        5.2408708106
  N         1.6297359756        4.6611612753        5.8485325474
 Ga         1.6302704552        4.6616851703        7.8484484223
  N         1.6261961797        2.7903401065        8.4496538297
 Ga         1.6297202314        2.7921805450       10.4451516891
  N         1.6278592540        4.6624747889       11.0487932996
 Ga         1.6287787055        4.6648539751       13.0444608680
  N         1.6316635837        2.7876690625       13.6467408684
 Ga         1.6560341954        2.7858666045       15.6410006254
  N         1.6276826872        4.6647514511       16.1821564262
 Ga         1.6769618876        4.6404046749       18.1785644204
  N         1.6841141189        2.7783166505       18.6324988474
 Ga         0.0031607731        5.5957533578       -0.5459486936
  N         0.0059725054        7.4706983166        0.6066505558
 Ga         0.0060940591        7.4383409015        2.6368365260
  N         0.0030394203        5.5951854414        3.2694427138
 Ga         0.0047241355        5.5962224279        5.2597329740
  N         0.0074905504        7.4707247314        5.8479438379
 Ga         0.0089315280        7.4693633366        7.8475600579
  N         0.0050068736        5.5956896313        8.4475888021
 Ga         0.0066903641        5.5972439565       10.4449682814
  N         0.0116863679        7.4694823382       11.0448981702
 Ga         0.0151532859        7.4717373668       13.0371050666
  N         0.0055103369        5.6029914218       13.6445427619
 Ga         0.0067222524        5.6016014338       15.6403965509
  N         0.0381781594        7.4668649366       16.2666448567
 Ga         0.0703099834        7.4295511836       18.3550526481
  N         0.1455866438        5.5800219824       18.9244841084
 Ga         6.4873672036       -0.0150234001        0.3235320988
  N         6.4933143544        1.8552788983        0.6060755811
 Ga         6.4661462378        1.8702620290        2.6370850984
  N         6.4880857561       -0.0152511119        3.2289407961
 Ga         6.4897921502       -0.0146132882        5.2408598718
  N         6.4945926467        1.8559317354        5.8480769620
 Ga         6.4944165642        1.8568645951        7.8475939673
  N         6.4910339301       -0.0134999509        8.4515530102
 Ga         6.4945702202       -0.0111739847       10.4482237504
  N         6.4964194130        1.8612796012       11.0531986566
 Ga         6.5011716851        1.8656693481       13.0505740085
  N         6.4904432986       -0.0067646947       13.6371628336
 Ga         6.5092436053       -0.0002459202       15.6375150360
  N         6.5160969475        1.8726973702       16.2296760005
 Ga         6.5725304295        1.8760833880       18.2713411247
  N         6.5593259991       -0.0224190533       18.6608502189
 Ga         4.8676137129        2.7915775326       -0.5408270695
  N         4.8710086207        4.6643027767        0.6069406283
 Ga         4.8708491650        4.6332891509        2.6375615564
  N         4.8683271221        2.7899061516        3.2692504544
 Ga         4.8696243936        2.7911878478        5.2595144997
  N         4.8722769717        4.6651948821        5.8482666042
 Ga         4.8727581585        4.6640877947        7.8479104621
  N         4.8709690818        2.7914942279        8.4504151798
 Ga         4.8738331784        2.7956656057       10.4496226777
  N         4.8794665008        4.6659890929       11.0581853430
 Ga         4.8806350089        4.6698886516       13.0606882139
  N         4.8759926341        2.7961486596       13.6547434189
 Ga         4.8826440657        2.8010077592       15.6689950763
  N         4.8598457782        4.6744555760       16.1638991552
 Ga         4.9178638739        4.6657304495       19.1313468773
  N         4.9413276548        2.7893475883       18.7416255516
 Ga         3.2489176703        5.5950695183        0.3234844703
  N         3.2479808866        7.4654875953        0.6068646894
 Ga         3.2755402011        7.4805807875        2.6380224597
  N         3.2486635733        5.5952998455        3.2291377901
 Ga         3.2501030943        5.5963487236        5.2407788557
  N         3.2504917102        7.4662028777        5.8495503460
 Ga         3.2531261575        7.4666022586        7.8499627130
  N         3.2515335789        5.5960130018        8.4551270355
 Ga         3.2548781243        5.5977550795       10.4542680953
  N         3.2567628536        7.4715784866       11.0502862271
 Ga         3.2575752089        7.4733339882       13.0475188670
  N         3.2486817535        5.5992436868       13.6282200550
 Ga         3.2549728238        5.6067953009       15.6335738915
  N         3.2795582923        7.4862584035       16.1577352733
 Ga         3.3258176292        7.4947077421       18.1705629169
  N         3.3649199023        5.5707215616       18.4492304236
  O         1.7183062040        4.9712496489       21.1988170158
  H         1.1312833665        5.4085892641       20.4849129687
  C         0.9136199118        3.9664663153       21.8803463169
  H         0.1602528448        3.5900736605       21.1628645414
  H         1.5734429425        3.1652484313       22.2109792687
  H         0.3677020826        4.4325437623       22.7269591598
  O         4.0804167475        4.7159640407       21.0689874574
  H         3.0003326931        4.8467191332       21.1382603756
  C         4.5105240756        3.6189484459       21.9282987209
  H         4.1197741078        2.6593216870       21.5622067784
  H         5.6108534552        3.5404614558       21.9388412965
  H         4.1786790940        3.8126882443       22.9559094550
     156
 i =        3, E =     -6136.6484787116
 Ga        -0.0031956425       -0.0158303410       -0.5414913531
  N        -0.0002316493        1.8587117593        0.6072975298
 Ga        -0.0002511637        1.8277591377        2.6379298173
  N        -0.0033204001       -0.0156258030        3.2701509157
 Ga        -0.0021132513       -0.0150247107        5.2604308080
  N         0.0009136053        1.8597616482        5.8486560049
 Ga         0.0024858469        1.8583121948        7.8484246398
  N         0.0010286489       -0.0150016512        8.4500799865
 Ga         0.0041534948       -0.0153508972       10.4489430916
  N         0.0043866310        1.8599471477       11.0450620299
 Ga         0.0107626906        1.8618374163       13.0366311035
  N         0.0165536456       -0.0093531379       13.6375969036
 Ga         0.0336089593       -0.0241407795       15.6305271967
  N         0.0251043786        1.8565476878       16.2184825648
 Ga         0.0466887369        1.8498117216       18.2820001653
  N         0.0435312286       -0.0214671677       18.6927956339
 Ga        -1.6227844776        2.7897926207        0.3241200482
  N        -1.6246406592        4.6597843951        0.6065788828
 Ga        -1.5957979376        4.6756500423        2.6366288263
  N        -1.6229285182        2.7899011402        3.2284673315
 Ga        -1.6216876318        2.7907307750        5.2398603249
  N        -1.6211592636        4.6609894604        5.8468650812
 Ga        -1.6190242423        4.6618271038        7.8454474544
  N        -1.6203351870        2.7919896596        8.4512980368
 Ga        -1.6191785761        2.7954742773       10.4471274615
  N        -1.6176934868        4.6667452849       11.0557897649
 Ga        -1.6188014824        4.6704900203       13.0534721603
  N        -1.6061063664        2.7996974922       13.6630430282
 Ga        -1.6013421955        2.8166599790       15.6683105763
  N        -1.5862095616        4.6826956080       16.3176621135
 Ga        -1.5119003211        4.6856721485       18.3978897950
  N        -1.5515625943        2.7877557845       18.7453984757
 Ga        -3.2436241743        5.5957617376        0.3240381225
  N        -3.2370886233        7.4660161495        0.6075432597
 Ga        -3.2643369920        7.4807968753        2.6380936502
  N        -3.2426359587        5.5951487218        3.2288031152
 Ga        -3.2418241969        5.5960284940        5.2400868020
  N        -3.2356707402        7.4663503937        5.8471877989
 Ga        -3.2356520237        7.4670545673        7.8461094179
  N        -3.2398267762        5.5963367063        8.4499558414
 Ga        -3.2390373695        5.5972615194       10.4454799542
  N        -3.2310201327        7.4660244740       11.0555039301
 Ga        -3.2223520179        7.4624982957       13.0543031887
  N        -3.2368024838        5.5965791653       13.6924071377
 Ga        -3.2224281014        5.5905677598       15.7306102302
  N        -3.2041730107        7.4671911917       16.2771508876
 Ga        -3.1926368590        7.4415834305       18.3349392790
  N        -3.1693022162        5.5778518961       18.8622571206
 Ga         3.2424571452       -0.0155927781        0.3244152892
  N         3.2415747257        1.8548351176        0.6063243293
 Ga         3.2696101297        1.8703747641        2.6372250726
  N         3.2427556139       -0.0153864055        3.2284589188
 Ga         3.2441568832       -0.0145969154        5.2399488732
  N         3.2447098644        1.8555608345        5.8477339563
 Ga         3.2472382630        1.8563056167        7.8469033109
  N         3.2448481074       -0.0145285764        8.4500294256
 Ga         3.2476287411       -0.0139594625       10.4454348693
  N         3.2520114669        1.8570473136       11.0515963894
 Ga         3.2591695586        1.8534280103       13.0487706942
  N         3.2562668218       -0.0164916450       13.6609271457
 Ga         3.2664341147       -0.0189461243       15.6674258192
  N         3.2839923820        1.8510983176       16.2385071434
 Ga         3.3236778601        1.8615476809       18.2655618229
  N         3.3004985010       -0.0254009925       18.7272058879
 Ga         1.6219669763        2.7905028569        0.3240748581
  N         1.6292570728        4.6604104029        0.6069519203
 Ga         1.6014255205        4.6757574538        2.6370127940
  N         1.6228863970        2.7900155591        3.2292048472
 Ga         1.6243849673        2.7910615540        5.2408625503
  N         1.6297659569        4.6612145223        5.8487079549
 Ga         1.6302862324        4.6618152069        7.8484831848
  N         1.6263881524        2.7904590118        8.4498894929
 Ga         1.6297018021        2.7921584460       10.4453011096
  N         1.6277815598        4.6626088363       11.0477592617
 Ga         1.6275058258        4.6651568834       13.0431376424
  N         1.6334472603        2.7885505109       13.6473098607
 Ga         1.6587021304        2.7867857963       15.6409277452
  N         1.6244290381        4.6640653214       16.1746732064
 Ga         1.6775350477        4.6394281254       18.1678350331
  N         1.6842928480        2.7807964302       18.6263209194
 Ga         0.0032290412        5.5957333829       -0.5457235425
  N         0.0060065063        7.4706102648        0.6066200529
 Ga         0.0061410037        7.4384741708        2.6367539501
  N         0.0030931323        5.5951814536        3.2693432059
 Ga         0.0047892660        5.5962686581        5.2596523110
  N         0.0075440446        7.4707244661        5.8482434380
 Ga         0.0089167058        7.4693690563        7.8477458219
  N         0.0050549065        5.5957182145        8.4477506501
 Ga         0.0064530629        5.5971887306       10.4449922617
  N         0.0116600331        7.4696148841       11.0444138101
 Ga         0.0146528071        7.4725782701       13.0364981630
  N         0.0045846322        5.6037360028       13.6427596242
 Ga         0.0057927401        5.6005685641       15.6384953238
  N         0.0394149521        7.4683807162       16.2626364693
 Ga         0.0640499565        7.4322126859       18.3515823912
  N         0.1535392977        5.5830938341       18.9309801940
 Ga         6.4875161273       -0.0151669538        0.3236700131
  N         6.4933402977        1.8552742801        0.6059925603
 Ga         6.4662457722        1.8702004860        2.6370160972
  N         6.4882106588       -0.0152972695        3.2291142726
 Ga         6.4898196402       -0.0146337212        5.2408802572
  N         6.4946734049        1.8559300457        5.8482146913
 Ga         6.4944399566        1.8569106817        7.8475643876
  N         6.4910288284       -0.0134039134        8.4514604360
 Ga         6.4945759680       -0.0107005796       10.4480189428
  N         6.4965836788        1.8617461265       11.0541011041
 Ga         6.5015446715        1.8668113166       13.0517027626
  N         6.4912080720       -0.0060528064       13.6347517654
 Ga         6.5092651864        0.0006387307       15.6346389515
  N         6.5167420785        1.8716270358       16.2337123629
 Ga         6.5708849872        1.8750022402       18.2764770970
  N         6.5570841453       -0.0241173136       18.6672372200
 Ga         4.8676578853        2.7915233424       -0.5403109448
  N         4.8710514228        4.6642658122        0.6068370793
 Ga         4.8708854481        4.6333592044        2.6374786777
  N         4.8683755731        2.7899073342        3.2692865018
 Ga         4.8696913557        2.7912425796        5.2595195606
  N         4.8723464013        4.6652602525        5.8484390804
 Ga         4.8728303452        4.6642217713        7.8479595477
  N         4.8710027391        2.7915559672        8.4504546218
 Ga         4.8739535684        2.7957195623       10.4494605883
  N         4.8791866286        4.6659405594       11.0580798983
 Ga         4.8799950732        4.6698962082       13.0608396176
  N         4.8756388389        2.7966544335       13.6572069862
 Ga         4.8822457328        2.7987098288       15.6731712291
  N         4.8558270491        4.6748372517       16.1554722551
 Ga         4.9109284573        4.6664700832       19.1497643815
  N         4.9420997029        2.7930234103       18.7448142396
 Ga         3.2488924753        5.5952177684        0.3236314849
  N         3.2478406548        7.4653723394        0.6071450860
 Ga         3.2757340153        7.4806482512        2.6377392972
  N         3.2487337067        5.5953840014        3.2293156882
 Ga         3.2501446319        5.5963749785        5.2408063534
  N         3.2505354286        7.4662320380        5.8497002957
 Ga         3.2531189005        7.4666279571        7.8499640310
  N         3.2515504011        5.5960688009        8.4549896017
 Ga         3.2548127702        5.5979556541       10.4540440782
  N         3.2570751098        7.4721208454       11.0492775303
 Ga         3.2583000885        7.4743623093       13.0464055169
  N         3.2471371870        5.6004646936       13.6250580795
 Ga         3.2529612114        5.6090724022       15.6304052221
  N         3.2784809550        7.4871259263       16.1564391616
 Ga         3.3229159211        7.4953264280       18.1687791046
  N         3.3698938909        5.5687704168       18.4316161655
  O         1.7298508299        4.9960475254       21.2207060322
  H         1.1525771281        5.3923512751       20.4810738194
  C         0.9107019891        3.9781045979       21.8621929666