     224
 i =        1, E =     -8553.1766261353
  N        -0.0063545752        2.0220886693        2.4710410410
 Ga        -0.0086078291        0.0591440333        2.8536369321
  N        -0.0058392621        0.0512470825        5.0188623950
 Ga        -0.0021714598        1.8716346924        5.8003650909
  N        -0.0031555567        1.8941030992        7.7898658178
 Ga        -0.0048219193        0.0459190605        8.4440277208
  N        -0.0032914866        0.0453853342       10.4119152830
 Ga        -0.0032708409        1.8843650576       11.0764502416
  N        -0.0026320941        1.8636804752       13.0614811698
 Ga        -0.0022238963        0.0438043855       13.8759608482
  N        -0.0001285541        0.0437425510       16.0643782931
 Ga         0.0007551101        2.0927556106       16.4890562310
 Ga        -0.0253659025        3.7576871301        1.3131643420
  N        -1.4978088084        4.6280966761        2.4880157334
 Ga        -1.6330998345        2.8122765294        3.2867135914
  N        -1.6266286291        2.8235206736        5.2446296559
 Ga        -1.6447505307        4.7008442842        5.8104283233
  N        -1.6198262435        4.6908273232        7.7954719009
 Ga        -1.5989849187        2.8348640055        8.4464532190
  N        -1.5993917187        2.8362092943       10.4279770347
 Ga        -1.6266804593        4.6935218354       11.0787574816
  N        -1.6432771832        4.7046495521       13.0630519228
 Ga        -1.6008447052        2.8346959301       13.6258662760
  N        -1.6292975484        2.8170478074       15.5799092273
 Ga        -1.4383208482        4.5867241628       16.4895512222
  N        -0.0001023637        3.7526752050       17.6317807792
  N        -3.2130487421        7.6064308168        2.5190133857
 Ga        -3.2020861471        5.6157457392        2.8538347393
  N        -3.2161094234        5.6135617339        5.0164708753
 Ga        -3.2260835414        7.4351482921        5.8021914601
  N        -3.2206849737        7.4632844234        7.7886000518
 Ga        -3.2204602110        5.6150618237        8.4500420020
  N        -3.2188787179        5.6153264009       10.4158453882
 Ga        -3.2207683128        7.4544917658       11.0800661280
  N        -3.2191350191        7.4342739500       13.0638384871
 Ga        -3.2190772181        5.6142466149       13.8784689166
  N        -3.2164689123        5.6150683580       16.0646849238
 Ga        -3.2158827639        7.6680746673       16.4916363679
 Ga        -3.2310923898        9.3349759476        1.4303925821
  N        -4.7214887061       10.2018219059        2.5067754850
 Ga        -4.8832745792        8.3746669552        3.2976793199
  N        -4.8482380795        8.3906529840        5.2449361260
 Ga        -4.8607617128       10.2766157431        5.7950788245
  N        -4.8360169228       10.2630024064        7.7846706712
 Ga        -4.8172005855        8.4098551571        8.4456776586
  N        -4.8157675348        8.4074388417       10.4274409971
 Ga        -4.8430472237       10.2664546654       11.0766066143
  N        -4.8589736561       10.2753421560       13.0611473016
 Ga        -4.8180556029        8.4058271247       13.6266202193
  N        -4.8470818388        8.3871772526       15.5789776739
 Ga        -4.6506702810       10.1549381541       16.4918918678
  N        -3.2161301368        9.3240560371       17.6373878502
  N         3.2068270468        1.9066500714        2.6547574553
 Ga         3.2074605006        0.1041422108        3.3116799087
  N         3.2114671530        0.0683297909        5.2558265681
 Ga         3.2047764408        1.9072054363        5.9197553915
  N         3.2115844573        1.9028002621        7.8693673726
 Ga         3.2104440127        0.0321987517        8.4475207028
  N         3.2127682831        0.0322768106       10.4289491324
 Ga         3.2130364294        1.9021230317       11.0317471914
  N         3.2138054335        1.9013363842       12.9914043583
 Ga         3.2127877927        0.0338887362       13.6261672492
  N         3.2144500524        0.0665979340       15.5777659348
 Ga         3.2146785263        1.9008730223       15.8668941960
  N         1.4932156256        4.6280936793        2.4906883397
 Ga         1.6216602458        2.8204690314        3.2789561244
  N         1.6196614473        2.8231775417        5.2407340274
 Ga         1.6415641826        4.7002796130        5.8091894233
  N         1.6138292555        4.6906589311        7.7957674695
 Ga         1.5912103466        2.8358583964        8.4495046798
  N         1.5936338096        2.8361762279       10.4302288156
 Ga         1.6210174552        4.6940056026       11.0792691895
  N         1.6381180977        4.7046793280       13.0637543904
 Ga         1.5960017684        2.8342361164       13.6247273249
  N         1.6261947339        2.8178084771       15.5767360747
 Ga         1.4369528919        4.5849474188       16.4904000483
  N         0.0031605276        7.4669326398        2.6965012819
 Ga         0.0033778333        5.6031015770        3.3202664781
  N        -0.0024523997        5.6263041873        5.2570309210
 Ga         0.0032571915        7.4697297736        5.9109043852
  N        -0.0012666487        7.4727552188        7.8628907496
 Ga        -0.0027769197        5.5997209592        8.4523376340
  N        -0.0028540689        5.6009274855       10.4327953093
 Ga        -0.0020526560        7.4716712358       11.0344603220
  N        -0.0017046910        7.4710782474       12.9939524282
 Ga        -0.0027891176        5.6028974117       13.6266818406
  N        -0.0008420764        5.6352832801       15.5794198302
 Ga        -0.0009995140        7.4707774832       15.8671584063
  N        -1.7241073783       10.1944707896        2.5256447883
 Ga        -1.5910066159        8.3919577331        3.3388211042
  N        -1.5969669395        8.3935582129        5.2643559313
 Ga        -1.5827174503       10.2824064892        5.8060602700
  N        -1.6037540869       10.2640638217        7.7913216190
 Ga        -1.6242365920        8.4087108713        8.4509909620
  N        -1.6229307751        8.4073213812       10.4320102792
 Ga        -1.5965844864       10.2675693856       11.0798075304
  N        -1.5785519680       10.2757828695       13.0639131634
 Ga        -1.6200161892        8.4053466307       13.6262778414
  N        -1.5883976703        8.3870970323       15.5767546470
 Ga        -1.7828318793       10.1538394807       16.4926308809
  N         6.4302652734        2.0166917714        2.5244184615
 Ga         6.4331649852        0.0350027502        2.8740053774
  N         6.4295167480        0.0481190042        5.0261315954
 Ga         6.4270579174        1.8724567396        5.8018796302
  N         6.4293182649        1.8948904675        7.7894701034
 Ga         6.4307386557        0.0470658174        8.4491170825
  N         6.4297379474        0.0451947197       10.4155452517
 Ga         6.4304362041        1.8860125427       11.0768694301
  N         6.4296204652        1.8647310656       13.0621962122
 Ga         6.4300547687        0.0447744620       13.8773253878
  N         6.4268402173        0.0409078043       16.0653796980
 Ga         6.4322051736        2.0875598563       16.4859440715
 Ga         6.4198631514        3.7638950298        1.4678467566
  N         4.9183245667        4.6336384760        2.5227948944
 Ga         4.7698449784        2.8089173054        3.3133466328
  N         4.7993374997        2.8215014564        5.2580619034
 Ga         4.7884209568        4.7065752462        5.7993853263
  N         4.8141372984        4.6923082074        7.7881841165
 Ga         4.8325389306        2.8379313876        8.4472706456
  N         4.8325166044        2.8366747447       10.4288846700
 Ga         4.8076535949        4.6958560821       11.0765684074
  N         4.7901957934        4.7044668080       13.0618075665
 Ga         4.8304750908        2.8347344388       13.6263350756
  N         4.8063172088        2.8198732983       15.5812280894
 Ga         4.9895171066        4.5888866767       16.4864141088
  N         6.4328373627        3.7530292866       17.6313019289
  N         3.2087141196        7.5977658567        2.4868827931
 Ga         3.1900562829        5.6214059789        2.8466899263
  N         3.2102848495        5.6159224438        5.0187217640
 Ga         3.2189264329        7.4359169274        5.8011056410
  N         3.2149828224        7.4647769618        7.7885825610
 Ga         3.2146022668        5.6168666478        8.4491752438
  N         3.2131889566        5.6157468508       10.4158988356
 Ga         3.2159427631        7.4553473398       11.0787672349
  N         3.2139561733        7.4350360773       13.0636256122
 Ga         3.2147154323        5.6142487940       13.8764493535
  N         3.2109583706        5.6120483206       16.0657952332
 Ga         3.2166936675        7.6578616337       16.4865845963
 Ga         3.2235868253        9.3316130066        1.3285431076
  N         1.7079749895       10.2001928549        2.4966678475
 Ga         1.6105313270        8.4038280635        3.3129051634
  N         1.5955888941        8.3949407748        5.2490581660
 Ga         1.5771519807       10.2786967265        5.8041105050
  N         1.5984515127       10.2637292003        7.7898915608
 Ga         1.6203505838        8.4100551881        8.4503350834
  N         1.6180327550        8.4079229544       10.4313166366
 Ga         1.5923309260       10.2681180621       11.0781962225
  N         1.5740074956       10.2754415545       13.0630434484
 Ga         1.6150098383        8.4056723264       13.6276301433
  N         1.5912979101        8.3896365019       15.5825943983
 Ga         1.7723468417       10.1600219257       16.4865306304
  N         3.2165868062        9.3242256116       17.6348090739
  N         9.6480624477        1.8857683314        2.6813222834
 Ga         9.6463870996        0.0667362055        3.3050339750
  N         9.6453826767        0.0622270724        5.2555599081
 Ga         9.6516192880        1.9001564692        5.9142217077
  N         9.6467896631        1.9010710040        7.8652408980
 Ga         9.6483707086        0.0317479995        8.4434388746
  N         9.6464829008        0.0323949935       10.4257472929
 Ga         9.6464195690        1.9016142078       11.0300822275
  N         9.6461797159        1.9007737542       12.9914418910
 Ga         9.6464903546        0.0334393783       13.6260359409
  N         9.6469997029        0.0611321212       15.5810271088
 Ga         9.6452056770        1.8993732573       15.8643061146
  N         7.9372930261        4.6267288866        2.5221112799
 Ga         8.0863004210        2.8025102964        3.3197074670
  N         8.0563697920        2.8209099782        5.2632670194
 Ga         8.0667486313        4.7061361398        5.7990692479
  N         8.0450901145        4.6924102109        7.7869570953
 Ga         8.0278656009        2.8373473066        8.4441136223
  N         8.0273810734        2.8367015265       10.4267454608
 Ga         8.0517913864        4.6949479861       11.0770434947
  N         8.0695839091        4.7047075049       13.0620211457
 Ga         8.0287279453        2.8350349348       13.6247585394
  N         8.0554630751        2.8187938098       15.5786838263
 Ga         7.8757346105        4.5893159447       16.4858694123
  N         6.4093970323        7.4675531821        2.6680100226
 Ga         6.4252490862        5.6639104740        3.3234746570
  N         6.4282464170        5.6395750402        5.2650382878
 Ga         6.4233734463        7.4783235501        5.9177001479
  N         6.4279718118        7.4746080595        7.8657833932
 Ga         6.4298761278        5.6034452914        8.4446928270
  N         6.4300824540        5.6028343813       10.4267791091
 Ga         6.4293604081        7.4723941742       11.0305944749
  N         6.4295348464        7.4711157014       12.9914006598
 Ga         6.4299031591        5.6038341984       13.6260166358
  N         6.4300076638        5.6320904798       15.5805230935
 Ga         6.4286467642        7.4699127849       15.8644311138
  N         4.7187258164       10.2067036725        2.4729092684
 Ga         4.8396228722        8.3922233343        3.2897070744
  N         4.8363655504        8.3932378917        5.2433146613
 Ga         4.8512662004       10.2746288078        5.7940126618
  N         4.8289837074       10.2626863906        7.7832946470
 Ga         4.8098291233        8.4116570176        8.4447313120
  N         4.8106936977        8.4079045686       10.4264791004
 Ga         4.8363633755       10.2663968337       11.0756969729
  N         4.8535586973       10.2752730372       13.0610406397
 Ga         4.8130712365        8.4059839764       13.6253098023
  N         4.8384849540        8.3894292293       15.5790981447
 Ga         4.6606691999       10.1597377767       16.4861068759
  O        -0.0289731552        3.7405229117       -0.4980294036
  H        -0.0036604022        7.4573498619        1.6685791628
  C         0.6108560038        2.6173682916       -1.1239724016
  H         1.6811802212        2.5393119286       -0.8675384564
  H         0.1193729928        1.6640007839       -0.8678288364
  H         0.5343726549        2.7684577933       -2.2103979840
  O        -3.2738465222        9.3646401510       -0.3739800020
  C        -3.9802763776       10.4911305547       -0.9043938697
  H        -5.0425013372       10.5095719706       -0.6047138919
  H        -3.5257458724       11.4594485088       -0.6286404838
  H        -3.9205270856       10.3811697795       -1.9954068642
  O         3.2217871597        9.3609231423       -0.4778855410
  C         3.7985744820       10.5273216503       -1.0828764636
  H         3.2805577597       11.4584504915       -0.7938643121
  H         4.8709439753       10.6312228764       -0.8468697537
  H         3.6911982513       10.4054900095       -2.1701782819
  O         6.3247342954        3.7707965180       -0.3342721347
  C         6.9703806642        2.6333442193       -0.9189038110
  H         8.0399804718        2.5595912063       -0.6517178311
  H         6.4767032564        1.6845803582       -0.6487383378
  H         6.8946721183        2.7866828984       -2.0032333051
  H         6.3726862114        7.4280756531        1.6554961726
  H         9.6354507431        1.8475549420        1.6704185430
  H         3.2172176740        1.9050553200        1.6284023544
     224
 i =        2, E =     -8553.1910141418
  N        -0.0058128838        2.0294855321        2.4716423015
 Ga        -0.0045115016        0.0489084355        2.8569810019
  N        -0.0065564438        0.0498797543        5.0100073571
 Ga        -0.0027519913        1.8668669024        5.8077116024
  N        -0.0027038186        1.8941854980        7.7842919253
 Ga        -0.0025864822        0.0457733776        8.4492883974
  N        -0.0032031788        0.0449757479       10.4068097404
 Ga        -0.0031183700        1.8822830597       11.0837187300
  N        -0.0024772017        1.8620604192       13.0582810116
 Ga        -0.0017061218        0.0442668530       13.8905216268
  N        -0.0004114262        0.0454796783       16.0589788949
 Ga        -0.0005101021        2.1032183517       16.4982682965
 Ga        -0.0267061123        3.7724028103        1.2979821514
  N        -1.4955281850        4.6197145315        2.4906508685
 Ga        -1.6174058436        2.8210254622        3.3022450749
  N        -1.6251347028        2.8230748977        5.2369347114
 Ga        -1.6456164801        4.7041362539        5.8157800426
  N        -1.6200832854        4.6908017413        7.7901141531
 Ga        -1.5968621021        2.8375376755        8.4577014827
  N        -1.5977620580        2.8371745447       10.4275213670
 Ga        -1.6270062646        4.6959900529       11.0843936972
  N        -1.6442088411        4.7052140022       13.0593228783
 Ga        -1.6015497524        2.8340809534       13.6296496709
  N        -1.6311901315        2.8154637409       15.5739214617
 Ga        -1.4305257266        4.5811735735       16.4988831238
  N        -0.0008943665        3.7538710180       17.6459446559
  N        -3.2191641406        7.6074633117        2.5282629337
 Ga        -3.2126916749        5.6187631569        2.8579782575
  N        -3.2141278122        5.6155355930        5.0130916949
 Ga        -3.2232431176        7.4350717043        5.8090488107
  N        -3.2213767264        7.4627740316        7.7857305965
 Ga        -3.2196484834        5.6165732437        8.4543372660
  N        -3.2191028397        5.6153604575       10.4107708056
 Ga        -3.2191512316        7.4540586176       11.0838859481
  N        -3.2188907164        7.4330363569       13.0587157843
 Ga        -3.2182941457        5.6150529383       13.8917061754
  N        -3.2150888721        5.6132818583       16.0594999302
 Ga        -3.2167596981        7.6728076317       16.4992152023
 Ga        -3.2168905755        9.3184386529        1.3849357700
  N        -4.7143133553       10.1950125822        2.5122179713
 Ga        -4.8547471950        8.3889954783        3.3094623476
  N        -4.8491783585        8.3908138716        5.2419039982
 Ga        -4.8621708372       10.2773849661        5.8023912874
  N        -4.8361990841       10.2629142849        7.7808412358
 Ga        -4.8141051068        8.4103820161        8.4542407152
  N        -4.8143559019        8.4085383757       10.4250893303
 Ga        -4.8436039628       10.2670433786       11.0827214630
  N        -4.8604747412       10.2762997405       13.0577008610
 Ga        -4.8179583022        8.4054800162       13.6303005553
  N        -4.8460151366        8.3874178513       15.5749986900
 Ga        -4.6482839454       10.1529067421       16.4994962447
  N        -3.2167725025        9.3257488179       17.6479641090
  N         3.2091076483        1.9023699532        2.6697403070
 Ga         3.2098242524        0.0676027105        3.3223788483
  N         3.2107334896        0.0697261748        5.2519374295
 Ga         3.2060787020        1.9064267524        5.9251877189
  N         3.2103225228        1.9035005647        7.8643538088
 Ga         3.2115313724        0.0297902991        8.4548131475
  N         3.2126252502        0.0301575883       10.4253825104
 Ga         3.2139046352        1.9017013427       11.0331668094
  N         3.2144948466        1.9012518836       12.9831577993
 Ga         3.2131185874        0.0343619999       13.6307257852
  N         3.2149620268        0.0649021078       15.5753718003
 Ga         3.2156832044        1.8997555436       15.8649152731
  N         1.4899270250        4.6229613178        2.4922965632
 Ga         1.6058258729        2.8301472791        3.2959803273
  N         1.6181586963        2.8224721465        5.2338044638
 Ga         1.6407805673        4.7034318028        5.8139418949
  N         1.6149617545        4.6904820253        7.7894811870
 Ga         1.5902267999        2.8382955026        8.4602376928
  N         1.5918186148        2.8374507533       10.4291185545
 Ga         1.6216525778        4.6964545180       11.0843828308
  N         1.6392187921        4.7051562506       13.0588471868
 Ga         1.5971448669        2.8338827615       13.6291698556
  N         1.6280523268        2.8164366166       15.5725134329
 Ga         1.4282684593        4.5804455144       16.4996313161
  N        -0.0039628246        7.4680003835        2.6908324745
 Ga         0.0012615238        5.6146678783        3.3193600024
  N        -0.0026701217        5.6237285719        5.2498597419
 Ga         0.0015127574        7.4701095881        5.9121007021
  N        -0.0008539420        7.4717998909        7.8570697952
 Ga        -0.0023038419        5.6002860521        8.4564056633
  N        -0.0026615340        5.6002912045       10.4268270854
 Ga        -0.0020263732        7.4725568678       11.0343090229
  N        -0.0012418960        7.4716727208       12.9843761999
 Ga        -0.0023393165        5.6042289251       13.6305335039
  N        -0.0007371473        5.6374278121       15.5748380666
 Ga        -0.0008302096        7.4715072166       15.8651860739
  N        -1.7289357382       10.1962159911        2.5364046066
 Ga        -1.5971419349        8.3949881658        3.3373296740
  N        -1.5978121588        8.3944001002        5.2609354085
 Ga        -1.5807697899       10.2806338255        5.8139424956
  N        -1.6033815277       10.2649575036        7.7894606971
 Ga        -1.6239941076        8.4086026499        8.4523423159
  N        -1.6235355360        8.4077777480       10.4242028038
 Ga        -1.5950193343       10.2668626737       11.0830471341
  N        -1.5777185764       10.2761005956       13.0581943693
 Ga        -1.6189608857        8.4047478262       13.6304642358
  N        -1.5896179428        8.3880035938       15.5742006259
 Ga        -1.7863431319       10.1522054659       16.5004004837
  N         6.4297808405        2.0349054187        2.5308141451
 Ga         6.4313557376        0.0410783606        2.8722361265
  N         6.4305809138        0.0441314692        5.0217553272
 Ga         6.4277337427        1.8651906085        5.8097392642
  N         6.4286467388        1.8934870553        7.7864835518
 Ga         6.4293502474        0.0466062215        8.4536694269
  N         6.4301148486        0.0453084205       10.4103976872
 Ga         6.4299034229        1.8840146359       11.0823493494
  N         6.4299759530        1.8629863808       13.0583140769
 Ga         6.4290156970        0.0439946253       13.8889156590
  N         6.4294729013        0.0423543302       16.0601290320
 Ga         6.4311706882        2.0931628340       16.4928277120
 Ga         6.4111310516        3.7770823652        1.4064031058
  N         4.9290616061        4.6283361624        2.5406939628
 Ga         4.7964560739        2.8206547656        3.3264655504
  N         4.8006754248        2.8213653385        5.2545241023
 Ga         4.7835005312        4.7081373670        5.8076818873
  N         4.8117396047        4.6927313778        7.7852126325
 Ga         4.8343550395        2.8390420259        8.4548997065
  N         4.8345360069        2.8381675740       10.4253974140
 Ga         4.8062423115        4.6963728901       11.0827693642
  N         4.7884076390        4.7056693842       13.0584600450
 Ga         4.8305295800        2.8346943510       13.6294119947
  N         4.8072005422        2.8194368286       15.5767608443
 Ga         4.9926662944        4.5858665906       16.4930951624
  N         6.4323672665        3.7541381743       17.6453705389
  N         3.2093375357        7.6122639229        2.4876081568
 Ga         3.2013558962        5.6234698867        2.8484691947
  N         3.2083369873        5.6192142005        5.0123434479
 Ga         3.2147318259        7.4351094509        5.8120213127
  N         3.2149250405        7.4632806418        7.7874556003
 Ga         3.2140700336        5.6165798976        8.4548820372
  N         3.2138520557        5.6159781509       10.4112357935
 Ga         3.2138589261        7.4543456329       11.0837169987
  N         3.2142394106        7.4330283338       13.0589426565
 Ga         3.2134403815        5.6141958678       13.8888220514
  N         3.2118917379        5.6117558163       16.0599949438
 Ga         3.2152020432        7.6631594341       16.4933513636
 Ga         3.2112228794        9.3208813758        1.3095190711
  N         1.7199805752       10.1956088951        2.5046281629
 Ga         1.5983441708        8.3992446608        3.3137434110
  N         1.5969567844        8.3962722704        5.2449839057
 Ga         1.5730429592       10.2775305215        5.8163936921
  N         1.5971809660       10.2636055513        7.7904903302
 Ga         1.6192033282        8.4088879565        8.4548313561
  N         1.6191880490        8.4084755177       10.4252769508
 Ga         1.5902050463       10.2670440442       11.0830911504
  N         1.5727879737       10.2763903970       13.0590397537
 Ga         1.6150737135        8.4051597632       13.6303252891
  N         1.5918482897        8.3899114367       15.5778497226
 Ga         1.7756869642       10.1570256975       16.4936096114
  N         3.2159948917        9.3261078060       17.6467742712
  N         9.6442429917        1.8863015690        2.6894910954
 Ga         9.6450914022        0.0434716473        3.3193117319
  N         9.6461914137        0.0596245387        5.2494193670
 Ga         9.6504230990        1.9003665971        5.9201925242
  N         9.6481061855        1.9016387422        7.8608826856
 Ga         9.6466184162        0.0295557192        8.4535262929
  N         9.6462150264        0.0299638306       10.4244250054
 Ga         9.6456330605        1.9012254462       11.0326433620
  N         9.6455267251        1.9001620580       12.9841115645
 Ga         9.6468385008        0.0333239726       13.6298720882
  N         9.6463958561        0.0604919715       15.5776645740
 Ga         9.6455888151        1.8988694633       15.8637450970
  N         7.9241633136        4.6195940394        2.5357853494
 Ga         8.0576340722        2.8159659768        3.3303775546
  N         8.0553260458        2.8210870397        5.2579572804
 Ga         8.0738551482        4.7077430908        5.8090410240
  N         8.0468039980        4.6930990698        7.7857923373
 Ga         8.0247538679        2.8384701885        8.4521499804
  N         8.0252907595        2.8376001843       10.4240311531
 Ga         8.0529232596        4.6959441133       11.0825276714
  N         8.0714801134        4.7055937208       13.0582103372
 Ga         8.0291453186        2.8349720989       13.6285899730
  N         8.0547123314        2.8180535895       15.5752978032
 Ga         7.8719641679        4.5871291369       16.4920110211
  N         6.4131139799        7.4649894967        2.6816462884
 Ga         6.4259576195        5.6355966963        3.3409330843
  N         6.4291353140        5.6359026882        5.2644682793
 Ga         6.4243674505        7.4776102541        5.9232795864
  N         6.4278150225        7.4753118466        7.8621643793
 Ga         6.4292996512        5.6006742807        8.4521259718
  N         6.4294979802        5.6008134459       10.4237965608
 Ga         6.4294664323        7.4723432997       11.0324359025
  N         6.4290694306        7.4709706999       12.9844447597
 Ga         6.4300975704        5.6035438856       13.6294282428
  N         6.4298072581        5.6319158725       15.5771050305
 Ga         6.4298934928        7.4702097699       15.8624705869
  N         4.7072166856       10.1965656908        2.4806021921
 Ga         4.8220972362        8.3997775169        3.3067884663
  N         4.8340172965        8.3957021807        5.2394875757
 Ga         4.8551011627       10.2777149821        5.8089464169
  N         4.8302340325       10.2627329565        7.7847421580
 Ga         4.8073420719        8.4106800657        8.4556716956
  N         4.8084300671        8.4087859112       10.4258229290
 Ga         4.8375169415       10.2671575409       11.0822792452
  N         4.8557262321       10.2764111458       13.0576761158
 Ga         4.8127507089        8.4059789761       13.6289387343
  N         4.8381568779        8.3889605533       15.5758728010
 Ga         4.6569100784       10.1582961650       16.4923963510
  O        -0.0357183093        3.7391011553       -0.5106979023
  H        -0.0051469137        7.4627553384        1.6642549634
  C         0.6102175478        2.6158003535       -1.1286118876
  H         1.6805453008        2.5415051763       -0.8689754052
  H         0.1226382836        1.6611145502       -0.8691687078
  H         0.5354927154        2.7658042562       -2.2145809279
  O        -3.2749497538        9.3595425636       -0.4151250357
  C        -3.9808812022       10.4902862798       -0.9326501366
  H        -5.0367870284       10.5111905220       -0.6062015208
  H        -3.5251293627       11.4530526041       -0.6316157597
  H        -3.9367672026       10.4072063492       -2.0241193201
  O         3.2244073849        9.3562781833       -0.4963534626
  C         3.7995951992       10.5281615859       -1.0905248571
  H         3.2808151213       11.4581378364       -0.7953354553
  H         4.8706148839       10.6368302740       -0.8478099224
  H         3.6949831492       10.4116598172       -2.1776355089
  O         6.3165672836        3.7709240231       -0.3878130007
  C         6.9718711565        2.6299259936       -0.9506880146
  H         8.0374560421        2.5608402811       -0.6584855406
  H         6.4828591552        1.6848004311       -0.6548558495
  H         6.9104982687        2.7571988215       -2.0359868438
  H         6.3962821713        7.4407801487        1.6462547122
  H         9.6369763023        1.8719307645        1.6542094403
  H         3.2195313444        1.9045421987        1.6379914117
     224
 i =        3, E =     -8553.1932351802
  N        -0.0045873962        2.0317756509        2.4760996715
 Ga        -0.0036955792        0.0464375417        2.8601778775
  N        -0.0061658248        0.0486752555        5.0107894195
 Ga        -0.0027581112        1.8666279867        5.8113977112
  N        -0.0027881366        1.8932002984        7.7843970363
 Ga        -0.0018228836        0.0457062379        8.4536314150
  N        -0.0026161385        0.0450899139       10.4072793712
 Ga        -0.0030138456        1.8820669716       11.0883022344
  N        -0.0023429663        1.8616306041       13.0593064477
 Ga        -0.0015782044        0.0445894598       13.9005655849
  N        -0.0034377623        0.0427926736       16.0601096168