 DBCSR| Multiplication driver                                               BLAS
 DBCSR| Multrec recursion limit                                              512
 DBCSR| Multiplication stack size                                           1000
 DBCSR| Maximum elements for images                                    UNLIMITED
 DBCSR| Multiplicative factor virtual images                                   1
 DBCSR| Multiplication size stacks                                             3
 DBCSR| Number of 3D layers                                               SINGLE
 DBCSR| Use MPI memory allocation                                              T
 DBCSR| Use RMA algorithm                                                      F
 DBCSR| Use Communication thread                                               T
 DBCSR| Communication thread load                                             87


  **** **** ******  **  PROGRAM STARTED AT               2019-05-24 12:38:11.227
 ***** ** ***  *** **   PROGRAM STARTED ON        blg5818.int.ets1.calculquebec.
 **    ****   ******    PROGRAM STARTED BY                                   rzk
 ***** **    ** ** **   PROGRAM PROCESS ID                                244836
  **** **  *******  **  PROGRAM STARTED IN /lustre03/project/6004141/rzk/GaN-car
                                           bene/00-Surface/00-Preoptimization/44
                                           3-native

 CP2K| version string:                    CP2K version 7.0 (Development Version)
 CP2K| source code revision number:                                    svn:18619
 CP2K| cp2kflags: libint fftw3 libxc parallel mpi3 scalapack mkl                
 CP2K| is freely available from                            https://www.cp2k.org/
 CP2K| Program compiled at                          Sun Apr  7 00:48:11 EDT 2019
 CP2K| Program compiled on                      beluga2.int.ets1.calculquebec.ca
 CP2K| Program compiled for                    Beluga-Linux-x86-64-intel-openmpi
 CP2K| Data directory path    /home/rzk/projects/def-rzk/group/cp2k/cp2k-mcgill/
 CP2K| Input file name                                                 start.inp
 
 GLOBAL| Force Environment number                                              1
 GLOBAL| Basis set file name                                        BASIS_MOLOPT
 GLOBAL| Potential file name                                      GTH_POTENTIALS
 GLOBAL| MM Potential file name                                     MM_POTENTIAL
 GLOBAL| Coordinate file name                                          start.xyz
 GLOBAL| Method name                                                        CP2K
 GLOBAL| Project name                                                       TEST
 GLOBAL| Preferred FFT library                                             FFTW3
 GLOBAL| Preferred diagonalization lib.                                       SL
 GLOBAL| Run type                                                        GEO_OPT
 GLOBAL| All-to-all communication in single precision                          F
 GLOBAL| FFTs using library dependent lengths                                  F
 GLOBAL| Global print level                                               MEDIUM
 GLOBAL| MPI I/O enabled                                                       T
 GLOBAL| Total number of message passing processes                            80
 GLOBAL| Number of threads for this process                                    1
 GLOBAL| This output is from process                                           0
 GLOBAL| CPU model name :  Intel(R) Xeon(R) Gold 6148 CPU @ 2.40GHz

 MEMORY| system memory details [Kb]
 MEMORY|                        rank 0           min           max       average
 MEMORY| MemTotal            196614300     196614300     196614300     196614300
 MEMORY| MemFree             183644504     166228252     183644504     174961744
 MEMORY| Buffers                    76            76            76            76
 MEMORY| Cached                1269140       1269140       8131804       4700472
 MEMORY| Slab                  1160268       1160268       7158796       4159532
 MEMORY| SReclaimable           159496        159496       2930864       1545180
 MEMORY| MemLikelyFree       185073216     177290996     185073216     181207472


 *** Fundamental physical constants (SI units) ***

 *** Literature: B. J. Mohr and B. N. Taylor,
 ***             CODATA recommended values of the fundamental physical
 ***             constants: 2006, Web Version 5.1
 ***             http://physics.nist.gov/constants

 Speed of light in vacuum [m/s]                             2.99792458000000E+08
 Magnetic constant or permeability of vacuum [N/A**2]       1.25663706143592E-06
 Electric constant or permittivity of vacuum [F/m]          8.85418781762039E-12
 Planck constant (h) [J*s]                                  6.62606896000000E-34
 Planck constant (h-bar) [J*s]                              1.05457162825177E-34
 Elementary charge [C]                                      1.60217648700000E-19
 Electron mass [kg]                                         9.10938215000000E-31
 Electron g factor [ ]                                     -2.00231930436220E+00
 Proton mass [kg]                                           1.67262163700000E-27
 Fine-structure constant                                    7.29735253760000E-03
 Rydberg constant [1/m]                                     1.09737315685270E+07
 Avogadro constant [1/mol]                                  6.02214179000000E+23
 Boltzmann constant [J/K]                                   1.38065040000000E-23
 Atomic mass unit [kg]                                      1.66053878200000E-27
 Bohr radius [m]                                            5.29177208590000E-11

 *** Conversion factors ***

 [u] -> [a.u.]                                              1.82288848426455E+03
 [Angstrom] -> [Bohr] = [a.u.]                              1.88972613288564E+00
 [a.u.] = [Bohr] -> [Angstrom]                              5.29177208590000E-01
 [a.u.] -> [s]                                              2.41888432650478E-17
 [a.u.] -> [fs]                                             2.41888432650478E-02
 [a.u.] -> [J]                                              4.35974393937059E-18
 [a.u.] -> [N]                                              8.23872205491840E-08
 [a.u.] -> [K]                                              3.15774647902944E+05
 [a.u.] -> [kJ/mol]                                         2.62549961709828E+03
 [a.u.] -> [kcal/mol]                                       6.27509468713739E+02
 [a.u.] -> [Pa]                                             2.94210107994716E+13
 [a.u.] -> [bar]                                            2.94210107994716E+08
 [a.u.] -> [atm]                                            2.90362800883016E+08
 [a.u.] -> [eV]                                             2.72113838565563E+01
 [a.u.] -> [Hz]                                             6.57968392072181E+15
 [a.u.] -> [1/cm] (wave numbers)                            2.19474631370540E+05
 [a.u./Bohr**2] -> [1/cm]                                   5.14048714338585E+03
 

 CELL_TOP| Volume [angstrom^3]:                                         4232.876
 CELL_TOP| Vector a [angstrom    12.982     0.000     0.000    |a| =      12.982
 CELL_TOP| Vector b [angstrom    -6.491    11.243     0.000    |b| =      12.982
 CELL_TOP| Vector c [angstrom     0.000     0.000    29.000    |c| =      29.000
 CELL_TOP| Angle (b,c), alpha [degree]:                                   90.000
 CELL_TOP| Angle (a,c), beta  [degree]:                                   90.000
 CELL_TOP| Angle (a,b), gamma [degree]:                                  120.000
 CELL_TOP| Numerically orthorhombic:                                          NO
 
 GENERATE|  Preliminary Number of Bonds generated:                             0
 GENERATE|  Achieved consistency in connectivity generation.

 CELL| Volume [angstrom^3]:                                             4232.876
 CELL| Vector a [angstrom]:      12.982     0.000     0.000    |a| =      12.982
 CELL| Vector b [angstrom]:      -6.491    11.243     0.000    |b| =      12.982
 CELL| Vector c [angstrom]:       0.000     0.000    29.000    |c| =      29.000
 CELL| Angle (b,c), alpha [degree]:                                       90.000
 CELL| Angle (a,c), beta  [degree]:                                       90.000
 CELL| Angle (a,b), gamma [degree]:                                      120.000
 CELL| Numerically orthorhombic:                                              NO

 CELL_REF| Volume [angstrom^3]:                                         4232.876
 CELL_REF| Vector a [angstrom    12.982     0.000     0.000    |a| =      12.982
 CELL_REF| Vector b [angstrom    -6.491    11.243     0.000    |b| =      12.982
 CELL_REF| Vector c [angstrom     0.000     0.000    29.000    |c| =      29.000
 CELL_REF| Angle (b,c), alpha [degree]:                                   90.000
 CELL_REF| Angle (a,c), beta  [degree]:                                   90.000
 CELL_REF| Angle (a,b), gamma [degree]:                                  120.000
 CELL_REF| Numerically orthorhombic:                                          NO

 *******************************************************************************
 *******************************************************************************
 **                                                                           **
 **     #####                         ##              ##                      **
 **    ##   ##            ##          ##              ##                      **
 **   ##     ##                       ##            ######                    **
 **   ##     ##  ##   ##  ##   #####  ##  ##   ####   ##    #####    #####    **
 **   ##     ##  ##   ##  ##  ##      ## ##   ##      ##   ##   ##  ##   ##   **
 **   ##  ## ##  ##   ##  ##  ##      ####     ###    ##   ######   ######    **
 **    ##  ###   ##   ##  ##  ##      ## ##      ##   ##   ##       ##        **
 **     #######   #####   ##   #####  ##  ##  ####    ##    #####   ##        **
 **           ##                                                    ##        **
 **                                                                           **
 **                                                ... make the atoms dance   **
 **                                                                           **
 **            Copyright (C) by CP2K developers group (2000 - 2018)           **
 **                                                                           **
 *******************************************************************************

 DFT| Spin restricted Kohn-Sham (RKS) calculation                            RKS
 DFT| Multiplicity                                                             1
 DFT| Number of spin states                                                    1
 DFT| Charge                                                                   0
 DFT| Self-interaction correction (SIC)                                       NO
 DFT| Cutoffs: density                                              1.000000E-10
 DFT|          gradient                                             1.000000E-10
 DFT|          tau                                                  1.000000E-10
 DFT|          cutoff_smoothing_range                               0.000000E+00
 DFT| XC density smoothing                                                  NONE
 DFT| XC derivatives                                                          PW
 FUNCTIONAL| ROUTINE=NEW
 FUNCTIONAL| PBE:
 FUNCTIONAL| J.P.Perdew, K.Burke, M.Ernzerhof, Phys. Rev. Letter, vol. 77, n 18,
 FUNCTIONAL|  pp. 3865-3868, (1996){spin unpolarized}                           
 vdW POTENTIAL|                                                   Pair Potential
 vdW POTENTIAL|          DFT-D3 (Version 3.1)
 vdW POTENTIAL|          Potential Form: S. Grimme et al, JCP 132: 154104 (2010)
 vdW POTENTIAL|          Zero Damping
 vdW POTENTIAL|          Cutoff Radius [Bohr]:                             18.90
 vdW POTENTIAL|          s6 Scaling Factor:                               1.0000
 vdW POTENTIAL|          sr6 Scaling Factor:                              1.2170
 vdW POTENTIAL|          s8 Scaling Factor:                               0.7220
 vdW POTENTIAL|          Cutoff for CN calculation:                   0.1000E-05

 QS| Method:                                                                 GPW
 QS| Density plane wave grid type                        NON-SPHERICAL FULLSPACE
 QS| Number of grid levels:                                                    5
 QS| Density cutoff [a.u.]:                                                600.0
 QS| Multi grid cutoff [a.u.]: 1) grid level                               600.0
 QS|                           2) grid level                               200.0
 QS|                           3) grid level                                66.7
 QS|                           4) grid level                                22.2
 QS|                           5) grid level                                 7.4
 QS| Grid level progression factor:                                          3.0
 QS| Relative density cutoff [a.u.]:                                        20.0
 QS| Consistent realspace mapping and integration 
 QS| Interaction thresholds: eps_pgf_orb:                                1.0E-07
 QS|                         eps_filter_matrix:                          0.0E+00
 QS|                         eps_core_charge:                            1.0E-16
 QS|                         eps_rho_gspace:                             1.0E-14
 QS|                         eps_rho_rspace:                             1.0E-14
 QS|                         eps_gvg_rspace:                             1.0E-07
 QS|                         eps_ppl:                                    1.0E-02
 QS|                         eps_ppnl:                                   1.0E-09


 ATOMIC KIND INFORMATION

  1. Atomic kind: Ga                                    Number of atoms:      96

     Orbital Basis Set                                        DZVP-MOLOPT-SR-GTH

       Number of orbital shell sets:                                           1
       Number of orbital shells:                                               7
       Number of primitive Cartesian functions:                                6
       Number of Cartesian basis functions:                                   30
       Number of spherical basis functions:                                   25
       Norm type:                                                              2

       Normalised Cartesian orbitals:

                        Set   Shell   Orbital            Exponent    Coefficient

                          1       1    2s                7.066654       0.013136
                                                         3.428369      -0.094392
                                                         1.430064       0.265435
                                                         0.571611       0.056465
                                                         0.232197      -0.192187
                                                         0.076562      -0.044987

                          1       2    3s                7.066654      -0.098564
                                                         3.428369       0.010390
                                                         1.430064       0.351249
                                                         0.571611       0.182615
                                                         0.232197      -0.425358
                                                         0.076562       0.190349

                          1       3    3px               7.066654       0.002364
                                                         3.428369       0.019222
                                                         1.430064       0.250132
                                                         0.571611      -0.058486
                                                         0.232197      -0.159451
                                                         0.076562      -0.020696
                          1       3    3py               7.066654       0.002364
                                                         3.428369       0.019222
                                                         1.430064       0.250132
                                                         0.571611      -0.058486
                                                         0.232197      -0.159451
                                                         0.076562      -0.020696
                          1       3    3pz               7.066654       0.002364
                                                         3.428369       0.019222
                                                         1.430064       0.250132
                                                         0.571611      -0.058486
                                                         0.232197      -0.159451
                                                         0.076562      -0.020696

                          1       4    4px               7.066654       0.492448
                                                         3.428369      -0.614736
                                                         1.430064      -0.191654
                                                         0.571611       0.037801
                                                         0.232197       0.302315
                                                         0.076562      -0.071336
                          1       4    4py               7.066654       0.492448
                                                         3.428369      -0.614736
                                                         1.430064      -0.191654
                                                         0.571611       0.037801
                                                         0.232197       0.302315
                                                         0.076562      -0.071336
                          1       4    4pz               7.066654       0.492448
                                                         3.428369      -0.614736
                                                         1.430064      -0.191654
                                                         0.571611       0.037801
                                                         0.232197       0.302315
                                                         0.076562      -0.071336

                          1       5    4dx2              7.066654     -15.264855
                                                         3.428369      -5.345726
                                                         1.430064      -1.022732
                                                         0.571611      -0.123148
                                                         0.232197      -0.006983
                                                         0.076562      -0.000022
                          1       5    4dxy              7.066654     -26.439504
                                                         3.428369      -9.259069
                                                         1.430064      -1.771423
                                                         0.571611      -0.213299
                                                         0.232197      -0.012094
                                                         0.076562      -0.000037
                          1       5    4dxz              7.066654     -26.439504
                                                         3.428369      -9.259069
                                                         1.430064      -1.771423
                                                         0.571611      -0.213299
                                                         0.232197      -0.012094
                                                         0.076562      -0.000037
                          1       5    4dy2              7.066654     -15.264855
                                                         3.428369      -5.345726
                                                         1.430064      -1.022732
                                                         0.571611      -0.123148
                                                         0.232197      -0.006983
                                                         0.076562      -0.000022
                          1       5    4dyz              7.066654     -26.439504
                                                         3.428369      -9.259069
                                                         1.430064      -1.771423
                                                         0.571611      -0.213299
                                                         0.232197      -0.012094
                                                         0.076562      -0.000037
                          1       5    4dz2              7.066654     -15.264855
                                                         3.428369      -5.345726
                                                         1.430064      -1.022732
                                                         0.571611      -0.123148
                                                         0.232197      -0.006983
                                                         0.076562      -0.000022

                          1       6    5dx2              7.066654      -5.739265
                                                         3.428369      -2.129289
                                                         1.430064      -0.700423
                                                         0.571611       0.161606
                                                         0.232197       0.043513
                                                         0.076562       0.011205
                          1       6    5dxy              7.066654      -9.940698
                                                         3.428369      -3.688037
                                                         1.430064      -1.213168
                                                         0.571611       0.279909
                                                         0.232197       0.075368
                                                         0.076562       0.019407
                          1       6    5dxz              7.066654      -9.940698
                                                         3.428369      -3.688037
                                                         1.430064      -1.213168
                                                         0.571611       0.279909
                                                         0.232197       0.075368
                                                         0.076562       0.019407
                          1       6    5dy2              7.066654      -5.739265
                                                         3.428369      -2.129289
                                                         1.430064      -0.700423
                                                         0.571611       0.161606
                                                         0.232197       0.043513
                                                         0.076562       0.011205
                          1       6    5dyz              7.066654      -9.940698
                                                         3.428369      -3.688037
                                                         1.430064      -1.213168
                                                         0.571611       0.279909
                                                         0.232197       0.075368
                                                         0.076562       0.019407
                          1       6    5dz2              7.066654      -5.739265
                                                         3.428369      -2.129289
                                                         1.430064      -0.700423
                                                         0.571611       0.161606
                                                         0.232197       0.043513
                                                         0.076562       0.011205

                          1       7    5fx3              7.066654       0.705879
                                                         3.428369      -0.273976
                                                         1.430064       0.113667
                                                         0.571611       0.132480
                                                         0.232197       0.012437
                                                         0.076562       0.003241
                          1       7    5fx2y             7.066654       1.578393
                                                         3.428369      -0.612629
                                                         1.430064       0.254167
                                                         0.571611       0.296234
                                                         0.232197       0.027811
                                                         0.076562       0.007246
                          1       7    5fx2z             7.066654       1.578393
                                                         3.428369      -0.612629
                                                         1.430064       0.254167
                                                         0.571611       0.296234
                                                         0.232197       0.027811
                                                         0.076562       0.007246
                          1       7    5fxy2             7.066654       1.578393
                                                         3.428369      -0.612629
                                                         1.430064       0.254167
                                                         0.571611       0.296234
                                                         0.232197       0.027811
                                                         0.076562       0.007246
                          1       7    5fxyz             7.066654       2.733856
                                                         3.428369      -1.061105
                                                         1.430064       0.440230
                                                         0.571611       0.513092
                                                         0.232197       0.048170
                                                         0.076562       0.012551
                          1       7    5fxz2             7.066654       1.578393
                                                         3.428369      -0.612629
                                                         1.430064       0.254167
                                                         0.571611       0.296234
                                                         0.232197       0.027811
                                                         0.076562       0.007246
                          1       7    5fy3              7.066654       0.705879
                                                         3.428369      -0.273976
                                                         1.430064       0.113667
                                                         0.571611       0.132480
                                                         0.232197       0.012437
                                                         0.076562       0.003241
                          1       7    5fy2z             7.066654       1.578393
                                                         3.428369      -0.612629
                                                         1.430064       0.254167
                                                         0.571611       0.296234
                                                         0.232197       0.027811
                                                         0.076562       0.007246
                          1       7    5fyz2             7.066654       1.578393
                                                         3.428369      -0.612629
                                                         1.430064       0.254167
                                                         0.571611       0.296234
                                                         0.232197       0.027811
                                                         0.076562       0.007246
                          1       7    5fz3              7.066654       0.705879
                                                         3.428369      -0.273976
                                                         1.430064       0.113667
                                                         0.571611       0.132480
                                                         0.232197       0.012437
                                                         0.076562       0.003241

     GTH Potential information for                                   GTH-PBE-q13

       Description:                       Goedecker-Teter-Hutter pseudopotential
                                           Goedecker et al., PRB 54, 1703 (1996)
                                          Hartwigsen et al., PRB 58, 3641 (1998)
                                                      Krack, TCA 114, 145 (2005)

       Gaussian exponent of the core charge distribution:               2.082466
       Electronic configuration (s p d ...):                           2   1  10

       Parameters of the local part of the GTH pseudopotential:

                          rloc        C1          C2          C3          C4
                        0.490000

       Parameters of the non-local part of the GTH pseudopotential:

                   l      r(l)      h(i,j,l)

                   0    0.416777   10.475690   -4.921768    0.870706
                                   -4.921768    7.770178   -2.248152
                                    0.870706   -2.248152    1.784415
                   1    0.569627    1.777985    0.195860
                                    0.195860   -0.231744
                   2    0.238126  -16.248680

  2. Atomic kind: N                                     Number of atoms:      96

     Orbital Basis Set                                        DZVP-MOLOPT-SR-GTH

       Number of orbital shell sets:                                           1
       Number of orbital shells:                                               5
       Number of primitive Cartesian functions:                                5
       Number of Cartesian basis functions:                                   14
       Number of spherical basis functions:                                   13
       Norm type:                                                              2

       Normalised Cartesian orbitals:

                        Set   Shell   Orbital            Exponent    Coefficient

                          1       1    2s                7.341988       0.360561
                                                         2.542637       0.139177
                                                         0.888575      -0.289383
                                                         0.333802      -0.182244
                                                         0.112012      -0.019197

                          1       2    3s                7.341988       0.282000
                                                         2.542637       0.177875
                                                         0.888575      -0.278381
                                                         0.333802       0.008577
                                                         0.112012       0.154176

                          1       3    3px               7.341988      -1.188719
                                                         2.542637      -0.973969
                                                         0.888575      -0.501079
                                                         0.333802      -0.144894
                                                         0.112012      -0.013986
                          1       3    3py               7.341988      -1.188719
                                                         2.542637      -0.973969
                                                         0.888575      -0.501079
                                                         0.333802      -0.144894
                                                         0.112012      -0.013986
                          1       3    3pz               7.341988      -1.188719
                                                         2.542637      -0.973969
                                                         0.888575      -0.501079
                                                         0.333802      -0.144894
                                                         0.112012      -0.013986

                          1       4    4px               7.341988      -0.094798
                                                         2.542637       0.050069
                                                         0.888575      -0.114797
                                                         0.333802       0.144793
                                                         0.112012       0.066710
                          1       4    4py               7.341988      -0.094798
                                                         2.542637       0.050069
                                                         0.888575      -0.114797
                                                         0.333802       0.144793
                                                         0.112012       0.066710
                          1       4    4pz               7.341988      -0.094798
                                                         2.542637       0.050069
                                                         0.888575      -0.114797
                                                         0.333802       0.144793
                                                         0.112012       0.066710

                          1       5    4dx2              7.341988       1.354688
                                                         2.542637       0.690378
                                                         0.888575       0.855359
                                                         0.333802       0.091746
                                                         0.112012       0.001253
                          1       5    4dxy              7.341988       2.346389
                                                         2.542637       1.195770
                                                         0.888575       1.481524
                                                         0.333802       0.158910
                                                         0.112012       0.002169
                          1       5    4dxz              7.341988       2.346389
                                                         2.542637       1.195770
                                                         0.888575       1.481524
                                                         0.333802       0.158910
                                                         0.112012       0.002169
                          1       5    4dy2              7.341988       1.354688
                                                         2.542637       0.690378
                                                         0.888575       0.855359
                                                         0.333802       0.091746
                                                         0.112012       0.001253
                          1       5    4dyz              7.341988       2.346389
                                                         2.542637       1.195770
                                                         0.888575       1.481524
                                                         0.333802       0.158910
                                                         0.112012       0.002169
                          1       5    4dz2              7.341988       1.354688
                                                         2.542637       0.690378
                                                         0.888575       0.855359
                                                         0.333802       0.091746
                                                         0.112012       0.001253

     GTH Potential information for                                    GTH-PBE-q5

       Description:                       Goedecker-Teter-Hutter pseudopotential
                                           Goedecker et al., PRB 54, 1703 (1996)
                                          Hartwigsen et al., PRB 58, 3641 (1998)
                                                      Krack, TCA 114, 145 (2005)

       Gaussian exponent of the core charge distribution:               6.208322
       Electronic configuration (s p d ...):                               2   3

       Parameters of the local part of the GTH pseudopotential:

                          rloc        C1          C2          C3          C4
                        0.283791  -12.415226    1.868096

       Parameters of the non-local part of the GTH pseudopotential:

                   l      r(l)      h(i,j,l)

                   0    0.255405   13.630263
                   1    0.245495


 MOLECULE KIND INFORMATION


 All atoms are their own molecule, skipping detailed information


 TOTAL NUMBERS AND MAXIMUM NUMBERS

  Total number of            - Atomic kinds:                                   2
                             - Atoms:                                        192
                             - Shell sets:                                   192
                             - Shells:                                      1152
                             - Primitive Cartesian functions:               1056
                             - Cartesian basis functions:                   4224
                             - Spherical basis functions:                   3648

  Maximum angular momentum of- Orbital basis functions:                        3
                             - Local part of the GTH pseudopotential:          2
                             - Non-local part of the GTH pseudopotential:      4


 MODULE QUICKSTEP:  ATOMIC COORDINATES IN angstrom

  Atom  Kind  Element       X           Y           Z          Z(eff)       Mass

       1     1 Ga  31    0.000000    0.000000    0.000000     13.00      69.7230
       2     2 N    7    0.000000    1.873841    0.619431      5.00      14.0067
       3     1 Ga  31    0.000000    1.873841    2.593000     13.00      69.7230
       4     2 N    7    0.000000    0.000000    3.212431      5.00      14.0067
       5     1 Ga  31    0.000000    0.000000    5.186000     13.00      69.7230
       6     2 N    7    0.000000    1.873841    5.805431      5.00      14.0067
       7     1 Ga  31    0.000000    1.873841    7.779000     13.00      69.7230
       8     2 N    7    0.000000    0.000000    8.398431      5.00      14.0067
       9     1 Ga  31    0.000000    0.000000   10.372000     13.00      69.7230
      10     2 N    7    0.000000    1.873841   10.991431      5.00      14.0067
      11     1 Ga  31    0.000000    1.873841   12.965000     13.00      69.7230
      12     2 N    7    0.000000    0.000000   13.584431      5.00      14.0067
      13     1 Ga  31   -1.622794    2.810762    0.000000     13.00      69.7230
      14     2 N    7   -1.622794    4.684603    0.619431      5.00      14.0067
      15     1 Ga  31   -1.622794    4.684603    2.593000     13.00      69.7230
      16     2 N    7   -1.622794    2.810762    3.212431      5.00      14.0067
      17     1 Ga  31   -1.622794    2.810762    5.186000     13.00      69.7230
      18     2 N    7   -1.622794    4.684603    5.805431      5.00      14.0067
      19     1 Ga  31   -1.622794    4.684603    7.779000     13.00      69.7230
      20     2 N    7   -1.622794    2.810762    8.398431      5.00      14.0067
      21     1 Ga  31   -1.622794    2.810762   10.372000     13.00      69.7230
      22     2 N    7   -1.622794    4.684603   10.991431      5.00      14.0067
      23     1 Ga  31   -1.622794    4.684603   12.965000     13.00      69.7230
      24     2 N    7   -1.622794    2.810762   13.584431      5.00      14.0067
      25     1 Ga  31   -3.245588    5.621524    0.000000     13.00      69.7230
      26     2 N    7   -3.245588    7.495365    0.619431      5.00      14.0067
      27     1 Ga  31   -3.245588    7.495365    2.593000     13.00      69.7230
      28     2 N    7   -3.245588    5.621524    3.212431      5.00      14.0067
      29     1 Ga  31   -3.245588    5.621524    5.186000     13.00      69.7230
      30     2 N    7   -3.245588    7.495365    5.805431      5.00      14.0067
      31     1 Ga  31   -3.245588    7.495365    7.779000     13.00      69.7230
      32     2 N    7   -3.245588    5.621524    8.398431      5.00      14.0067
      33     1 Ga  31   -3.245588    5.621524   10.372000     13.00      69.7230
      34     2 N    7   -3.245588    7.495365   10.991431      5.00      14.0067
      35     1 Ga  31   -3.245588    7.495365   12.965000     13.00      69.7230
      36     2 N    7   -3.245588    5.621524   13.584431      5.00      14.0067
      37     1 Ga  31   -4.868383    8.432286    0.000000     13.00      69.7230
      38     2 N    7   -4.868383   10.306127    0.619431      5.00      14.0067
      39     1 Ga  31   -4.868383   10.306127    2.593000     13.00      69.7230
      40     2 N    7   -4.868383    8.432286    3.212431      5.00      14.0067
      41     1 Ga  31   -4.868383    8.432286    5.186000     13.00      69.7230
      42     2 N    7   -4.868383   10.306127    5.805431      5.00      14.0067
      43     1 Ga  31   -4.868383   10.306127    7.779000     13.00      69.7230
      44     2 N    7   -4.868383    8.432286    8.398431      5.00      14.0067
      45     1 Ga  31   -4.868383    8.432286   10.372000     13.00      69.7230
      46     2 N    7   -4.868383   10.306127   10.991431      5.00      14.0067
      47     1 Ga  31   -4.868383   10.306127   12.965000     13.00      69.7230
      48     2 N    7   -4.868383    8.432286   13.584431      5.00      14.0067
      49     1 Ga  31    3.245588    0.000000    0.000000     13.00      69.7230
      50     2 N    7    3.245588    1.873841    0.619431      5.00      14.0067
      51     1 Ga  31    3.245588    1.873841    2.593000     13.00      69.7230
      52     2 N    7    3.245588    0.000000    3.212431      5.00      14.0067
      53     1 Ga  31    3.245588    0.000000    5.186000     13.00      69.7230
      54     2 N    7    3.245588    1.873841    5.805431      5.00      14.0067
      55     1 Ga  31    3.245588    1.873841    7.779000     13.00      69.7230
      56     2 N    7    3.245588    0.000000    8.398431      5.00      14.0067
      57     1 Ga  31    3.245588    0.000000   10.372000     13.00      69.7230
      58     2 N    7    3.245588    1.873841   10.991431      5.00      14.0067
      59     1 Ga  31    3.245588    1.873841   12.965000     13.00      69.7230
      60     2 N    7    3.245588    0.000000   13.584431      5.00      14.0067
      61     1 Ga  31    1.622794    2.810762    0.000000     13.00      69.7230
      62     2 N    7    1.622794    4.684603    0.619431      5.00      14.0067
      63     1 Ga  31    1.622794    4.684603    2.593000     13.00      69.7230
      64     2 N    7    1.622794    2.810762    3.212431      5.00      14.0067
      65     1 Ga  31    1.622794    2.810762    5.186000     13.00      69.7230
      66     2 N    7    1.622794    4.684603    5.805431      5.00      14.0067
      67     1 Ga  31    1.622794    4.684603    7.779000     13.00      69.7230
      68     2 N    7    1.622794    2.810762    8.398431      5.00      14.0067
      69     1 Ga  31    1.622794    2.810762   10.372000     13.00      69.7230
      70     2 N    7    1.622794    4.684603   10.991431      5.00      14.0067
      71     1 Ga  31    1.622794    4.684603   12.965000     13.00      69.7230
      72     2 N    7    1.622794    2.810762   13.584431      5.00      14.0067
      73     1 Ga  31    0.000000    5.621524    0.000000     13.00      69.7230
      74     2 N    7    0.000000    7.495365    0.619431      5.00      14.0067
      75     1 Ga  31    0.000000    7.495365    2.593000     13.00      69.7230
      76     2 N    7    0.000000    5.621524    3.212431      5.00      14.0067
      77     1 Ga  31    0.000000    5.621524    5.186000     13.00      69.7230
      78     2 N    7    0.000000    7.495365    5.805431      5.00      14.0067
      79     1 Ga  31    0.000000    7.495365    7.779000     13.00      69.7230
      80     2 N    7    0.000000    5.621524    8.398431      5.00      14.0067
      81     1 Ga  31    0.000000    5.621524   10.372000     13.00      69.7230
      82     2 N    7    0.000000    7.495365   10.991431      5.00      14.0067
      83     1 Ga  31    0.000000    7.495365   12.965000     13.00      69.7230
      84     2 N    7    0.000000    5.621524   13.584431      5.00      14.0067
      85     1 Ga  31   -1.622794    8.432286    0.000000     13.00      69.7230
      86     2 N    7   -1.622794   10.306127    0.619431      5.00      14.0067
      87     1 Ga  31   -1.622794   10.306127    2.593000     13.00      69.7230
      88     2 N    7   -1.622794    8.432286    3.212431      5.00      14.0067
      89     1 Ga  31   -1.622794    8.432286    5.186000     13.00      69.7230
      90     2 N    7   -1.622794   10.306127    5.805431      5.00      14.0067
      91     1 Ga  31   -1.622794   10.306127    7.779000     13.00      69.7230
      92     2 N    7   -1.622794    8.432286    8.398431      5.00      14.0067
      93     1 Ga  31   -1.622794    8.432286   10.372000     13.00      69.7230
      94     2 N    7   -1.622794   10.306127   10.991431      5.00      14.0067
      95     1 Ga  31   -1.622794   10.306127   12.965000     13.00      69.7230
      96     2 N    7   -1.622794    8.432286   13.584431      5.00      14.0067
      97     1 Ga  31    6.491177    0.000000    0.000000     13.00      69.7230
      98     2 N    7    6.491177    1.873841    0.619431      5.00      14.0067
      99     1 Ga  31    6.491177    1.873841    2.593000     13.00      69.7230
     100     2 N    7    6.491177    0.000000    3.212431      5.00      14.0067
     101     1 Ga  31    6.491177    0.000000    5.186000     13.00      69.7230
     102     2 N    7    6.491177    1.873841    5.805431      5.00      14.0067
     103     1 Ga  31    6.491177    1.873841    7.779000     13.00      69.7230
     104     2 N    7    6.491177    0.000000    8.398431      5.00      14.0067
     105     1 Ga  31    6.491177    0.000000   10.372000     13.00      69.7230
     106     2 N    7    6.491177    1.873841   10.991431      5.00      14.0067
     107     1 Ga  31    6.491177    1.873841   12.965000     13.00      69.7230
     108     2 N    7    6.491177    0.000000   13.584431      5.00      14.0067
     109     1 Ga  31    4.868383    2.810762    0.000000     13.00      69.7230
     110     2 N    7    4.868383    4.684603    0.619431      5.00      14.0067
     111     1 Ga  31    4.868383    4.684603    2.593000     13.00      69.7230
     112     2 N    7    4.868383    2.810762    3.212431      5.00      14.0067
     113     1 Ga  31    4.868383    2.810762    5.186000     13.00      69.7230
     114     2 N    7    4.868383    4.684603    5.805431      5.00      14.0067
     115     1 Ga  31    4.868383    4.684603    7.779000     13.00      69.7230
     116     2 N    7    4.868383    2.810762    8.398431      5.00      14.0067
     117     1 Ga  31    4.868383    2.810762   10.372000     13.00      69.7230
     118     2 N    7    4.868383    4.684603   10.991431      5.00      14.0067
     119     1 Ga  31    4.868383    4.684603   12.965000     13.00      69.7230
     120     2 N    7    4.868383    2.810762   13.584431      5.00      14.0067
     121     1 Ga  31    3.245588    5.621524    0.000000     13.00      69.7230
     122     2 N    7    3.245588    7.495365    0.619431      5.00      14.0067
     123     1 Ga  31    3.245588    7.495365    2.593000     13.00      69.7230
     124     2 N    7    3.245588    5.621524    3.212431      5.00      14.0067
     125     1 Ga  31    3.245588    5.621524    5.186000     13.00      69.7230
     126     2 N    7    3.245588    7.495365    5.805431      5.00      14.0067
     127     1 Ga  31    3.245588    7.495365    7.779000     13.00      69.7230
     128     2 N    7    3.245588    5.621524    8.398431      5.00      14.0067
     129     1 Ga  31    3.245588    5.621524   10.372000     13.00      69.7230
     130     2 N    7    3.245588    7.495365   10.991431      5.00      14.0067
     131     1 Ga  31    3.245588    7.495365   12.965000     13.00      69.7230
     132     2 N    7    3.245588    5.621524   13.584431      5.00      14.0067
     133     1 Ga  31    1.622794    8.432286    0.000000     13.00      69.7230
     134     2 N    7    1.622794   10.306127    0.619431      5.00      14.0067
     135     1 Ga  31    1.622794   10.306127    2.593000     13.00      69.7230
     136     2 N    7    1.622794    8.432286    3.212431      5.00      14.0067
     137     1 Ga  31    1.622794    8.432286    5.186000     13.00      69.7230
     138     2 N    7    1.622794   10.306127    5.805431      5.00      14.0067
     139     1 Ga  31    1.622794   10.306127    7.779000     13.00      69.7230
     140     2 N    7    1.622794    8.432286    8.398431      5.00      14.0067
     141     1 Ga  31    1.622794    8.432286   10.372000     13.00      69.7230
     142     2 N    7    1.622794   10.306127   10.991431      5.00      14.0067
     143     1 Ga  31    1.622794   10.306127   12.965000     13.00      69.7230
     144     2 N    7    1.622794    8.432286   13.584431      5.00      14.0067
     145     1 Ga  31    9.736765    0.000000    0.000000     13.00      69.7230
     146     2 N    7    9.736765    1.873841    0.619431      5.00      14.0067
     147     1 Ga  31    9.736765    1.873841    2.593000     13.00      69.7230
     148     2 N    7    9.736765    0.000000    3.212431      5.00      14.0067
     149     1 Ga  31    9.736765    0.000000    5.186000     13.00      69.7230
     150     2 N    7    9.736765    1.873841    5.805431      5.00      14.0067
     151     1 Ga  31    9.736765    1.873841    7.779000     13.00      69.7230
     152     2 N    7    9.736765    0.000000    8.398431      5.00      14.0067
     153     1 Ga  31    9.736765    0.000000   10.372000     13.00      69.7230
     154     2 N    7    9.736765    1.873841   10.991431      5.00      14.0067
     155     1 Ga  31    9.736765    1.873841   12.965000     13.00      69.7230
     156     2 N    7    9.736765    0.000000   13.584431      5.00      14.0067
     157     1 Ga  31    8.113971    2.810762    0.000000     13.00      69.7230
     158     2 N    7    8.113971    4.684603    0.619431      5.00      14.0067
     159     1 Ga  31    8.113971    4.684603    2.593000     13.00      69.7230
     160     2 N    7    8.113971    2.810762    3.212431      5.00      14.0067
     161     1 Ga  31    8.113971    2.810762    5.186000     13.00      69.7230
     162     2 N    7    8.113971    4.684603    5.805431      5.00      14.0067
     163     1 Ga  31    8.113971    4.684603    7.779000     13.00      69.7230
     164     2 N    7    8.113971    2.810762    8.398431      5.00      14.0067
     165     1 Ga  31    8.113971    2.810762   10.372000     13.00      69.7230
     166     2 N    7    8.113971    4.684603   10.991431      5.00      14.0067
     167     1 Ga  31    8.113971    4.684603   12.965000     13.00      69.7230
     168     2 N    7    8.113971    2.810762   13.584431      5.00      14.0067
     169     1 Ga  31    6.491177    5.621524    0.000000     13.00      69.7230
     170     2 N    7    6.491177    7.495365    0.619431      5.00      14.0067
     171     1 Ga  31    6.491177    7.495365    2.593000     13.00      69.7230
     172     2 N    7    6.491177    5.621524    3.212431      5.00      14.0067
     173     1 Ga  31    6.491177    5.621524    5.186000     13.00      69.7230
     174     2 N    7    6.491177    7.495365    5.805431      5.00      14.0067
     175     1 Ga  31    6.491177    7.495365    7.779000     13.00      69.7230
     176     2 N    7    6.491177    5.621524    8.398431      5.00      14.0067
     177     1 Ga  31    6.491177    5.621524   10.372000     13.00      69.7230
     178     2 N    7    6.491177    7.495365   10.991431      5.00      14.0067
     179     1 Ga  31    6.491177    7.495365   12.965000     13.00      69.7230
     180     2 N    7    6.491177    5.621524   13.584431      5.00      14.0067
     181     1 Ga  31    4.868383    8.432286    0.000000     13.00      69.7230
     182     2 N    7    4.868383   10.306127    0.619431      5.00      14.0067
     183     1 Ga  31    4.868383   10.306127    2.593000     13.00      69.7230
     184     2 N    7    4.868383    8.432286    3.212431      5.00      14.0067
     185     1 Ga  31    4.868383    8.432286    5.186000     13.00      69.7230
     186     2 N    7    4.868383   10.306127    5.805431      5.00      14.0067
     187     1 Ga  31    4.868383   10.306127    7.779000     13.00      69.7230
     188     2 N    7    4.868383    8.432286    8.398431      5.00      14.0067
     189     1 Ga  31    4.868383    8.432286   10.372000     13.00      69.7230
     190     2 N    7    4.868383   10.306127   10.991431      5.00      14.0067
     191     1 Ga  31    4.868383   10.306127   12.965000     13.00      69.7230
     192     2 N    7    4.868383    8.432286   13.584431      5.00      14.0067




 SCF PARAMETERS         Density guess:                                    ATOMIC
                        --------------------------------------------------------
                        max_scf:                                             100
                        max_scf_history:                                       0
                        max_diis:                                              4
                        --------------------------------------------------------
                        eps_scf:                                        5.00E-06
                        eps_scf_history:                                0.00E+00
                        eps_diis:                                       1.00E-01
                        eps_eigval:                                     1.00E-05
                        --------------------------------------------------------
                        level_shift [a.u.]:                                 0.00
                        --------------------------------------------------------
                        Outer loop SCF in use 
                        No variables optimised in outer loop
                        eps_scf                                         5.00E-06
                        max_scf                                                4
                        No outer loop optimization
                        step_size                                       5.00E-01

 PW_GRID| Information for grid number                                          1
 PW_GRID| Grid distributed over                                    80 processors
 PW_GRID| Real space group dimensions                                    80    1
 PW_GRID| the grid is blocked:                                                NO
 PW_GRID| Cutoff [a.u.]                                                    600.0
 PW_GRID| spherical cutoff:                                                   NO
 PW_GRID|   Bounds   1           -144     143                Points:         288
 PW_GRID|   Bounds   2           -144     143                Points:         288
 PW_GRID|   Bounds   3           -312     312                Points:         625
 PW_GRID| Volume element (a.u.^3)  0.5510E-03     Volume (a.u.^3)     28564.8611
 PW_GRID| Grid span                                                    FULLSPACE
 PW_GRID|   Distribution                         Average         Max         Min
 PW_GRID|   G-Vectors                           648000.0      648000      648000
 PW_GRID|   G-Rays                                2250.0        2250        2250
 PW_GRID|   Real Space Points                   648000.0      720000      540000

 PW_GRID| Information for grid number                                          2
 PW_GRID| Grid distributed over                                    80 processors
 PW_GRID| Real space group dimensions                                    80    1
 PW_GRID| the grid is blocked:                                                NO
 PW_GRID| Cutoff [a.u.]                                                    200.0
 PW_GRID| spherical cutoff:                                                   NO
 PW_GRID|   Bounds   1            -80      79                Points:         160
 PW_GRID|   Bounds   2            -80      79                Points:         160
 PW_GRID|   Bounds   3           -180     179                Points:         360
 PW_GRID| Volume element (a.u.^3)  0.3099E-02     Volume (a.u.^3)     28564.8611
 PW_GRID| Grid span                                                    FULLSPACE
 PW_GRID|   Distribution                         Average         Max         Min
 PW_GRID|   G-Vectors                           115200.0      115360      115040
 PW_GRID|   G-Rays                                 720.0         721         719
 PW_GRID|   Real Space Points                   115200.0      115200      115200

 PW_GRID| Information for grid number                                          3
 PW_GRID| Grid distributed over                                    80 processors
 PW_GRID| Real space group dimensions                                    80    1
 PW_GRID| the grid is blocked:                                                NO
 PW_GRID| Cutoff [a.u.]                                                     66.7
 PW_GRID| spherical cutoff:                                                   NO
 PW_GRID|   Bounds   1            -48      47                Points:          96
 PW_GRID|   Bounds   2            -48      47                Points:          96
 PW_GRID|   Bounds   3           -108     107                Points:         216
 PW_GRID| Volume element (a.u.^3)  0.1435E-01     Volume (a.u.^3)     28564.8611
 PW_GRID| Grid span                                                    FULLSPACE
 PW_GRID|   Distribution                         Average         Max         Min
 PW_GRID|   G-Vectors                            24883.2       25728       23616
 PW_GRID|   G-Rays                                 259.2         268         246
 PW_GRID|   Real Space Points                    24883.2       41472       20736

 PW_GRID| Information for grid number                                          4
 PW_GRID| Grid distributed over                                    80 processors
 PW_GRID| Real space group dimensions                                     8   10
 PW_GRID| the grid is blocked:                                                NO
 PW_GRID| Cutoff [a.u.]                                                     22.2
 PW_GRID| spherical cutoff:                                                   NO
 PW_GRID|   Bounds   1            -27      26                Points:          54
 PW_GRID|   Bounds   2            -27      26                Points:          54
 PW_GRID|   Bounds   3            -60      59                Points:         120
 PW_GRID| Volume element (a.u.^3)  0.8163E-01     Volume (a.u.^3)     28564.8611
 PW_GRID| Grid span                                                    FULLSPACE
 PW_GRID|   Distribution                         Average         Max         Min
 PW_GRID|   G-Vectors                             4374.0        4590        4050
 PW_GRID|   G-Rays                                  81.0          85          75
 PW_GRID|   Real Space Points                     4374.0        5040        3600

 PW_GRID| Information for grid number                                          5
 PW_GRID| Grid distributed over                                    80 processors
 PW_GRID| Real space group dimensions                                     8   10
 PW_GRID| the grid is blocked:                                                NO
 PW_GRID| Cutoff [a.u.]                                                      7.4
 PW_GRID| spherical cutoff:                                                   NO
 PW_GRID|   Bounds   1            -16      15                Points:          32
 PW_GRID|   Bounds   2            -16      15                Points:          32
 PW_GRID|   Bounds   3            -36      35                Points:          72
 PW_GRID| Volume element (a.u.^3)  0.3874         Volume (a.u.^3)     28564.8611
 PW_GRID| Grid span                                                    FULLSPACE
 PW_GRID|   Distribution                         Average         Max         Min
 PW_GRID|   G-Vectors                              921.6        1120         512
 PW_GRID|   G-Rays                                  28.8          35          16
 PW_GRID|   Real Space Points                      921.6        1152         864

 POISSON| Solver                                                        PERIODIC
 POISSON| Periodicity                                                        XYZ

 RS_GRID| Information for grid number                                          1
 RS_GRID|   Bounds   1           -144     143                Points:         288
 RS_GRID|   Bounds   2           -144     143                Points:         288
 RS_GRID|   Bounds   3           -312     312                Points:         625
 RS_GRID| Real space distribution over                                  5 groups
 RS_GRID| Real space distribution along direction                              2
 RS_GRID| Border size                                                         79
 RS_GRID| Real space distribution over                                 16 groups
 RS_GRID| Real space distribution along direction                              3
 RS_GRID| Border size                                                         79
 RS_GRID|   Distribution                         Average         Max         Min
 RS_GRID|   Planes                                 215.6         216         215
 RS_GRID|   Distribution                         Average         Max         Min
 RS_GRID|   Planes                                 197.1         198         197

 RS_GRID| Information for grid number                                          2
 RS_GRID|   Bounds   1            -80      79                Points:         160
 RS_GRID|   Bounds   2            -80      79                Points:         160
 RS_GRID|   Bounds   3           -180     179                Points:         360
 RS_GRID| Real space distribution over                                  5 groups
 RS_GRID| Real space distribution along direction                              2
 RS_GRID| Border size                                                         45
 RS_GRID| Real space distribution over                                 16 groups
 RS_GRID| Real space distribution along direction                              3
 RS_GRID| Border size                                                         45
 RS_GRID|   Distribution                         Average         Max         Min
 RS_GRID|   Planes                                 122.0         122         122
 RS_GRID|   Distribution                         Average         Max         Min
 RS_GRID|   Planes                                 112.5         113         112

 RS_GRID| Information for grid number                                          3
 RS_GRID|   Bounds   1            -48      47                Points:          96
 RS_GRID|   Bounds   2            -48      47                Points:          96
 RS_GRID|   Bounds   3           -108     107                Points:         216
 RS_GRID| Real space fully replicated
 RS_GRID| Group size                                                           1

 RS_GRID| Information for grid number                                          4
 RS_GRID|   Bounds   1            -27      26                Points:          54
 RS_GRID|   Bounds   2            -27      26                Points:          54
 RS_GRID|   Bounds   3            -60      59                Points:         120
 RS_GRID| Real space fully replicated
 RS_GRID| Group size                                                           1

 RS_GRID| Information for grid number                                          5
 RS_GRID|   Bounds   1            -16      15                Points:          32
 RS_GRID|   Bounds   2            -16      15                Points:          32
 RS_GRID|   Bounds   3            -36      35                Points:          72
 RS_GRID| Real space fully replicated
 RS_GRID| Group size                                                           1

 BFGS| Use rational function optimization for step estimation:                NO
 BFGS| Use model Hessian for initial guess:                                  YES
 BFGS| Restart Hessian:                                                       NO
 BFGS| Trust radius:                                                       0.472

 *******************************************************************************
 ***                     STARTING GEOMETRY OPTIMIZATION                      ***
 ***                                   BFGS                                  ***
 *******************************************************************************

 Number of electrons:                                                       1728
 Number of occupied orbitals:                                                864
 Number of molecular orbitals:                                               864

 Number of orbital functions:                                               3648
 Number of independent orbital functions:                                   3648

 Extrapolation method: initial_guess

 Atomic guess: The first density matrix is obtained in terms of atomic orbitals
               and electronic configurations assigned to each atomic kind

 Guess for atomic kind: Ga

 Electronic structure
    Total number of core electrons                                         18.00
    Total number of valence electrons                                      13.00
    Total number of electrons                                              31.00
    Multiplicity                                                   not specified
    S   [  2.00  2.00  2.00] 2.00
    P   [  6.00  6.00] 1.00
    D     10.00
 

 *******************************************************************************
                  Iteration          Convergence                     Energy [au]
 *******************************************************************************
                          1         22.1524                     -44.516413224335
                          2         1.91043                     -73.305924441898
                          3        0.524291E-01                 -74.147756188929
                          4        0.359055E-02                 -74.148100266765
                          5        0.137660E-02                 -74.148101509825
                          6        0.820576E-03                 -74.148101603074
                          7        0.577059E-04                 -74.148101657024
                          8        0.577427E-08                 -74.148101657328

 Energy components [Hartree]           Total Energy ::          -74.148101657328
                                        Band Energy ::           -7.354344558070
                                     Kinetic Energy ::           99.564392614967
                                   Potential Energy ::         -173.712494272295
                                      Virial (-V/T) ::            1.744725094081
                                        Core Energy ::         -134.243973097364
                                          XC Energy ::           -9.781240980901
                                     Coulomb Energy ::           69.877112420937
                       Total Pseudopotential Energy ::         -233.873649274629
                       Local Pseudopotential Energy ::         -163.402683521975
                    Nonlocal Pseudopotential Energy ::          -70.470965752654
                                        Confinement ::            0.652835622975

 Orbital energies  State     L     Occupation   Energy[a.u.]          Energy[eV]

                       1     0          2.000      -0.307238           -8.360378
 
                       1     1          1.000      -0.061461           -1.672442
 
                       1     2         10.000      -0.667841          -18.172870
 

 Total Electron Density at R=0:                                         0.000004

 Guess for atomic kind: N

 Electronic structure
    Total number of core electrons                                          2.00
    Total number of valence electrons                                       5.00
    Total number of electrons                                               7.00
    Multiplicity                                                   not specified
    S   [  2.00] 2.00
    P      3.00
 

 *******************************************************************************
                  Iteration          Convergence                     Energy [au]
 *******************************************************************************
                          1        0.314603                      -9.513311037226
                          2        0.240982                      -9.524715106536
                          3        0.171660E-02                  -9.545365478140
                          4        0.189497E-03                  -9.545366407342
                          5        0.115171E-03                  -9.545366414563
                          6        0.842367E-04                  -9.545366416530
                          7        0.416372E-07                  -9.545366418792

 Energy components [Hartree]           Total Energy ::           -9.545366418792
                                        Band Energy ::           -2.053285301135
                                     Kinetic Energy ::            6.740378038236
                                   Potential Energy ::          -16.285744457028
                                      Virial (-V/T) ::            2.416147041701
                                        Core Energy ::          -15.542519058333
                                          XC Energy ::           -2.163416690174
                                     Coulomb Energy ::            8.160569329715
                       Total Pseudopotential Energy ::          -22.320027271038
                       Local Pseudopotential Energy ::          -23.240219346165
                    Nonlocal Pseudopotential Energy ::            0.920192075127
                                        Confinement ::            0.371301744695

 Orbital energies  State     L     Occupation   Energy[a.u.]          Energy[eV]

                       1     0          2.000      -0.663125          -18.044549
 
                       1     1          3.000      -0.242345           -6.594545
 

 Total Electron Density at R=0:                                         0.000019
 Re-scaling the density matrix to get the right number of electrons
                  # Electrons              Trace(P)               Scaling factor
                         1728              1728.000                        1.000


 SCF WAVEFUNCTION OPTIMIZATION

  ----------------------------------- OT ---------------------------------------
  Minimizer      : CG                  : conjugate gradient
  Preconditioner : FULL_ALL            : diagonalization, state selective
  Precond_solver : DEFAULT
  Line search    : 2PNT                : 2 energies, one gradient
  stepsize       :    0.15000000                  energy_gap     :    0.08000000
  eps_taylor     :   0.10000E-15                  max_taylor     :             4
  ----------------------------------- OT ---------------------------------------

  Step     Update method      Time    Convergence         Total energy    Change
  ------------------------------------------------------------------------------
     1 OT CG       0.15E+00    6.9     0.03023966     -8018.8551002358 -8.02E+03
     2 OT LS       0.63E-01    3.0                    -7938.4696101288
     3 OT CG       0.63E-01    6.6     0.18284075     -7845.4173269302  1.73E+02
     4 OT LS       0.29E-01    3.0                    -7335.8539648547
     5 OT CG       0.29E-01    6.4     0.25527752     -7688.9290624028  1.56E+02
     6 OT LS       0.14E-01    3.0                    -7392.4397354807
     7 OT CG       0.14E-01    6.6     0.10001245     -7893.1181788297 -2.04E+02
     8 OT LS       0.71E-02    3.0                    -7893.9354069450
     9 OT CG       0.71E-02    6.8     0.07414830     -7942.0828920080 -4.90E+01
    10 OT LS       0.47E-02    3.0                    -7973.4091535612
    11 OT CG       0.47E-02    6.4     0.03895841     -7980.5173713633 -3.84E+01
    12 OT LS       0.12E-01    3.0                    -7998.4954111320
    13 OT CG       0.12E-01    6.7     0.01724662     -8008.4320465193 -2.79E+01
    14 OT LS       0.27E-01    3.0                    -8017.2854846502
    15 OT CG       0.27E-01    9.7     0.02106914     -8023.8412501045 -1.54E+01
    16 OT LS       0.10E-01    4.2                    -8010.0098275283
    17 OT CG       0.10E-01    9.1     0.01645188     -8034.8432599231 -1.10E+01
    18 OT LS       0.22E-01    4.2                    -8042.7024933206
    19 OT CG       0.22E-01    9.0     0.02191568     -8044.9770505167 -1.01E+01
    20 OT LS       0.15E-01    3.9                    -8053.6690643304
    21 OT CG       0.15E-01    8.9     0.01692573     -8053.9201987173 -8.94E+00
    22 OT LS       0.17E-01    4.1                    -8061.5970008768
    23 OT CG       0.17E-01    8.7     0.01158565     -8061.5763820495 -7.66E+00
    24 OT LS       0.23E-01    3.9                    -8065.6645057108
    25 OT CG       0.23E-01    8.7     0.00751448     -8066.2704264330 -4.69E+00
    26 OT LS       0.64E-01    3.3                    -8069.8520041577
    27 OT CG       0.64E-01    6.6     0.01071335     -8071.5572653129 -5.29E+00
    28 OT LS       0.19E-01    3.0                    -8061.2365606862
    29 OT CG       0.19E-01    6.4     0.00968774     -8073.9821151850 -2.42E+00
    30 OT LS       0.20E-01    3.0                    -8076.9026967434
    31 OT CG       0.20E-01    7.6     0.00633666     -8076.9090087607 -2.93E+00
    32 OT LS       0.18E-01    4.3                    -8078.0634503150
    33 OT CG       0.18E-01    8.9     0.00443500     -8078.0835042176 -1.17E+00
    34 OT LS       0.70E-01    4.4                    -8079.0490827741
    35 OT CG       0.70E-01    8.9     0.00556364     -8080.5202439566 -2.44E+00
    36 OT LS       0.22E-01    3.9                    -8076.3349453006
    37 OT CG       0.22E-01    9.0     0.00533418     -8081.4599747501 -9.40E-01
    38 OT LS       0.56E-01    3.8                    -8082.7574049178
    39 OT CG       0.56E-01    8.9     0.00595067     -8083.3258031418 -1.87E+00
    40 OT LS       0.30E-01    3.9                    -8083.6748307371
    41 OT CG       0.30E-01    8.8     0.00554703     -8084.8618351093 -1.54E+00
    42 OT LS       0.18E-01    3.9                    -8085.3160779122
    43 OT CG       0.18E-01    8.9     0.00368360     -8085.6680864415 -8.06E-01
    44 OT LS       0.71E-01    4.1                    -8086.3368548848
    45 OT CG       0.71E-01    8.7     0.00428933     -8087.2572195731 -1.59E+00
    46 OT LS       0.40E-01    4.0                    -8087.6722498001
    47 OT CG       0.40E-01    8.9     0.00394159     -8088.2348311068 -9.78E-01
    48 OT LS       0.43E-01    3.8                    -8089.2401804980
    49 OT CG       0.43E-01    8.4     0.00473373     -8089.2331186231 -9.98E-01
    50 OT LS       0.34E-01    3.0                    -8090.2255678808
    51 OT CG       0.34E-01    6.4     0.00336243     -8090.2787812411 -1.05E+00
    52 OT LS       0.81E-01    3.3                    -8091.2361343479
    53 OT CG       0.81E-01    6.4     0.00345931     -8091.8950570301 -1.62E+00
    54 OT LS       0.20E-01    3.0                    -8088.1570975535
    55 OT CG       0.20E-01    6.7     0.00303481     -8092.3967259546 -5.02E-01
    56 OT LS       0.57E-01    3.0                    -8092.9367232145
    57 OT CG       0.57E-01    6.4     0.00319480     -8093.3332978327 -9.37E-01
    58 OT LS       0.26E-01    3.0                    -8093.2042330674
    59 OT CG       0.26E-01    6.4     0.00317247     -8093.7199244256 -3.87E-01
    60 OT LS       0.66E-01    3.0                    -8094.3556912725
    61 OT CG       0.66E-01    6.4     0.00339005     -8094.5933117191 -8.73E-01
    62 OT LS       0.64E-01    3.2                    -8095.4156694129
    63 OT CG       0.64E-01    6.4     0.00347643     -8095.4157082721 -8.22E-01
    64 OT LS       0.60E-01    3.0                    -8096.5623250421
    65 OT CG       0.60E-01    6.8     0.00274509     -8096.5652181188 -1.15E+00
    66 OT LS       0.87E-01    3.0                    -8097.5144375737
    67 OT CG       0.87E-01    8.7     0.00460247     -8097.5638303421 -9.99E-01
    68 OT LS       0.28E-01    4.1                    -8094.6728485524
    69 OT CG       0.28E-01    8.6     0.00270638     -8098.1059412753 -5.42E-01
    70 OT LS       0.73E-01    3.9                    -8098.5436951347
    71 OT CG       0.73E-01    8.6     0.00243170     -8098.8446585251 -7.39E-01
    72 OT LS       0.44E-01    4.0                    -8099.0908459515
    73 OT CG       0.44E-01    8.9     0.00323128     -8099.2947476235 -4.50E-01
    74 OT LS       0.37E-01    4.0                    -8099.8964802712
    75 OT CG       0.37E-01    8.9     0.00231608     -8099.9081984952 -6.13E-01
    76 OT LS       0.36E-01    3.9                    -8100.2202156134
    77 OT CG       0.36E-01    8.6     0.00245836     -8100.2196323931 -3.11E-01
    78 OT LS       0.30E-01    3.9                    -8100.5052825041
    79 OT CG       0.30E-01    8.0     0.00180139     -8100.5250804678 -3.05E-01
    80 OT LS       0.94E-01    3.0                    -8100.7736926647
    81 OT CG       0.94E-01    6.4     0.00247405     -8100.9744215557 -4.49E-01
    82 OT LS       0.33E-01    3.0                    -8100.2005620620
    83 OT CG       0.33E-01    6.6     0.00257914     -8101.2297683512 -2.55E-01
    84 OT LS       0.11E+00    3.3                    -8101.7447005416
    85 OT CG       0.11E+00    7.9     0.00370302     -8102.0958477512 -8.66E-01
[...]
     63       Ga     1      13.000         13.865                        -0.865
     64       N      2       5.000          4.099                         0.901
     65       Ga     1      13.000         13.885                        -0.885
     66       N      2       5.000          4.128                         0.872
     67       Ga     1      13.000         13.872                        -0.872
     68       N      2       5.000          4.133                         0.867
     69       Ga     1      13.000         13.902                        -0.902
     70       N      2       5.000          4.121                         0.879
     71       Ga     1      13.000         13.985                        -0.985
     72       N      2       5.000          4.170                         0.830
     73       Ga     1      13.000         13.692                        -0.692
     74       N      2       5.000          4.160                         0.840
     75       Ga     1      13.000         13.855                        -0.855
     76       N      2       5.000          4.143                         0.857
     77       Ga     1      13.000         13.863                        -0.863
     78       N      2       5.000          4.129                         0.871
     79       Ga     1      13.000         13.876                        -0.876
     80       N      2       5.000          4.132                         0.868
     81       Ga     1      13.000         13.899                        -0.899
     82       N      2       5.000          4.125                         0.875
     83       Ga     1      13.000         14.000                        -1.000
     84       N      2       5.000          4.177                         0.823
     85       Ga     1      13.000         13.641                        -0.641
     86       N      2       5.000          4.158                         0.842
     87       Ga     1      13.000         13.860                        -0.860
     88       N      2       5.000          4.101                         0.899
     89       Ga     1      13.000         13.887                        -0.887
     90       N      2       5.000          4.126                         0.874
     91       Ga     1      13.000         13.881                        -0.881
     92       N      2       5.000          4.131                         0.869
     93       Ga     1      13.000         13.899                        -0.899
     94       N      2       5.000          4.127                         0.873
     95       Ga     1      13.000         13.996                        -0.996
     96       N      2       5.000          4.174                         0.826
     97       Ga     1      13.000         13.670                        -0.670
     98       N      2       5.000          4.129                         0.871
     99       Ga     1      13.000         13.805                        -0.805
    100       N      2       5.000          4.141                         0.859
    101       Ga     1      13.000         13.869                        -0.869
    102       N      2       5.000          4.133                         0.867
    103       Ga     1      13.000         13.874                        -0.874
    104       N      2       5.000          4.119                         0.881
    105       Ga     1      13.000         13.916                        -0.916
    106       N      2       5.000          4.126                         0.874
    107       Ga     1      13.000         13.995                        -0.995
    108       N      2       5.000          4.200                         0.800
    109       Ga     1      13.000         13.681                        -0.681
    110       N      2       5.000          4.182                         0.818
    111       Ga     1      13.000         13.862                        -0.862
    112       N      2       5.000          4.141                         0.859
    113       Ga     1      13.000         13.863                        -0.863
    114       N      2       5.000          4.126                         0.874
    115       Ga     1      13.000         13.878                        -0.878
    116       N      2       5.000          4.126                         0.874
    117       Ga     1      13.000         13.896                        -0.896
    118       N      2       5.000          4.127                         0.873
    119       Ga     1      13.000         13.987                        -0.987
    120       N      2       5.000          4.175                         0.825
    121       Ga     1      13.000         13.707                        -0.707
    122       N      2       5.000          4.145                         0.855
    123       Ga     1      13.000         13.807                        -0.807
    124       N      2       5.000          4.130                         0.870
    125       Ga     1      13.000         13.866                        -0.866
    126       N      2       5.000          4.134                         0.866
    127       Ga     1      13.000         13.875                        -0.875
    128       N      2       5.000          4.128                         0.872
    129       Ga     1      13.000         13.905                        -0.905
    130       N      2       5.000          4.137                         0.863
    131       Ga     1      13.000         13.985                        -0.985
    132       N      2       5.000          4.199                         0.801
    133       Ga     1      13.000         13.669                        -0.669
    134       N      2       5.000          4.151                         0.849
    135       Ga     1      13.000         13.867                        -0.867
    136       N      2       5.000          4.140                         0.860
    137       Ga     1      13.000         13.865                        -0.865
    138       N      2       5.000          4.126                         0.874
    139       Ga     1      13.000         13.873                        -0.873
    140       N      2       5.000          4.126                         0.874
    141       Ga     1      13.000         13.904                        -0.904
    142       N      2       5.000          4.122                         0.878
    143       Ga     1      13.000         13.987                        -0.987
    144       N      2       5.000          4.174                         0.826
    145       Ga     1      13.000         13.676                        -0.676
    146       N      2       5.000          4.154                         0.846
    147       Ga     1      13.000         13.857                        -0.857
    148       N      2       5.000          4.095                         0.905
    149       Ga     1      13.000         13.890                        -0.890
    150       N      2       5.000          4.127                         0.873
    151       Ga     1      13.000         13.875                        -0.875
    152       N      2       5.000          4.130                         0.870
    153       Ga     1      13.000         13.892                        -0.892
    154       N      2       5.000          4.116                         0.884
    155       Ga     1      13.000         13.991                        -0.991
    156       N      2       5.000          4.179                         0.821
    157       Ga     1      13.000         13.679                        -0.679
    158       N      2       5.000          4.165                         0.835
    159       Ga     1      13.000         13.877                        -0.877
    160       N      2       5.000          4.137                         0.863
    161       Ga     1      13.000         13.872                        -0.872
    162       N      2       5.000          4.119                         0.881
    163       Ga     1      13.000         13.884                        -0.884
    164       N      2       5.000          4.130                         0.870
    165       Ga     1      13.000         13.912                        -0.912
    166       N      2       5.000          4.128                         0.872
    167       Ga     1      13.000         13.993                        -0.993
    168       N      2       5.000          4.168                         0.832
    169       Ga     1      13.000         13.523                        -0.523
    170       N      2       5.000          4.161                         0.839
    171       Ga     1      13.000         13.866                        -0.866
    172       N      2       5.000          4.100                         0.900
    173       Ga     1      13.000         13.892                        -0.892
    174       N      2       5.000          4.129                         0.871
    175       Ga     1      13.000         13.877                        -0.877
    176       N      2       5.000          4.128                         0.872
    177       Ga     1      13.000         13.913                        -0.913
    178       N      2       5.000          4.113                         0.887
    179       Ga     1      13.000         14.008                        -1.008
    180       N      2       5.000          4.170                         0.830
    181       Ga     1      13.000         13.689                        -0.689
    182       N      2       5.000          4.147                         0.853
    183       Ga     1      13.000         13.861                        -0.861
    184       N      2       5.000          4.144                         0.856
    185       Ga     1      13.000         13.869                        -0.869
    186       N      2       5.000          4.127                         0.873
    187       Ga     1      13.000         13.873                        -0.873
    188       N      2       5.000          4.128                         0.872
    189       Ga     1      13.000         13.905                        -0.905
    190       N      2       5.000          4.127                         0.873
    191       Ga     1      13.000         13.990                        -0.990
    192       N      2       5.000          4.175                         0.825

  Total Charge                                                            0.000
 !-----------------------------------------------------------------------------!

 ENERGY| Total FORCE_EVAL ( QS ) energy (a.u.):            -8117.843114056061495


 --------  Informations at step =    21 ------------
  Optimization Method        =                 BFGS
  Total Energy               =     -8117.8431140561
  Real energy change         =         0.0035142278
  Predicted change in energy =        -0.0020729787
  Scaling factor             =         0.8478976142
  Step size                  =         0.4724315332
  Trust radius               =         0.4724315332
  Decrease in energy         =                   NO
  Used time                  =              586.821

  Convergence check :
  Max. step size             =         0.4724315332
  Conv. limit for step size  =         0.0030000000
  Convergence in step size   =                   NO
  RMS step size              =         0.0287816620
  Conv. limit for RMS step   =         0.0015000000
  Convergence in RMS step    =                   NO
  Max. gradient              =         0.0122245079
  Conv. limit for gradients  =         0.0004500000
  Conv. for gradients        =                   NO
  RMS gradient               =         0.0020355470
  Conv. limit for RMS grad.  =         0.0003000000
  Conv. for gradients        =                   NO
 ---------------------------------------------------

 --------------------------
 OPTIMIZATION STEP:     22
 --------------------------

 Number of electrons:                                                       1728
 Number of occupied orbitals:                                                864
 Number of molecular orbitals:                                               864

 Number of orbital functions:                                               3648
 Number of independent orbital functions:                                   3648

 Parameters for the always stable predictor-corrector (ASPC) method:

  ASPC order: 3

  B(1) =   3.000000
  B(2) =  -3.428571
  B(3) =   1.928571
  B(4) =  -0.571429
  B(5) =   0.071429

 Extrapolation method: ASPC


 SCF WAVEFUNCTION OPTIMIZATION

  ----------------------------------- OT ---------------------------------------
  Minimizer      : CG                  : conjugate gradient
  Preconditioner : FULL_ALL            : diagonalization, state selective
  Precond_solver : DEFAULT
  Line search    : 2PNT                : 2 energies, one gradient
  stepsize       :    0.15000000                  energy_gap     :    0.08000000
  eps_taylor     :   0.10000E-15                  max_taylor     :             4
  ----------------------------------- OT ---------------------------------------

  Step     Update method      Time    Convergence         Total energy    Change
  ------------------------------------------------------------------------------
     1 OT CG       0.15E+00   13.8     0.00066578     -8117.7658389985 -8.12E+03
     2 OT LS       0.58E-01    4.1                    -8117.7027397174
     3 OT CG       0.58E-01    8.3     0.00040598     -8117.8065858069 -4.07E-02
     4 OT LS       0.11E+00    3.1                    -8117.8285465142
     5 OT CG       0.11E+00    7.5     0.00033173     -8117.8341604220 -2.76E-02
     6 OT LS       0.59E-01    3.7                    -8117.8377930428
     7 OT CG       0.59E-01    8.5     0.00013271     -8117.8441438747 -9.98E-03
     8 OT LS       0.69E-01    3.8                    -8117.8460217167
     9 OT CG       0.69E-01    9.3     0.00008132     -8117.8460632764 -1.92E-03
    10 OT LS       0.96E-01    4.0                    -8117.8469849793
    11 OT CG       0.96E-01    8.5     0.00006417     -8117.8470632613 -1.00E-03
    12 OT LS       0.12E+00    3.9                    -8117.8478300557
    13 OT CG       0.12E+00    8.6     0.00006915     -8117.8478715090 -8.08E-04
    14 OT LS       0.87E-01    3.4                    -8117.8484097793
    15 OT CG       0.87E-01    7.5     0.00004574     -8117.8485392836 -6.68E-04
    16 OT LS       0.82E-01    3.5                    -8117.8488088061
    17 OT CG       0.82E-01    7.9     0.00003444     -8117.8488096746 -2.70E-04
    18 OT LS       0.93E-01    3.4                    -8117.8489814844
    19 OT CG       0.93E-01    7.8     0.00002733     -8117.8489839307 -1.74E-04
    20 OT LS       0.10E+00    3.5                    -8117.8491043477
    21 OT CG       0.10E+00    8.2     0.00002444     -8117.8491053125 -1.21E-04
    22 OT LS       0.16E+00    4.0                    -8117.8492374928
    23 OT CG       0.16E+00    8.5     0.00002690     -8117.8492607460 -1.55E-04
    24 OT LS       0.89E-01    3.9                    -8117.8492903784
    25 OT CG       0.89E-01    8.4     0.00002204     -8117.8493658545 -1.05E-04
    26 OT LS       0.11E+00    3.9                    -8117.8494474941
    27 OT CG       0.11E+00    8.4     0.00002090     -8117.8494504551 -8.46E-05
    28 OT LS       0.11E+00    3.7                    -8117.8495246214
    29 OT CG       0.11E+00    8.3     0.00001912     -8117.8495246333 -7.42E-05
    30 OT LS       0.12E+00    3.8                    -8117.8495918418
    31 OT CG       0.12E+00    8.3     0.00001950     -8117.8495921554 -6.75E-05
    32 OT LS       0.12E+00    3.9                    -8117.8496626814
    33 OT CG       0.12E+00    8.6     0.00001866     -8117.8496627056 -7.06E-05
    34 OT LS       0.11E+00    4.0                    -8117.8497246476
    35 OT CG       0.11E+00    8.6     0.00001864     -8117.8497247809 -6.21E-05
    36 OT LS       0.12E+00    4.0                    -8117.8497908887
    37 OT CG       0.12E+00    8.2     0.00001824     -8117.8497910987 -6.63E-05
    38 OT LS       0.11E+00    3.8                    -8117.8498474368
    39 OT CG       0.11E+00    8.2     0.00001691     -8117.8498479698 -5.69E-05
    40 OT LS       0.11E+00    3.5                    -8117.8498970738
    41 OT CG       0.11E+00    7.3     0.00001724     -8117.8498970819 -4.91E-05
    42 OT LS       0.10E+00    3.5                    -8117.8499442490
    43 OT CG       0.10E+00    6.4     0.00001380     -8117.8499444558 -4.74E-05
    44 OT LS       0.14E+00    2.9                    -8117.8499832484
    45 OT CG       0.14E+00    6.9     0.00001449     -8117.8499863524 -4.19E-05
    46 OT LS       0.12E+00    3.5                    -8117.8500260882
    47 OT CG       0.12E+00    8.2     0.00001309     -8117.8500269401 -4.06E-05
    48 OT LS       0.11E+00    3.8                    -8117.8500570833
    49 OT CG       0.11E+00    8.4     0.00001364     -8117.8500572739 -3.03E-05
    50 OT LS       0.13E+00    3.7                    -8117.8500942051
    51 OT CG       0.13E+00    8.5     0.00001304     -8117.8500947515 -3.75E-05
    52 OT LS       0.11E+00    3.7                    -8117.8501250751
    53 OT CG       0.11E+00    8.6     0.00001273     -8117.8501255428 -3.08E-05
    54 OT LS       0.10E+00    3.9                    -8117.8501516931
    55 OT CG       0.10E+00    8.7     0.00001079     -8117.8501519371 -2.64E-05
    56 OT LS       0.95E-01    3.9                    -8117.8501692939
    57 OT CG       0.95E-01    8.8     0.00000895     -8117.8501694427 -1.75E-05
    58 OT LS       0.15E+00    3.8                    -8117.8501858239
    59 OT CG       0.15E+00    8.3     0.00001035     -8117.8501883462 -1.89E-05
    60 OT LS       0.98E-01    3.9                    -8117.8502001316
    61 OT CG       0.98E-01    8.4     0.00000900     -8117.8502049156 -1.66E-05
    62 OT LS       0.14E+00    3.8                    -8117.8502211011
    63 OT CG       0.14E+00    8.7     0.00001048     -8117.8502227897 -1.79E-05
    64 OT LS       0.11E+00    3.8                    -8117.8502416562
    65 OT CG       0.11E+00    7.7     0.00000979     -8117.8502428106 -2.00E-05
    66 OT LS       0.11E+00    3.4                    -8117.8502599449
    67 OT CG       0.11E+00    7.6     0.00001009     -8117.8502599468 -1.71E-05
    68 OT LS       0.13E+00    3.4                    -8117.8502805830
    69 OT CG       0.13E+00    7.6     0.00001035     -8117.8502809286 -2.10E-05
    70 OT LS       0.10E+00    3.6                    -8117.8502970718
    71 OT CG       0.10E+00    7.7     0.00000986     -8117.8502984590 -1.75E-05
    72 OT LS       0.14E+00    4.1                    -8117.8503182824
    73 OT CG       0.14E+00    8.4     0.00000943     -8117.8503198404 -2.14E-05
    74 OT LS       0.11E+00    3.9                    -8117.8503347398
    75 OT CG       0.11E+00    8.4     0.00000912     -8117.8503356305 -1.58E-05
    76 OT LS       0.12E+00    4.0                    -8117.8503507870
    77 OT CG       0.12E+00    8.5     0.00000879     -8117.8503507895 -1.52E-05
    78 OT LS       0.10E+00    4.1                    -8117.8503626426
    79 OT CG       0.10E+00    8.5     0.00000677     -8117.8503628978 -1.21E-05
    80 OT LS       0.14E+00    3.8                    -8117.8503720639
    81 OT CG       0.14E+00    8.4     0.00000718     -8117.8503727418 -9.84E-06
    82 OT LS       0.10E+00    3.9                    -8117.8503803792
    83 OT CG       0.10E+00    8.5     0.00000608     -8117.8503811831 -8.44E-06
    84 OT LS       0.11E+00    3.7                    -8117.8503877688
    85 OT CG       0.11E+00    8.2     0.00000674     -8117.8503878182 -6.64E-06
    86 OT LS       0.15E+00    3.8                    -8117.8503977963
    87 OT CG       0.15E+00    8.2     0.00000637     -8117.8503983556 -1.05E-05
