     192
 i =        1, E =     -8117.6989671201
 Ga         0.0015014099        0.0007142366       -0.0274957745
  N         0.0003621853        1.8752773634        0.6164222837
 Ga        -0.0002263963        1.8744246082        2.6150210642
  N         0.0004958802        0.0002016166        3.2130532697
 Ga        -0.0004980135       -0.0001576643        5.1975759174
  N        -0.0000048786        1.8737652602        5.7925070693
 Ga         0.0006868403        1.8737295200        7.7794331564
  N         0.0004733750       -0.0000168492        8.3936844366
 Ga        -0.0011142910        0.0016577387       10.3869654935
  N         0.0061816232        1.8748350511       11.0149469451
 Ga         0.0009671186        1.8736988889       13.0199029392
  N        -0.0040686780       -0.0002629036       13.4951226599
 Ga        -1.6257626297        2.8095471913       -0.0229265940
  N        -1.6239745324        4.6830766098        0.6179448714
 Ga        -1.6221352717        4.6842039044        2.6158203928
  N        -1.6226258269        2.8108767567        3.2142219411
 Ga        -1.6228559340        2.8104941353        5.1976829310
  N        -1.6229996403        4.6846359221        5.7918713149
 Ga        -1.6232459830        4.6839396859        7.7783192247
  N        -1.6225674011        2.8102258088        8.3958714978
 Ga        -1.6204393578        2.8075773202       10.3901307904
  N        -1.6229260517        4.6823454849       11.0151208208
 Ga        -1.6256962243        4.6815126206       13.0204688691
  N        -1.6236360205        2.8084560295       13.4970876971
 Ga        -3.2446265281        5.6217773258       -0.0291971280
  N        -3.2451211562        7.4956450868        0.6176813471
 Ga        -3.2456802498        7.4958107582        2.6156367699
  N        -3.2450013720        5.6215866377        3.2132560034
 Ga        -3.2460373390        5.6213724377        5.1973713092
  N        -3.2456699430        7.4951906094        5.7923468298
 Ga        -3.2451633630        7.4956385758        7.7791719242
  N        -3.2448411035        5.6218085700        8.3941788592
 Ga        -3.2443876546        5.6232005027       10.3876487225
  N        -3.2417477685        7.4968990561       11.0158394800
 Ga        -3.2422630705        7.4949977061       13.0212746147
  N        -3.2456329568        5.6200327605       13.4964604816
 Ga        -4.8697363787        8.4308317277       -0.0232582015
  N        -4.8692715483       10.3042302520        0.6181281230
 Ga        -4.8677114623       10.3056381741        2.6158972131
  N        -4.8682362635        8.4322565949        3.2142285670
 Ga        -4.8685276575        8.4320993789        5.1975997338
  N        -4.8684212331       10.3061475065        5.7918242507
 Ga        -4.8688602443       10.3057558865        7.7784247932
  N        -4.8688305096        8.4317544007        8.3963432870
 Ga        -4.8675701029        8.4311948936       10.3908878633
  N        -4.8694689192       10.3069669273       11.0159777037
 Ga        -4.8725586318       10.3054618974       13.0215109670
  N        -4.8678789956        8.4303066678       13.4939417063
 Ga         3.2400535983        0.0014811087       -0.0224524061
  N         3.2473729491        1.8744168962        0.6189514044
 Ga         3.2471306876        1.8742920312        2.6162003381
  N         3.2460160712       -0.0000506480        3.2130964386
 Ga         3.2455923067       -0.0001029687        5.1974115612
  N         3.2452734165        1.8736825186        5.7922212694
 Ga         3.2458604399        1.8740133822        7.7790790049
  N         3.2448214328       -0.0004400444        8.3947071174
 Ga         3.2439903020        0.0016545584       10.3883050671
  N         3.2507952913        1.8739088294       11.0149178485
 Ga         3.2444711489        1.8719123849       13.0195002560
  N         3.2409215012       -0.0015073707       13.4959557579
 Ga         1.6245158075        2.8071626562       -0.0304135796
  N         1.6231500820        4.6848761314        0.6115618980
 Ga         1.6232529005        4.6854391009        2.6134834168
  N         1.6232492385        2.8113526100        3.2125598600
 Ga         1.6225771368        2.8106501949        5.1971522698
  N         1.6226615932        4.6845101200        5.7921662087
 Ga         1.6233515524        4.6845598798        7.7786936291
  N         1.6232882924        2.8114189933        8.3958233960
 Ga         1.6256023927        2.8109951572       10.3898676722
  N         1.6223020436        4.6877252954       11.0153920903
 Ga         1.6219778583        4.6861773054       13.0216498421
  N         1.6230694267        2.8116427953       13.4976136023
 Ga        -0.0050928986        5.6227936355       -0.0198640962
  N         0.0018575902        7.4967262456        0.6179280457
 Ga         0.0015512522        7.4957849682        2.6159274976
  N         0.0003281787        5.6216999757        3.2131723523
 Ga        -0.0000904191        5.6212683667        5.1973651383
  N        -0.0002936088        7.4950710311        5.7920881282
 Ga         0.0000135732        7.4955684216        7.7787782178
  N        -0.0005219770        5.6209757920        8.3937165716
 Ga        -0.0012418487        5.6208018282       10.3868523167
  N         0.0038195479        7.4918112111       11.0146818577
 Ga        -0.0004473064        7.4933763987       13.0198076635
  N        -0.0048128343        5.6198775829       13.4939665674
 Ga        -1.6224084363        8.4285961373       -0.0299542598
  N        -1.6228129020       10.3065296642        0.6110485890
 Ga        -1.6223481480       10.3069083060        2.6131134198
  N        -1.6221505471        8.4330753373        3.2125492516
 Ga        -1.6230956391        8.4321357562        5.1971558339
  N        -1.6228218490       10.3058217021        5.7918199268
 Ga        -1.6229198121       10.3064713529        7.7782189505
  N        -1.6222385437        8.4332082587        8.3959996411
 Ga        -1.6200808454        8.4315853343       10.3900408705
  N        -1.6234846672       10.3076412442       11.0162670586
 Ga        -1.6250563984       10.3070599113       13.0226655782
  N        -1.6200239265        8.4340694134       13.4996404633
 Ga         6.4959520254       -0.0008599402       -0.0260187489
  N         6.4900620141        1.8744814985        0.6151004726
 Ga         6.4910988498        1.8746024440        2.6146942994
  N         6.4910589562        0.0003489216        3.2128914153
 Ga         6.4908835120        0.0000585599        5.1972211345
  N         6.4913351579        1.8736356703        5.7919505833
 Ga         6.4913909779        1.8746905239        7.7785001386
  N         6.4902241440        0.0009983466        8.3952065734
 Ga         6.4913121944        0.0026817941       10.3890742502
  N         6.4925647638        1.8779710792       11.0158767168
 Ga         6.4922209878        1.8757728634       13.0216588294
  N         6.4896850021        0.0003436372       13.4980974866
 Ga         4.8663571625        2.8137478679       -0.0227878889
  N         4.8697603337        4.6847639224        0.6209321066
 Ga         4.8693806286        4.6844631050        2.6167643827
  N         4.8689189944        2.8109389680        3.2147713324
 Ga         4.8683747302        2.8105548397        5.1981289256
  N         4.8680589270        4.6845564392        5.7922342658
 Ga         4.8682571943        4.6845301462        7.7790747406
  N         4.8684921595        2.8105264454        8.3928268937
 Ga         4.8689087054        2.8114487798       10.3856034473
  N         4.8680337896        4.6833624720       11.0154198790
 Ga         4.8658785352        4.6823952563       13.0195967264
  N         4.8657542101        2.8092248857       13.4935263181
 Ga         3.2503245886        5.6202543820       -0.0278094106
  N         3.2437401059        7.4949266962        0.6158769630
 Ga         3.2454982072        7.4958975652        2.6147847007
  N         3.2457263544        5.6218021395        3.2129886366
 Ga         3.2454094206        5.6214897531        5.1972227122
  N         3.2455473019        7.4953355291        5.7919041778
 Ga         3.2463300414        7.4957923298        7.7784511108
  N         3.2453021973        5.6223973060        8.3960236028
 Ga         3.2467231402        5.6226440880       10.3901684383
  N         3.2468509844        7.4989618744       11.0163086231
 Ga         3.2459826811        7.4969993478       13.0225186715
  N         3.2462970256        5.6217664622       13.4985773515
 Ga         1.6218066522        8.4357170939       -0.0238201586
  N         1.6239436411       10.3062376288        0.6214936047
 Ga         1.6237481586       10.3059649663        2.6172270358
  N         1.6233762466        8.4322136792        3.2146762932
 Ga         1.6226992046        8.4322054421        5.1978560872
  N         1.6224446719       10.3061350599        5.7924377955
 Ga         1.6223766477       10.3061640714        7.7793571737
  N         1.6232181838        8.4315545786        8.3947431810
 Ga         1.6228807246        8.4339718737       10.3885922507
  N         1.6208008814       10.3084023936       11.0156223458
 Ga         1.6198861835       10.3060200343       13.0203574620
  N         1.6204462971        8.4327309132       13.4964401186
 Ga         9.7332466030        0.0007380784       -0.0274610283
  N         9.7363508970        1.8729377960        0.6190843245
 Ga         9.7377635932        1.8738181779        2.6156953712
  N         9.7371470180        0.0002472842        3.2142866154
 Ga         9.7368571053       -0.0002025802        5.1977990918
  N         9.7365015299        1.8738884031        5.7921383584
 Ga         9.7367179153        1.8735798564        7.7789490154
  N         9.7363084504       -0.0002481189        8.3940120254
 Ga         9.7373954336       -0.0021690624       10.3877154961
  N         9.7370746552        1.8720041235       11.0163224197
 Ga         9.7367715605        1.8697200093       13.0225930238
  N         9.7354896841       -0.0057647223       13.4977108191
 Ga         8.1150020843        2.8085788793       -0.0295551531
  N         8.1138050182        4.6847484994        0.6144018044
 Ga         8.1141531628        4.6849976924        2.6143922695
  N         8.1143061761        2.8106940080        3.2129704482
 Ga         8.1137085841        2.8109793827        5.1971950693
  N         8.1138017176        4.6846684894        5.7924779785
 Ga         8.1139966431        4.6848604984        7.7792019667
  N         8.1145414982        2.8110581924        8.3965462624
 Ga         8.1154029671        2.8145619664       10.3911085993
  N         8.1157798516        4.6918792914       11.0152349417
 Ga         8.1134756910        4.6853694995       13.0201964969
  N         8.1159094422        2.8110374321       13.4988311403
 Ga         6.4882081057        5.6222663567       -0.0262728905
  N         6.4910247741        7.4951834798        0.6181035550
 Ga         6.4922260211        7.4951933220        2.6155557483
  N         6.4916884406        5.6215677149        3.2141888168
 Ga         6.4910922313        5.6214497471        5.1978176200
  N         6.4909484292        7.4955445910        5.7916858379
 Ga         6.4910387082        7.4948504940        7.7781152452
  N         6.4909071423        5.6214094577        8.3939152055
 Ga         6.4903259375        5.6194270240       10.3872769126
  N         6.4899001296        7.4935583080       11.0167669354
 Ga         6.4910695359        7.4912960399       13.0227557838
  N         6.4877528694        5.6165691120       13.4964532606
 Ga         4.8679083637        8.4294432809       -0.0283288104
  N         4.8680002100       10.3062494979        0.6136500255
 Ga         4.8683649052       10.3066606729        2.6142960672
  N         4.8687720519        8.4321895103        3.2128206027
 Ga         4.8682038010        8.4324652844        5.1972036970
  N         4.8682476589       10.3059171096        5.7926830451
 Ga         4.8684680448       10.3062492585        7.7795114471
  N         4.8693289281        8.4321709270        8.3954339398
 Ga         4.8692808921        8.4368395417       10.3893179160
  N         4.8701991551       10.3105753569       11.0143477644
 Ga         4.8677029706       10.3050068010       13.0178794858
  N         4.8698396543        8.4321059101       13.4964221696
     192
 i =        2, E =     -8117.7344986566
 Ga         0.0062553031        0.0003861502       -0.0278901862
  N         0.0006172465        1.8755719506        0.5937651684
 Ga         0.0000671757        1.8748782021        2.6152343110
  N         0.0000427565        0.0010301638        3.2064119928
 Ga        -0.0008684842       -0.0002003134        5.2053654462
  N         0.0003801390        1.8737510635        5.7987943072
 Ga         0.0017340149        1.8741468256        7.8013663020
  N        -0.0003864700        0.0004645229        8.3967590541
 Ga         0.0000109686        0.0003998277       10.4091402031
  N         0.0121808852        1.8740605302       10.9989081079
 Ga         0.0008641056        1.8731454456       13.0458294969
  N        -0.0066643058       -0.0016829940       13.4376584406
 Ga        -1.6273675836        2.8109312933       -0.0120068141
  N        -1.6246584312        4.6825265451        0.6020597868
 Ga        -1.6223282698        4.6838381452        2.6199053903
  N        -1.6220034602        2.8103203890        3.2086010473
 Ga        -1.6229525760        2.8098528754        5.2061824798
  N        -1.6232383856        4.6842252847        5.7991020516
 Ga        -1.6236216002        4.6825085619        7.8020572338
  N        -1.6220340949        2.8075977122        8.4010750909
 Ga        -1.6176937715        2.8078332495       10.4152029752
  N        -1.6227012682        4.6811494933       10.9969862952
 Ga        -1.6259317848        4.6787422579       13.0429160411
  N        -1.6242431627        2.8075075997       13.4451227017
 Ga        -3.2407594755        5.6212865567       -0.0314827072
  N        -3.2456903139        7.4948504366        0.5964159285
 Ga        -3.2456396544        7.4960097151        2.6161987801
  N        -3.2453316074        5.6220892937        3.2068795763
 Ga        -3.2464184823        5.6212416124        5.2054351134
  N        -3.2452949117        7.4954089914        5.7992685749
 Ga        -3.2445766170        7.4965143031        7.8021283978
  N        -3.2443234300        5.6231928644        8.3984839496
 Ga        -3.2419502066        5.6241101479       10.4114677588
  N        -3.2392375916        7.4997157412       11.0006432183
 Ga        -3.2409121758        7.4947947228       13.0479299834
  N        -3.2425122154        5.6189508115       13.4455011398
 Ga        -4.8697527883        8.4332422659       -0.0141785071
  N        -4.8700676239       10.3034194095        0.6036048841
 Ga        -4.8678753291       10.3053260847        2.6202030180
  N        -4.8677354533        8.4316048641        3.2087449202
 Ga        -4.8688822112        8.4317195573        5.2061004337
  N        -4.8686315200       10.3060792886        5.7990999145
 Ga        -4.8691868567       10.3047640177        7.8021743731
  N        -4.8691588609        8.4300755177        8.4020472617
 Ga        -4.8678262503        8.4313206908       10.4167285580
  N        -4.8694492386       10.3072890287       11.0011977489
 Ga        -4.8734489996       10.3041210572       13.0475042097
  N        -4.8685149388        8.4273817988       13.4361116759
 Ga         3.2321744813        0.0016044499       -0.0184503440
  N         3.2490964467        1.8738912731        0.5996683145
 Ga         3.2486773361        1.8748802031        2.6184460845
  N         3.2469105919       -0.0003609225        3.2059764547
 Ga         3.2456429941       -0.0005136787        5.2050892895
  N         3.2447146190        1.8733904003        5.7981289027
 Ga         3.2459798674        1.8733969087        7.8006800383
  N         3.2436050228       -0.0006384694        8.3994864521
 Ga         3.2422862051        0.0001700545       10.4125907390
  N         3.2538391607        1.8734022269       10.9990602093
 Ga         3.2418946814        1.8703171694       13.0459183882
  N         3.2381273182       -0.0030096928       13.4472675594
 Ga         1.6262420627        2.8030839767       -0.0372955289
  N         1.6229461308        4.6853230992        0.5822041703
 Ga         1.6242759947        4.6860982715        2.6108640215
  N         1.6235502499        2.8123447364        3.2044646598
 Ga         1.6224263498        2.8108833363        5.2041849900
  N         1.6227299844        4.6841840570        5.7997040253
 Ga         1.6236149570        4.6849487830        7.8023209355
  N         1.6242842264        2.8116045653        8.4013526771
 Ga         1.6272783348        2.8154255979       10.4154115394
  N         1.6221721181        4.6933406715       10.9999959761
 Ga         1.6214613939        4.6881565105       13.0484528358
  N         1.6216753851        2.8133066248       13.4455771824
 Ga        -0.0113380230        5.6228223428       -0.0119861433
  N         0.0031997117        7.4973896755        0.5964782305
 Ga         0.0030604005        7.4966783759        2.6176679991
  N         0.0012977590        5.6217126961        3.2059076239
 Ga         0.0000959085        5.6208598336        5.2054892568
  N        -0.0008639062        7.4949588759        5.7990447855
 Ga         0.0000247703        7.4953038794        7.8017808691
  N        -0.0014463566        5.6205450197        8.3957854534
 Ga        -0.0020689544        5.6190094201       10.4074200387
  N         0.0050997413        7.4871442581       10.9975895679
 Ga        -0.0018051823        7.4916320284       13.0447015173
  N        -0.0083483290        5.6188066182       13.4428270917
 Ga        -1.6233940047        8.4246408765       -0.0346908356
  N        -1.6231956651       10.3077734134        0.5800998245
 Ga        -1.6216673744       10.3080548485        2.6097397325
  N        -1.6218594521        8.4344637491        3.2039842099
 Ga        -1.6231223050        8.4326266412        5.2040692921
  N        -1.6230382850       10.3056786888        5.7990504625
 Ga        -1.6233059495       10.3072362937        7.8011523886
  N        -1.6213215522        8.4343842446        8.4014852823
 Ga        -1.6175789241        8.4325467180       10.4151274518
  N        -1.6211082016       10.3093736921       11.0002866968
 Ga        -1.6265207056       10.3063954466       13.0487906562
  N        -1.6196951200        8.4344462697       13.4504130201
 Ga         6.5026618263       -0.0014027693       -0.0224431000
  N         6.4885250864        1.8752397955        0.5914642592
 Ga         6.4907683382        1.8750951402        2.6144919988
  N         6.4901716151        0.0010659473        3.2059556292
 Ga         6.4902024600        0.0002061421        5.2049856209
  N         6.4917329667        1.8736326048        5.7989735007
 Ga         6.4926377588        1.8752388763        7.8014375498
  N         6.4890992408        0.0018831894        8.3997204007
 Ga         6.4923449508        0.0065108895       10.4127865053
  N         6.4968267094        1.8825102661       11.0009428076
 Ga         6.4923008204        1.8758450358       13.0479550572
  N         6.4862193874        0.0020154075       13.4492558673
 Ga         4.8646004496        2.8185457370       -0.0146612703
  N         4.8699610195        4.6848316698        0.6085654965
 Ga         4.8701473871        4.6844438520        2.6218313936
  N         4.8697897575        2.8106842980        3.2100869384
 Ga         4.8684303384        2.8102121857        5.2070329931
  N         4.8675820080        4.6847667086        5.7985606663
 Ga         4.8678550070        4.6848832950        7.8013885812
  N         4.8684073989        2.8100815739        8.3953245346
 Ga         4.8710085966        2.8114601824       10.4074715281
  N         4.8677724915        4.6826283784       10.9983428591
 Ga         4.8641108295        4.6816131091       13.0443912006
  N         4.8637763250        2.8072062985       13.4373325260
 Ga         3.2563143181        5.6180282561       -0.0286984949
  N         3.2424780449        7.4935901851        0.5928950431
 Ga         3.2453261695        7.4958823978        2.6147641869
  N         3.2452092147        5.6221655690        3.2061916364
 Ga         3.2447249678        5.6215977117        5.2047561121
  N         3.2459432771        7.4951930788        5.7996129198
 Ga         3.2471075228        7.4963894316        7.8023022549
  N         3.2453876299        5.6232324410        8.4021868302
 Ga         3.2468231478        5.6265053253       10.4165814188
  N         3.2480042803        7.5057628767       11.0009552183
 Ga         3.2457958426        7.4959134791       13.0487508441
  N         3.2472732782        5.6213075299       13.4524286734
 Ga         1.6221939913        8.4404177178       -0.0162884059
  N         1.6241695001       10.3061678276        0.6091628835
 Ga         1.6242709656       10.3062766929        2.6223260650
  N         1.6243720300        8.4319549927        3.2097985300
 Ga         1.6227873386        8.4317691761        5.2067967294
  N         1.6219960841       10.3061970096        5.7993266509
 Ga         1.6214522957       10.3067456598        7.8024653134
  N         1.6231336459        8.4315572146        8.3987832082
 Ga         1.6218991884        8.4342874456       10.4122720799
  N         1.6177095996       10.3092421677       10.9992328946
 Ga         1.6153397517       10.3075487087       13.0455183374
  N         1.6189961096        8.4325192368       13.4405001302
 Ga         9.7270474029       -0.0008971756       -0.0293564617
  N         9.7362621752        1.8714771428        0.5984160246
 Ga         9.7385604809        1.8738481327        2.6171261031
  N         9.7386308931        0.0002469428        3.2086350544
 Ga         9.7370522312       -0.0002156313        5.2064014135
  N         9.7361331896        1.8739777401        5.7993000219
 Ga         9.7364785845        1.8729887117        7.8019466477
  N         9.7361109121       -0.0014471835        8.3976179796
 Ga         9.7348362686       -0.0042509300       10.4104068128
  N         9.7395565557        1.8699407862       11.0028180437
 Ga         9.7366739242        1.8675184311       13.0510401622
  N         9.7330257084       -0.0093892088       13.4459957087
 Ga         8.1148166273        2.8059468950       -0.0341182235
  N         8.1143211259        4.6855865349        0.5872369495
 Ga         8.1147930319        4.6856490856        2.6122967854
  N         8.1142553873        2.8111526863        3.2049193538
 Ga         8.1136558583        2.8109496452        5.2043566934
  N         8.1137820036        4.6843444363        5.7993185575
 Ga         8.1146948775        4.6850046341        7.8017491924
  N         8.1157752870        2.8118028897        8.4025392054
 Ga         8.1180818268        2.8172748470       10.4171159631
  N         8.1159355725        4.6982866582       11.0003131046
 Ga         8.1148177203        4.6851980015       13.0478628887
  N         8.1167166917        2.8098723138       13.4486159182
 Ga         6.4824943006        5.6202734841       -0.0246461467
  N         6.4914590707        7.4944384288        0.5956082892
 Ga         6.4932174300        7.4953170386        2.6164228079
  N         6.4932348879        5.6218142627        3.2081556304
 Ga         6.4913095900        5.6214086927        5.2061008711
  N         6.4904345888        7.4955095041        5.7989045340
 Ga         6.4907340319        7.4944748429        7.8013060787
  N         6.4909953218        5.6202463358        8.3968687673
 Ga         6.4894801895        5.6192548367       10.4092250075
  N         6.4889718473        7.4924796096       11.0024669406
 Ga         6.4900573148        7.4879511926       13.0492780924
  N         6.4863697913        5.6137233530       13.4453321489
 Ga         4.8664214362        8.4272452463       -0.0300306090
  N         4.8681654458       10.3079613031        0.5859225894
 Ga         4.8691310723       10.3074523259        2.6120526142
  N         4.8688744995        8.4327518442        3.2044476228
 Ga         4.8680641831        8.4325520950        5.2043149058
  N         4.8683433411       10.3056634442        5.7986263618
 Ga         4.8682530128       10.3062434684        7.8007483253
  N         4.8703868557        8.4334283399        8.3999162210
 Ga         4.8711682738        8.4383185841       10.4128892260
  N         4.8699076448       10.3138729213       10.9968652508
 Ga         4.8653624236       10.3019305490       13.0426938217
  N         4.8708493651        8.4289770097       13.4441163652
     192
 i =        3, E =     -8117.7504673690
 Ga         0.0124885359        0.0013393640       -0.0383469546
  N         0.0018953683        1.8778421912        0.5633484957
 Ga        -0.0001277144        1.8758387822        2.6198931212
  N        -0.0021516108        0.0017900367        3.2008262763
 Ga        -0.0014883353        0.0002267666        5.2259613584
  N         0.0016604295        1.8743121567        5.8023452895
 Ga         0.0025422628        1.8744124517        7.8290339594
  N        -0.0006570806       -0.0000452007        8.4033694857
 Ga         0.0053416399        0.0004766723       10.4411797718
  N         0.0125212289        1.8752195238       10.9663757380
 Ga        -0.0083941035        1.8703809300       13.0693821977
  N        -0.0098900208        0.0049575222       13.3636205086
 Ga        -1.6328971217        2.8105074479        0.0079887555
  N        -1.6262484831        4.6812460310        0.5845173067
 Ga        -1.6226799102        4.6834709079        2.6326213979
  N        -1.6216723638        2.8094586566        3.2060677381
 Ga        -1.6229164469        2.8085956416        5.2283725940
  N        -1.6234793003        4.6835624436        5.8010529027
 Ga        -1.6233942484        4.6808497511        7.8287001490
  N        -1.6210914139        2.8061363268        8.4108791188
 Ga        -1.6187658309        2.8069265361       10.4515039233
  N        -1.6216024807        4.6788296297       10.9639516581
 Ga        -1.6262066009        4.6666060270       13.0673536888
  N        -1.6226115433        2.8069814736       13.3822096885
 Ga        -3.2351965020        5.6222819925       -0.0515321723
  N        -3.2444532931        7.4944133071        0.5716321685
 Ga        -3.2453721858        7.4961128443        2.6227817722
  N        -3.2466355544        5.6218994066        3.2025927862
 Ga        -3.2467603713        5.6217669819        5.2264499688
  N        -3.2443683556        7.4962766102        5.8034408350
 Ga        -3.2431718041        7.4976701053        7.8308181975
  N        -3.2420530303        5.6248965791        8.4097809237
 Ga        -3.2395855120        5.6294765302       10.4496935419
  N        -3.2344995410        7.5050493732       10.9775398852
 Ga        -3.2435898074        7.4836964932       13.0834654468
  N        -3.2342127759        5.6150116227       13.3810628271
 Ga        -4.8681081334        8.4340305511       -0.0009593156
  N        -4.8724921157       10.3019714582        0.5885657609
 Ga        -4.8684603602       10.3051493160        2.6336493552
  N        -4.8680345995        8.4305040407        3.2059801884
 Ga        -4.8686956387        8.4305813488        5.2278667349
  N        -4.8688600876       10.3055256368        5.8018152677
 Ga        -4.8684783664       10.3047776465        7.8302532133
  N        -4.8682335674        8.4297781808        8.4162123777
 Ga        -4.8663657503        8.4350015936       10.4602200909
  N        -4.8673707295       10.3159038139       10.9841528206
 Ga        -4.8836563345       10.2959089932       13.0901718538
  N        -4.8657443239        8.4255382065       13.3603190919
 Ga         3.2220547639        0.0033472283       -0.0157122740
  N         3.2501448233        1.8730719846        0.5787658582
 Ga         3.2491667371        1.8749262757        2.6273976181
  N         3.2487111859       -0.0010653180        3.2011815677
 Ga         3.2467956244       -0.0015905674        5.2262905608
  N         3.2440292951        1.8733155079        5.8007610994
 Ga         3.2465391584        1.8717752191        7.8279126083
  N         3.2431741967       -0.0012351519        8.4072644308
 Ga         3.2438789891        0.0005066057       10.4467222761
  N         3.2577140409        1.8766700631       10.9694899066
 Ga         3.2350561452        1.8677115221       13.0722419020
  N         3.2371878728        0.0033569737       13.3710080151
 Ga         1.6324356216        2.7965692155       -0.0655174268
  N         1.6213293187        4.6838813346        0.5398173842
 Ga         1.6236133732        4.6862845184        2.6092098342
  N         1.6236009085        2.8139965406        3.1969446591
 Ga         1.6224280071        2.8120012322        5.2228935936
  N         1.6232568498        4.6837752674        5.8050223335
 Ga         1.6241041061        4.6852387078        7.8320047613
  N         1.6260447980        2.8106607138        8.4115761523
 Ga         1.6285201884        2.8202603807       10.4525821928
  N         1.6271265863        4.6988887904       10.9735527084
 Ga         1.6199072059        4.6799118361       13.0794411628
  N         1.6199078955        2.8122003190       13.3797912339
 Ga        -0.0192094416        5.6262946298        0.0000164190
  N         0.0045416176        7.4990511180        0.5728123816
 Ga         0.0040237857        7.4974825071        2.6259231306