     212
 i =        1, E =     -8504.7053779921
  N         0.0942671633        2.1110763093        2.5625056214
 Ga         0.0833241505        0.1624816834        3.0171467505
  N         0.0927561254        0.1334805228        5.1131794629
 Ga         0.0612831533        1.9516240074        5.8760605189
  N         0.0741274842        1.9715355836        7.8582205973
 Ga         0.0664001565        0.1171905223        8.4915256969
  N         0.0719182309        0.1202233630       10.4623208274
 Ga         0.0692576017        1.9586044887       11.1221103486
  N         0.0718978035        1.9403794090       13.1097503335
 Ga         0.0727801147        0.1215930699       13.9240655071
  N         0.0728390448        0.1216174725       16.1126775346
 Ga         0.0694561109        2.1702258872       16.5345020718
 Ga         0.0832604389        3.8335776255        1.4184207133
  N        -1.3997867385        4.6978322670        2.5478629222
 Ga        -1.6081491151        2.8425277092        3.3105089940
  N        -1.5347900689        2.9052018806        5.2878673887
 Ga        -1.5686101518        4.7722207204        5.8481577575
  N        -1.5453809512        4.7693359534        7.8397504982
 Ga        -1.5323478877        2.9119457069        8.4889964944
  N        -1.5250343561        2.9139568337       10.4767949538
 Ga        -1.5522869071        4.7726136606       11.1201231532
  N        -1.5680235175        4.7827353501       13.1086010021
 Ga        -1.5249213001        2.9132901030       13.6687636404
  N        -1.5525548028        2.8992708054       15.6255470205
 Ga        -1.3707744373        4.6686770212       16.5352045500
  N         0.0715179900        3.8355121211       17.6739690909
  N        -3.1350215105        7.6741960869        2.5491126806
 Ga        -3.1205924366        5.6756385496        2.8878783599
  N        -3.1395633444        5.6904207243        5.0507281307
 Ga        -3.1484439198        7.5097884710        5.8418881173
  N        -3.1428207982        7.5370014793        7.8321544194
 Ga        -3.1452660600        5.6907805118        8.4890724944
  N        -3.1437769402        5.6923966613       10.4595715607
 Ga        -3.1453735157        7.5299522410       11.1193415555
  N        -3.1439516995        7.5119355517       13.1081801940
 Ga        -3.1435624233        5.6922789064       13.9249157446
  N        -3.1423436469        5.6917732593       16.1131612263
 Ga        -3.1452383860        7.7364824477       16.5353532603
 Ga        -3.1760765542        9.4256157934        1.4344749222
  N        -4.6492323139       10.2899936686        2.5976706523
 Ga        -4.8582700467        8.4305829869        3.3109580512
  N        -4.7466525859        8.4800652468        5.2809048254
 Ga        -4.7821733394       10.3403069413        5.8696482476
  N        -4.7545979680       10.3388268178        7.8512999178
 Ga        -4.7465256976        8.4764022643        8.4795305862
  N        -4.7407396139        8.4818107102       10.4694044236
 Ga        -4.7706874645       10.3390954243       11.1215464186
  N        -4.7850228641       10.3516051858       13.1091344910
 Ga        -4.7411103238        8.4833340537       13.6700395198
  N        -4.7681909216        8.4694494592       15.6270426944
 Ga        -4.5857390874       10.2374000571       16.5355164249
  N        -3.1417074639        9.4010260304       17.6721973485
  N         3.2852838133        1.9765697460        2.6194207275
 Ga         3.2909717662        0.1176277131        3.3881250848
  N         3.2898197037        0.1432456965        5.3110252341
 Ga         3.2867638778        1.9775880444        5.9929980422
  N         3.2893698505        1.9755140227        7.9352577503
 Ga         3.2873145199        0.1032908549        8.5147520327
  N         3.2881955217        0.1075229340       10.4920327648
 Ga         3.2893037019        1.9785119032       11.0863368610
  N         3.2886104651        1.9782333224       13.0506208614
 Ga         3.2881652169        0.1057411430       13.6712926240
  N         3.2875008769        0.1395285194       15.6286869349
 Ga         3.2889472416        1.9789850861       15.9038482644
  N         1.5721016534        4.6707488203        2.5972702347
 Ga         1.6752502189        2.8816644412        3.3950730644
  N         1.7028060045        2.8910129342        5.3238089275
 Ga         1.7029312446        4.7777959907        5.8848473098
  N         1.6859383431        4.7646133025        7.8609135534
 Ga         1.6657483855        2.9125110081        8.5130038383
  N         1.6697030511        2.9129953449       10.4913626337
 Ga         1.6961910181        4.7758403195       11.1216479577
  N         1.7134072046        4.7835661815       13.1093590004
 Ga         1.6669515051        2.9147685241       13.6718907672
  N         1.6956535450        2.8987110898       15.6302233681
 Ga         1.5131148578        4.6705438274       16.5352571742
  N         0.0774069324        7.5538077018        2.7078061983
 Ga         0.0849251037        5.7124445117        3.3734353061
  N         0.0716708003        5.7056486768        5.3071824493
 Ga         0.0990973367        7.5630328914        5.9209015380
  N         0.0756459292        7.5521157189        7.8881604163
 Ga         0.0675282440        5.6842230328        8.4907762800
  N         0.0712973851        5.6801002978       10.4768014256
 Ga         0.0737273197        7.5490062006       11.0755726695
  N         0.0722242669        7.5491025233       13.0414991847
 Ga         0.0723762019        5.6791907732       13.6698690234
  N         0.0711678329        5.7111385150       15.6264015048
 Ga         0.0704886902        7.5482392203       15.9085287998
  N        -1.6399601312       10.2813855875        2.5790012521
 Ga        -1.5067246467        8.4705317309        3.3592449416
  N        -1.5260229717        8.4749355032        5.2919796679
 Ga        -1.5007404426       10.3506940599        5.8780458487
  N        -1.5340618517       10.3366055515        7.8560178573
 Ga        -1.5457490775        8.4771350195        8.4905522896
  N        -1.5471000753        8.4814705437       10.4762306130
 Ga        -1.5171991798       10.3406920407       11.1230256449
  N        -1.5021960958       10.3520779361       13.1104144898
 Ga        -1.5470735128        8.4834666645       13.6713639981
  N        -1.5203057704        8.4687417918       15.6295804087
 Ga        -1.7010915513       10.2393687827       16.5355358255
  N         6.4834482713        2.0975511814        2.5585879341
 Ga         6.5262229801        0.1115256697        2.9641339562
  N         6.4774891714        0.1363359043        5.1139022986
 Ga         6.5179985696        1.9483468152        5.8680629691
  N         6.5042491116        1.9730596740        7.8523011173
 Ga         6.5113155122        0.1187441845        8.4896373026
  N         6.5052922861        0.1204720827       10.4612252266
 Ga         6.5085204976        1.9594302265       11.1213371617
  N         6.5056965423        1.9404044457       13.1096436475
 Ga         6.5049422180        0.1217016367       13.9250451101
  N         6.5058474469        0.1211573228       16.1135642621
 Ga         6.5045048036        2.1687712967       16.5338613182
 Ga         6.4811078029        3.8528475776        1.6167401948
  N         4.9848985944        4.6846265114        2.6301967960
 Ga         4.8797139493        2.8657177015        3.4081618465
  N         4.8741460180        2.8878920922        5.3249240536
 Ga         4.8845231813        4.7801227558        5.8714442495
  N         4.8909115507        4.7634565666        7.8524157810
 Ga         4.9134723215        2.9141118044        8.5101182689
  N         4.9082208703        2.9134016059       10.4893898352
 Ga         4.8839516443        4.7771579744       11.1183907255
  N         4.8648378434        4.7840223730       13.1072972417
 Ga         4.9101002882        2.9152717521       13.6701783190
  N         4.8813874046        2.8999165064       15.6279396994
 Ga         5.0632366982        4.6690872046       16.5347560608
  N         6.5107306404        3.8361293405       17.6704079787
  N         3.2854215541        7.5350774716        2.6074647613
  N         3.2888947210        5.6573633541        5.1157640875
 Ga         3.2925826179        7.5448389430        5.7846303623
  N         3.2884075698        7.5415887653        7.8037047281
 Ga         3.2908777125        5.7016388399        8.4874843061
  N         3.2889745548        5.6938217345       10.4594882134
 Ga         3.2902550955        7.5321115630       11.1189281769
  N         3.2890687142        7.5116600797       13.1089072694
 Ga         3.2892870223        5.6915095445       13.9247601378
  N         3.2890470975        5.6919885223       16.1130247692
 Ga         3.2869425530        7.7331655622       16.5222917801
 Ga         4.1383322916       10.8716360479        0.6887715762
  N         1.7075493261       10.3456932366        2.5698815507
 Ga         1.7366030231        8.5444502689        3.1846410301
  N         1.6655746956        8.4745725970        5.1993771510
 Ga         1.6558410878       10.3400573513        5.8137962625
  N         1.6687080206       10.3339500772        7.8237166932
 Ga         1.6967717442        8.4853140735        8.4822064503
  N         1.6928455999        8.4830320102       10.4732566676
 Ga         1.6679417598       10.3435183689       11.1166832467
  N         1.6487011848       10.3527881636       13.1075975655
 Ga         1.6913581006        8.4838120812       13.6664744895
  N         1.6608985186        8.4683272639       15.6243902773
 Ga         1.8414893104       10.2415964992       16.5232921194
  N         3.2915592482        9.4046641492       17.6479640681
  N         9.7428153599        1.9377360884        2.6402470177
 Ga         9.6676130940        0.1386059690        3.2920722246
  N         9.7189054324        0.1227930483        5.2805506790
 Ga         9.7239491097        1.9669450379        5.9073016435
  N         9.7199689293        1.9785373213        7.8856169788
 Ga         9.7194777185        0.1070385473        8.4687781228
  N         9.7205603230        0.1082522213       10.4658917955
 Ga         9.7210235639        1.9763312470       11.0716206830
  N         9.7207304628        1.9780847214       13.0393894143
 Ga         9.7210896719        0.1092646143       13.6661125908
  N         9.7191102248        0.1438719898       15.6243401286
 Ga         9.7208087276        1.9814190207       15.9080449891
  N         8.0066098246        4.7080227890        2.5638499015
 Ga         8.2271700541        2.8306533588        3.3095212733
  N         8.1160324281        2.9002643344        5.2774468954
 Ga         8.1400100587        4.7732995587        5.8306236099
  N         8.1248936646        4.7682835125        7.8286759436
 Ga         8.1086337482        2.9146690780        8.4860455114
  N         8.1028638324        2.9144571477       10.4749914562
 Ga         8.1274839380        4.7737484853       11.1174949071
  N         8.1448446891        4.7830588071       13.1073596255
 Ga         8.1021992861        2.9137751831       13.6693647629
  N         8.1278942813        2.8985244969       15.6283563513
 Ga         7.9508874874        4.6722368901       16.5336845393
  N         6.4959881475        7.5675130168        2.6280717767
 Ga         6.4906516251        5.8350585818        3.3451190911
  N         6.5070249348        5.7005396976        5.3016219857
 Ga         6.4783642340        7.5719156908        5.8845084015
  N         6.4998812872        7.5543730763        7.8686749552
 Ga         6.5106914217        5.6880986514        8.4740061858
  N         6.5065882808        5.6813381362       10.4665636380
 Ga         6.5045974519        7.5486763074       11.0708570570
  N         6.5049451763        7.5488907310       13.0383605623
 Ga         6.5048512673        5.6799157968       13.6694098422
  N         6.5032583560        5.7108755941       15.6268409823
 Ga         6.5067851145        7.5482960444       15.9091756468
  N         4.8711820716       10.3784284381        2.5349344223
 Ga         4.9118945297        8.4877912068        3.1277339092
  N         4.8966040037        8.4937421202        5.1846033685
 Ga         4.9101138335       10.3383062080        5.8198258611
  N         4.9070227863       10.3370927189        7.8265948041
 Ga         4.8843004489        8.4842347201        8.4747886187
  N         4.8855680467        8.4828401507       10.4688308314
 Ga         4.9093160912       10.3422664699       11.1149658015
  N         4.9286382682       10.3525979020       13.1065474540
 Ga         4.8865562321        8.4838983312       13.6665130303
  N         4.9151260031        8.4671106241       15.6262060700
 Ga         4.7368425943       10.2442368640       16.5224096699
  O         0.0695413805        3.8154823584       -0.4172740481
  H         7.2472144983        3.4996283163       -0.6364129381
  C        -1.0638211068        3.1906710518       -1.0374752245
  H        -1.3277059427        2.2077946297       -0.6062895725
  H        -1.9702958298        3.8181233320       -1.0058175342
  H        -0.8078660444        3.0251674720       -2.0952747213
 Ga         3.2626976040        5.6585013624        3.0249889996
  O         6.4230114130        3.8748883475       -0.2776755799
  H         0.0192481515        7.5063876228        1.6835134889
  C         3.2816389296        1.8420950115        1.1898521606
  H         6.3478238000        4.7934347996       -0.5959857652
  H         4.2287750286        1.7989941303        0.6635010266
  H         2.3422811291        1.8024076284        0.6492903337
     212
 i =        2, E =     -8504.7233333289
  N         0.0930535464        2.1053996843        2.5489892372
 Ga         0.0683662838        0.1550984961        3.0236773792
  N         0.0931005230        0.1398738589        5.1168135987
 Ga         0.0598330796        1.9508470405        5.8789603472
  N         0.0750526523        1.9720576839        7.8605070115
 Ga         0.0650510473        0.1166717669        8.4896775597
  N         0.0729537819        0.1205194133       10.4629789353
 Ga         0.0688775587        1.9583788738       11.1226970968
  N         0.0715284540        1.9415854699       13.1133912038
 Ga         0.0715199761        0.1208990471       13.9201431628
  N         0.0717369517        0.1208061108       16.1147720999
 Ga         0.0690526579        2.1659603359       16.5304269876
 Ga         0.0590235707        3.8470570249        1.4022920674
  N        -1.4118851217        4.7024805081        2.5677256011
 Ga        -1.6103854587        2.8468540474        3.3123212052
  N        -1.5325382309        2.9046923207        5.2908258459
 Ga        -1.5650490469        4.7748537208        5.8417459529
  N        -1.5449479493        4.7695556945        7.8372874567
 Ga        -1.5328008704        2.9132002843        8.4870913812
  N        -1.5247676114        2.9139675370       10.4779884773
 Ga        -1.5527926448        4.7727390082       11.1192695185
  N        -1.5677431677        4.7822584322       13.1102776058
 Ga        -1.5262489828        2.9136814690       13.6682600485
  N        -1.5540347823        2.9010594385       15.6275833852
 Ga        -1.3714674522        4.6687801510       16.5313672838
  N         0.0763361339        3.8329586080       17.6656014908
  N        -3.1359215237        7.6929902617        2.5412056927
 Ga        -3.1276941919        5.6763285149        2.8968832996
  N        -3.1400160154        5.6949084969        5.0544757963
 Ga        -3.1481918220        7.5097753913        5.8473623548
  N        -3.1425556735        7.5374406059        7.8376494787
 Ga        -3.1449542047        5.6893541416        8.4874557509
  N        -3.1441881280        5.6924648719       10.4605741888
 Ga        -3.1448700893        7.5299254063       11.1187173538
  N        -3.1440780567        7.5124153713       13.1106241721
 Ga        -3.1434021185        5.6917252695       13.9207173179
  N        -3.1435906278        5.6922197734       16.1165822948
 Ga        -3.1454428899        7.7342073824       16.5302194631
 Ga        -3.1789804721        9.4523813626        1.4322940027
  N        -4.6510990759       10.2951878055        2.6132289278
 Ga        -4.8693401371        8.4261730058        3.3144029803
  N        -4.7432473649        8.4811461209        5.2845108910
 Ga        -4.7902558686       10.3402949079        5.8676570276
  N        -4.7526036073       10.3406045968        7.8495053310
 Ga        -4.7475037018        8.4763138579        8.4788101940
  N        -4.7400011055        8.4825534513       10.4716734144
 Ga        -4.7709492776       10.3390067579       11.1223939172
  N        -4.7840045674       10.3514094588       13.1125958247
 Ga        -4.7415415211        8.4829051025       13.6691257194
  N        -4.7691595108        8.4685509476       15.6287984463
 Ga        -4.5878233603       10.2382850203       16.5303734262
  N        -3.1393731878        9.4018318597       17.6624914571
  N         3.2756124983        1.9775846364        2.5601146314
 Ga         3.2909587570        0.0801577558        3.4129945173
  N         3.2897535898        0.1552377224        5.3196606407
 Ga         3.2844478518        1.9862972144        6.0050235924
  N         3.2886031304        1.9748950522        7.9421287687
 Ga         3.2873605953        0.1021597460        8.5178228270
  N         3.2886611575        0.1070843002       10.4953928023
 Ga         3.2900757665        1.9785272055       11.0880768532
  N         3.2887381659        1.9780555701       13.0539886183
 Ga         3.2881321775        0.1066195403       13.6712626333
  N         3.2861939671        0.1411130689       15.6312282438
 Ga         3.2877404379        1.9796265587       15.9088044038
  N         1.5816540104        4.6576128451        2.5642447792
 Ga         1.6396504429        2.8961545977        3.3976288523
  N         1.7040544088        2.8860074644        5.3187196064
 Ga         1.7101637156        4.7794501296        5.8873230331
  N         1.6833996360        4.7612752077        7.8644173612
 Ga         1.6640160888        2.9137635529        8.5166388976
  N         1.6698782042        2.9122674832       10.4958367904
 Ga         1.6973612128        4.7772123497       11.1202134132
  N         1.7121936122        4.7829023151       13.1120878970
 Ga         1.6675302166        2.9144504224       13.6718502132
  N         1.6955314998        2.8984907165       15.6333662463
 Ga         1.5169048926        4.6729922417       16.5309777629
  N         0.0830208260        7.5471288783        2.7072232899
 Ga         0.0922545326        5.7067617401        3.3698767457
  N         0.0786036852        5.7026092531        5.3077149432
 Ga         0.1050454143        7.5648948420        5.9170932582
  N         0.0737572125        7.5510244021        7.8893247947
 Ga         0.0671933438        5.6848059045        8.4896102181
  N         0.0705031620        5.6799584131       10.4792334162
 Ga         0.0749321488        7.5499893944       11.0735751931
  N         0.0713430748        7.5492817639       13.0431499652
 Ga         0.0714507465        5.6798489594       13.6689247952
  N         0.0685581134        5.7112475477       15.6283593985
 Ga         0.0719032710        7.5490452921       15.9074032192
  N        -1.6393165761       10.2871755633        2.5916015894
 Ga        -1.4932981955        8.4640886205        3.3592440212
  N        -1.5295895009        8.4748648712        5.2942956824
 Ga        -1.4945823519       10.3482803125        5.8787476339
  N        -1.5358260097       10.3379581176        7.8561924218
 Ga        -1.5441658806        8.4765914080        8.4893851080
  N        -1.5474292552        8.4824065454       10.4778125645
 Ga        -1.5161070066       10.3404558267       11.1238313947
  N        -1.5030872285       10.3519996952       13.1139032005
 Ga        -1.5473835809        8.4833134719       13.6705104636
  N        -1.5202617018        8.4669255786       15.6319049886
 Ga        -1.6977119739       10.2413343220       16.5299266155
  N         6.4807383202        2.1045777854        2.5676485878
 Ga         6.5417124490        0.1088628769        2.9776411310
  N         6.4753182296        0.1402060181        5.1208839289
 Ga         6.5211834131        1.9446506229        5.8779897666
  N         6.5038066922        1.9727514072        7.8600741180
 Ga         6.5129153381        0.1177766649        8.4883141972
  N         6.5040286644        0.1210306700       10.4617348473
 Ga         6.5092422260        1.9590361352       11.1211551608
  N         6.5056412819        1.9412109424       13.1123176914
 Ga         6.5066512127        0.1211297556       13.9206634730
  N         6.5060888249        0.1210777874       16.1156078288
 Ga         6.5046060542        2.1659377483       16.5286918378
 Ga         6.4928594382        3.8508948896        1.6518363055
  N         4.9768090571        4.6545009246        2.6148400654
 Ga         4.8915371856        2.8638636464        3.4357132989
  N         4.8732739233        2.8820520830        5.3392795008
 Ga         4.8722577594        4.7855022493        5.8745757934
  N         4.8926494298        4.7606770631        7.8572667171
 Ga         4.9148274509        2.9154646861        8.5126273134
  N         4.9088497310        2.9126156895       10.4930095209
 Ga         4.8831486245        4.7780316331       11.1165144210
  N         4.8656222717        4.7831444191       13.1093240393
 Ga         4.9096813250        2.9150016341       13.6696117822
  N         4.8790596595        2.8997426072       15.6299460975
 Ga         5.0623744284        4.6699573416       16.5298425794
  N         6.5109555655        3.8337675662       17.6627510682
  N         3.2858815692        7.5399366349        2.6219593419
  N         3.2837941682        5.6455253306        5.1218259315
 Ga         3.2925799381        7.5446820201        5.7522829919
  N         3.2883851169        7.5421359727        7.7922693955
 Ga         3.2907863413        5.7066502806        8.4764659073
  N         3.2892047035        5.6939232439       10.4549398745
 Ga         3.2899037053        7.5324416901       11.1145047838
  N         3.2888202960        7.5126511127       13.1083269230
 Ga         3.2895108478        5.6927259936       13.9202795098
  N         3.2893614971        5.6932055928       16.1153021774
 Ga         3.2869355276        7.7361072122       16.5242872030
 Ga         4.1249031112       10.8295774832        0.7000339088
  N         1.7107506313       10.3457357605        2.5724986680
 Ga         1.7866273805        8.5172471667        3.1564325943
  N         1.6576426102        8.4808224344        5.2041946892
 Ga         1.6564463999       10.3335864823        5.8088953810
  N         1.6683121736       10.3366657270        7.8246250029
 Ga         1.7006661350        8.4836759351        8.4704016505
  N         1.6926646776        8.4829449402       10.4684559662
 Ga         1.6675408595       10.3422891175       11.1126111393
  N         1.6488779838       10.3528306969       13.1060571230
 Ga         1.6910017404        8.4844880727       13.6645272636
  N         1.6616101640        8.4698642664       15.6234448547
 Ga         1.8458329980       10.2392238390       16.5252177949
  N         3.2942836294        9.4031434814       17.6618012194
  N         9.7461400380        1.9380370425        2.6324897898
 Ga         9.6660554798        0.1371805512        3.2954872693
  N         9.7201349608        0.1241095434        5.2867283598
 Ga         9.7257965139        1.9655324434        5.9086252419
  N         9.7208032669        1.9780038364        7.8886018941
 Ga         9.7191978708        0.1056375135        8.4676980563
  N         9.7203841911        0.1091127940       10.4681763073
 Ga         9.7206275619        1.9765658917       11.0707567451
  N         9.7204967885        1.9787742670       13.0413107858
 Ga         9.7203467025        0.1094762607       13.6640620900
  N         9.7182074454        0.1423403398       15.6229906225
 Ga         9.7206514648        1.9796333467       15.9067375561
  N         7.9982329193        4.7022067038        2.5791968727
 Ga         8.2408888482        2.8281498517        3.3280925377
  N         8.1152987129        2.9004979756        5.2911973431
 Ga         8.1385752426        4.7776867541        5.8302270090
  N         8.1248908431        4.7684197294        7.8309515906
 Ga         8.1098228555        2.9153025798        8.4842674824
  N         8.1024609310        2.9143162937       10.4761667367
 Ga         8.1276502582        4.7730494726       11.1170291315
  N         8.1444628699        4.7826184121       13.1097311704
 Ga         8.1022447879        2.9139739908       13.6683710291
  N         8.1297342717        2.8990562286       15.6301220140
 Ga         7.9515814693        4.6728235910       16.5287610960
  N         6.4946153686        7.5637090538        2.6209716064
 Ga         6.4775949926        5.8400582360        3.3546976844
  N         6.5007009412        5.6969576187        5.3105747194
 Ga         6.4725629810        7.5740037730        5.8824300000
  N         6.5019220887        7.5540279398        7.8713193008
 Ga         6.5104901393        5.6886200305        8.4731202341
  N         6.5075775945        5.6806211560       10.4695035126
 Ga         6.5036773366        7.5488872006       11.0689354641
  N         6.5055958476        7.5487181968       13.0400414221
 Ga         6.5049463753        5.6802288577       13.6679814492
  N         6.5036959010        5.7127247233       15.6279198812
 Ga         6.5040225675        7.5499266433       15.9088442158
  N         4.8689105023       10.3753888968        2.5344943491
 Ga         4.8615898286        8.4492797661        3.0927307503
  N         4.9058089714        8.4985655749        5.1873813766
 Ga         4.9109731905       10.3317227907        5.8152939475
  N         4.9071766102       10.3395377145        7.8275401094
 Ga         4.8800775073        8.4823677846        8.4643385458
  N         4.8856305748        8.4825029810       10.4654434065
 Ga         4.9089495182       10.3409168281       11.1118125502
  N         4.9279449495       10.3526299425       13.1064571733
 Ga         4.8865068325        8.4839648643       13.6647906364
  N         4.9133968385        8.4683328174       15.6256415336
 Ga         4.7340425915       10.2429058510       16.5243962652
  O         0.0725133493        3.7982848213       -0.4238339669
  H         7.2745740424        3.5120264461       -0.6956650219
  C        -1.0579260983        3.1881845368       -1.0511491593
  H        -1.3171067924        2.2131489921       -0.5938545600
  H        -1.9562882287        3.8307602268       -0.9821617882
  H        -0.8042915841        3.0247126417       -2.1083979110
 Ga         3.2668706178        5.7245049156        2.9966831286
  O         6.4191506085        3.8703036705       -0.3566538268
  H         0.0230100986        7.5067672266        1.6830321556
  C         3.2858993617        1.8580068911        1.2583035138
  H         6.3596867529        4.8128063853       -0.6480251703
  H         4.2277702540        1.7969411002        0.6944951116
  H         2.3439411873        1.8110326102        0.6896842421
     212
 i =        3, E =     -8504.7272479518
  N         0.0872935283        2.1051999540        2.5463962702
 Ga         0.0651535550        0.1533761750        3.0267905491
  N         0.0905063237        0.1393300357        5.1184039672
 Ga         0.0582444473        1.9495139634        5.8812882717
  N         0.0754545884        1.9722567734        7.8612759198
 Ga         0.0639742615        0.1164147136        8.4907325895
  N         0.0727368674        0.1205868423       10.4633816109
 Ga         0.0686959823        1.9583789044       11.1230224318
  N         0.0715693995        1.9412452298       13.1132700792
 Ga         0.0708206037        0.1206518843       13.9200751874
  N         0.0721666684        0.1210200128       16.1141528094
 Ga         0.0701959156        2.1653491465       16.5303472491
 Ga         0.0529656332        3.8476575663        1.3964984254
  N        -1.4138021335        4.7010333547        2.5661374330
 Ga        -1.6130179588        2.8471012465        3.3133177281
  N        -1.5325713092        2.9055651023        5.2902119554
 Ga        -1.5646077659        4.7757228665        5.8430968423
  N        -1.5447750970        4.7696957520        7.8376427518
 Ga        -1.5326041442        2.9135571242        8.4877881268
  N        -1.5246297077        2.9142273948       10.4779554908
 Ga        -1.5519077322        4.7728331498       11.1194169914
  N        -1.5680734425        4.7825769821       13.1100534982
 Ga        -1.5262163467        2.9137784413       13.6686241237
  N        -1.5537414747        2.9005538435       15.6281812350
 Ga        -1.3719056879        4.6692048194       16.5309677180
  N         0.0761270643        3.8329595164       17.6665120645
  N        -3.1368793798        7.6905810932        2.5449860921
 Ga        -3.1270873357        5.6790291388        2.9001651557
  N        -3.1414697422        5.6941252785        5.0555568719
 Ga        -3.1482648242        7.5124190775        5.8459845196
  N        -3.1425887394        7.5374579338        7.8367575169
 Ga        -3.1447005452        5.6896519550        8.4883019132
  N        -3.1438307760        5.6920676212       10.4612039803
 Ga        -3.1449981984        7.5303629942       11.1182273683
  N        -3.1441120046        7.5121067431       13.1099429556