     156
 i =        1, E =     -6136.5906016170
 Ga        -0.0031972938       -0.0158329536       -0.5375920868
  N        -0.0002729747        1.8584780262        0.6070034185
 Ga        -0.0003340779        1.8280289746        2.6383732906
  N        -0.0033776596       -0.0156159154        3.2696695673
 Ga        -0.0021652846       -0.0150504875        5.2603878499
  N         0.0008176287        1.8596741925        5.8482867162
 Ga         0.0022936762        1.8581493693        7.8482586217
  N         0.0008333774       -0.0150044407        8.4505927980
 Ga         0.0037466032       -0.0157245105       10.4498006412
  N         0.0042765122        1.8600696211       11.0415616860
 Ga         0.0095719096        1.8622443935       13.0320361269
  N         0.0153304695       -0.0087469342       13.6325184565
 Ga         0.0304121680       -0.0177840755       15.6248532476
  N         0.0199234050        1.8575133572       16.2216828698
 Ga         0.0448757722        1.8472196280       18.2878387843
  N         0.0484127959       -0.0267935048       18.6984717351
 Ga        -1.6230535399        2.7898790691        0.3238580705
  N        -1.6248092412        4.6597399119        0.6067044917
 Ga        -1.5956876618        4.6757303462        2.6367588095
  N        -1.6231061075        2.7899847128        3.2283083394
 Ga        -1.6217674798        2.7906186479        5.2398558687
  N        -1.6212820782        4.6608903736        5.8464773581
 Ga        -1.6191122097        4.6615340935        7.8452194481
  N        -1.6203686977        2.7918373866        8.4511952585
 Ga        -1.6194706330        2.7953472836       10.4471930030
  N        -1.6174694493        4.6668735404       11.0551971726
 Ga        -1.6181942460        4.6714091799       13.0527631204
  N        -1.6072567656        2.7998313931       13.6584019137
 Ga        -1.6007367103        2.8163656308       15.6629492248
  N        -1.5864302666        4.6838516657       16.3115889367
 Ga        -1.5144164247        4.6810090814       18.3865599564
  N        -1.5542715523        2.7885359803       18.7558361498
 Ga        -3.2437385155        5.5955549872        0.3237765904
  N        -3.2373751527        7.4661485761        0.6072613737
 Ga        -3.2641810882        7.4807092147        2.6385123766
  N        -3.2426867094        5.5950414317        3.2286469834
 Ga        -3.2419166961        5.5960175667        5.2401041130
  N        -3.2357830297        7.4663007757        5.8469777032
 Ga        -3.2358775094        7.4670844723        7.8461540045
  N        -3.2398786979        5.5961820180        8.4495145562
 Ga        -3.2389568547        5.5972437662       10.4449803957
  N        -3.2308430257        7.4658254694       11.0556471058
 Ga        -3.2219236016        7.4629561828       13.0544496408
  N        -3.2355874909        5.5972872631       13.6928629540
 Ga        -3.2227230320        5.5919789713       15.7299319862
  N        -3.2086320065        7.4742834220       16.2704697469
 Ga        -3.1859165205        7.4478147498       18.3277453921
  N        -3.1590390329        5.5861606990       18.8508034503
 Ga         3.2425511924       -0.0154445027        0.3241637417
  N         3.2414640732        1.8548065807        0.6064050676
 Ga         3.2696601455        1.8704493209        2.6372720195
  N         3.2428081064       -0.0153018290        3.2283094815
 Ga         3.2440036987       -0.0146002887        5.2399817070
  N         3.2446612881        1.8555404529        5.8474793085
 Ga         3.2471215979        1.8563015211        7.8468999712
  N         3.2448897473       -0.0146526644        8.4498472860
 Ga         3.2477485916       -0.0140928783       10.4454054826
  N         3.2516257567        1.8569304686       11.0512438483
 Ga         3.2584324828        1.8539992654       13.0486059950
  N         3.2577963179       -0.0166502023       13.6599104184
 Ga         3.2697563828       -0.0187534186       15.6657835371
  N         3.2837261185        1.8547356655       16.2308097789
 Ga         3.3197887640        1.8603796082       18.2552297610
  N         3.3063117849       -0.0256358897       18.7100269295
 Ga         1.6221356610        2.7905839229        0.3237602442
  N         1.6293374958        4.6603703710        0.6070252991
 Ga         1.6011637613        4.6758751054        2.6371226942
  N         1.6229364177        2.7900954961        3.2290439530
 Ga         1.6243016701        2.7909481075        5.2409064173
  N         1.6297316171        4.6611463898        5.8483953239
 Ga         1.6302399017        4.6616189159        7.8483618775
  N         1.6261116368        2.7902913224        8.4496170126
 Ga         1.6296900512        2.7921045491       10.4450755560
  N         1.6277781985        4.6624112118       11.0490978824
 Ga         1.6291654249        4.6646999467       13.0447637477
  N         1.6312528294        2.7873586374       13.6464374081
 Ga         1.6546448351        2.7849469930       15.6411123470
  N         1.6292142214        4.6649920431       16.1843663814
 Ga         1.6784635395        4.6402219160       18.1815263225
  N         1.6849174731        2.7775900039       18.6347334223
 Ga         0.0031267440        5.5957808991       -0.5460647771
  N         0.0059631080        7.4707668625        0.6066912582
 Ga         0.0060798082        7.4382902280        2.6368392354
  N         0.0030123644        5.5951899719        3.2695580932
 Ga         0.0046921871        5.5962069997        5.2597978911
  N         0.0074732853        7.4707308217        5.8477463091
 Ga         0.0089324823        7.4693604754        7.8473808651
  N         0.0049617112        5.5956920263        8.4474954057
 Ga         0.0067228330        5.5972403541       10.4447770328
  N         0.0116956620        7.4694106869       11.0449686265
 Ga         0.0151587335        7.4714278600       13.0370701941
  N         0.0057094905        5.6027645787       13.6456217032
 Ga         0.0064765928        5.6014664203       15.6418460783
  N         0.0373074167        7.4659614245       16.2691702673
 Ga         0.0724478753        7.4322267085       18.3565559948
  N         0.1391375087        5.5809234771       18.8994148615
 Ga         6.4873193997       -0.0150112643        0.3233781668
  N         6.4933547137        1.8552431850        0.6060772902
 Ga         6.4660946494        1.8703008498        2.6370715262
  N         6.4880555213       -0.0152152233        3.2289229826
 Ga         6.4897977230       -0.0146100427        5.2408780686
  N         6.4945650200        1.8559331500        5.8479439210
 Ga         6.4944339347        1.8568656154        7.8475044629
  N         6.4910156081       -0.0135251661        8.4515810039
 Ga         6.4945785241       -0.0112816994       10.4481856504
  N         6.4964384354        1.8611465082       11.0529315857
 Ga         6.5008819058        1.8654486395       13.0501220754
  N         6.4899652338       -0.0070122366       13.6381412721
 Ga         6.5089953462       -0.0000815053       15.6390150676
  N         6.5163789659        1.8736499017       16.2290902458
 Ga         6.5724586054        1.8766046336       18.2703029692
  N         6.5609570133       -0.0215295612       18.6560837397
 Ga         4.8675978377        2.7916176662       -0.5407205166
  N         4.8709926237        4.6643843454        0.6069507055
 Ga         4.8708433678        4.6332335296        2.6375482789
  N         4.8683123917        2.7899033539        3.2692993511
 Ga         4.8696074496        2.7911735107        5.2595407403
  N         4.8722549630        4.6651827391        5.8481340568
 Ga         4.8727495672        4.6640320265        7.8478242103
  N         4.8709691393        2.7914540664        8.4504644616
 Ga         4.8737831522        2.7956374505       10.4497129112
  N         4.8796223130        4.6660289092       11.0584148519
 Ga         4.8809900211        4.6697850899       13.0609040012
  N         4.8759893759        2.7957739752       13.6539562602
 Ga         4.8829388695        2.8016709149       15.6676579779
  N         4.8620337027        4.6739275208       16.1684005760
 Ga         4.9328648236        4.6623547153       19.0925136491
  N         4.9399475598        2.7837377744       18.7399583130
 Ga         3.2489114161        5.5950410411        0.3233212219
  N         3.2480355801        7.4655301018        0.6067720600
 Ga         3.2754810145        7.4805717721        2.6380895754
  N         3.2486685528        5.5952812311        3.2290980085
 Ga         3.2500910624        5.5963525790        5.2407730959
  N         3.2504882256        7.4661954054        5.8494255086
 Ga         3.2531341296        7.4666195050        7.8498710503
  N         3.2515171913        5.5959999142        8.4551932026
 Ga         3.2549089469        5.5976533919       10.4543220188
  N         3.2566810869        7.4714405176       11.0506818055
 Ga         3.2573490901        7.4729118997       13.0478981565
  N         3.2491332987        5.5987041061       13.6294783947
 Ga         3.2565131450        5.6058981317       15.6352928578
  N         3.2799557665        7.4864964281       16.1587527346
 Ga         3.3269475927        7.4923787931       18.1720637182
  N         3.3627293129        5.5701596596       18.4641498638
  O         1.6214974013        5.1575324781       21.2045092477
  H         0.9819678860        5.4143500112       20.4569576092
  C         0.8048206494        3.9241772389       21.9214331990
  H         0.0976770969        3.5261565227       21.1761992939
  H         1.5631528038        3.1808589202       22.2012950619
  H         0.3002176818        4.3732457881       22.7909194068
  O         4.2466946657        4.7160668918       21.0733276226
  H         3.2394299536        4.8652356896       21.0721625645
  C         4.5517453454        3.5959119970       21.9437325518
  H         4.1177950061        2.6622379176       21.5598756270
  H         5.6435218847        3.5047368688       21.9646611440
  H         4.1784278003        3.8118111197       22.9528881005
     156
 i =        2, E =     -6136.6072392820
 Ga        -0.0031870127       -0.0158347622       -0.5427968292
  N        -0.0002260953        1.8587327915        0.6074713695
 Ga        -0.0002175947        1.8276700811        2.6379972438
  N        -0.0033151079       -0.0156310292        3.2702749926
 Ga        -0.0021206238       -0.0150348757        5.2604244866
  N         0.0009504625        1.8597733882        5.8487164804
 Ga         0.0025369329        1.8583539582        7.8485556645
  N         0.0010479364       -0.0150816777        8.4497464116
 Ga         0.0043199255       -0.0153828642       10.4485594251
  N         0.0043390400        1.8598873945       11.0459826041
 Ga         0.0109139850        1.8617516758       13.0378441379
  N         0.0170000627       -0.0092685800       13.6391087067
 Ga         0.0334298577       -0.0262788416       15.6322666633
  N         0.0261622946        1.8561105561       16.2174318906
 Ga         0.0469326848        1.8519312030       18.2801783650
  N         0.0429021236       -0.0195413564       18.6892485226
 Ga        -1.6226314802        2.7897146309        0.3241673660
  N        -1.6246473119        4.6597653731        0.6064474394
 Ga        -1.5958788249        4.6756141596        2.6367141903
  N        -1.6229175505        2.7898599836        3.2283884589
 Ga        -1.6216928573        2.7907438421        5.2398380111
  N        -1.6211241299        4.6610393574        5.8469028075
 Ga        -1.6190149194        4.6619167738        7.8455316007
  N        -1.6203944096        2.7920427223        8.4510174837
 Ga        -1.6191671673        2.7955613421       10.4467960840
  N        -1.6176543016        4.6666348061       11.0562627234
 Ga        -1.6189614306        4.6703055807       13.0541954750
  N        -1.6058165625        2.7993172389       13.6638317625
 Ga        -1.6018286297        2.8147139134       15.6683414048
  N        -1.5893953117        4.6792509849       16.3105851778
 Ga        -1.5173904123        4.6809697947       18.3855583824
  N        -1.5517312310        2.7867538415       18.7416513327
 Ga        -3.2436048319        5.5959190864        0.3241183581
  N        -3.2370423016        7.4660072634        0.6077280836
 Ga        -3.2644042025        7.4808245000        2.6381718417
  N        -3.2426659834        5.5951552423        3.2287256462
 Ga        -3.2418363729        5.5960149137        5.2400236270
  N        -3.2356238346        7.4663626400        5.8471979643
 Ga        -3.2355723459        7.4670211919        7.8461584734
  N        -3.2398302905        5.5963553832        8.4501459295
 Ga        -3.2390542051        5.5972932483       10.4458406546
  N        -3.2309907739        7.4661781663       11.0553999900
 Ga        -3.2226017187        7.4621750988       13.0541395447
  N        -3.2365368882        5.5968682325       13.6924054480
 Ga        -3.2241980297        5.5901150588       15.7299245428
  N        -3.2036516046        7.4653039644       16.2756488444
 Ga        -3.1924272473        7.4444155722       18.3319654625
  N        -3.1558248284        5.5860917197       18.8577305952
 Ga         3.2423441897       -0.0156734016        0.3244691777
  N         3.2417040162        1.8549105254        0.6061051352
 Ga         3.2695825764        1.8703596155        2.6373408635
  N         3.2427267865       -0.0153760532        3.2283733318
 Ga         3.2442255910       -0.0145709488        5.2398885963
  N         3.2447167595        1.8555567886        5.8477886088
 Ga         3.2472894257        1.8562852349        7.8469593389
  N         3.2448569183       -0.0145188229        8.4499891013
 Ga         3.2475503517       -0.0138948436       10.4453574917
  N         3.2520386616        1.8570868094       11.0514651118
 Ga         3.2594975303        1.8530170233       13.0484511433
  N         3.2556896980       -0.0165928042       13.6609970227
 Ga         3.2641350741       -0.0183276734       15.6671898094
  N         3.2842507907        1.8510935802       16.2373803090
 Ga         3.3233231019        1.8609499529       18.2637052928
  N         3.2986800842       -0.0228874749       18.7284866791
 Ga         1.6218296598        2.7904403241        0.3241635829
  N         1.6292660339        4.6604066047        0.6068225843
 Ga         1.6015485938        4.6756974587        2.6370985221
  N         1.6228987051        2.7899847410        3.2291346984
 Ga         1.6244307499        2.7910982307        5.2408122992
  N         1.6297807455        4.6612423560        5.8487239689
 Ga         1.6303081739        4.6618660502        7.8484942222
  N         1.6265091209        2.7905502378        8.4496940052
 Ga         1.6297105424        2.7921562443       10.4450866123
  N         1.6277756570        4.6626339074       11.0474222544
 Ga         1.6264250028        4.6654071358       13.0429430330
  N         1.6341303233        2.7885472179       13.6471098919
 Ga         1.6591711949        2.7878981037       15.6406746083
  N         1.6263897547        4.6635120551       16.1785600296
 Ga         1.6791524110        4.6427183147       18.1771737006
  N         1.6847498850        2.7812247434       18.6247520439
 Ga         0.0032369460        5.5957039948       -0.5449487532
  N         0.0060166983        7.4706182058        0.6065038058
 Ga         0.0061542301        7.4385780356        2.6368640648
  N         0.0031215015        5.5951705814        3.2690957945
 Ga         0.0048374742        5.5962925584        5.2595377960
  N         0.0075590459        7.4707099463        5.8483438444
 Ga         0.0088945483        7.4693786872        7.8478549557
  N         0.0051122597        5.5957327307        8.4476292560
 Ga         0.0063655903        5.5970510533       10.4448463035
  N         0.0116789489        7.4695726732       11.0442437121
 Ga         0.0143569070        7.4727422623       13.0363806180
  N         0.0040122620        5.6042628597       13.6451092747
 Ga         0.0064051974        5.5985340664       15.6428529191
  N         0.0401620918        7.4716880316       16.2592378809
 Ga         0.0609968369        7.4384520880       18.3487692186
  N         0.1353340204        5.5850053636       18.8872941321
 Ga         6.4876538492       -0.0152491307        0.3237187631
  N         6.4932245403        1.8553520766        0.6057703737
 Ga         6.4662693286        1.8701582103        2.6371199173
  N         6.4882630044       -0.0152934657        3.2290335721
 Ga         6.4897980306       -0.0146458102        5.2408110437
  N         6.4946690415        1.8559000656        5.8482607730
 Ga         6.4943840718        1.8569060441        7.8476262112
  N         6.4910287840       -0.0134198246        8.4512138261
 Ga         6.4945500046       -0.0105303610       10.4477160008
  N         6.4967021204        1.8618383142       11.0545771891
 Ga         6.5015927612        1.8673646278       13.0522167925
  N         6.4915048560       -0.0057834196       13.6337023484
 Ga         6.5110249358        0.0016748775       15.6331476277
  N         6.5166810781        1.8713516585       16.2347214910
 Ga         6.5717691784        1.8732197024       18.2769647741
  N         6.5572529421       -0.0249000848       18.6635491589
 Ga         4.8676648165        2.7915105867       -0.5387861063
  N         4.8710605392        4.6641213864        0.6066221201
 Ga         4.8708751638        4.6334056227        2.6375948258
  N         4.8683857227        2.7899174662        3.2691164680
 Ga         4.8696910822        2.7912454258        5.2594612790
  N         4.8723403046        4.6652716129        5.8484988315
 Ga         4.8728462149        4.6642598140        7.8480529078
  N         4.8709927361        2.7915942390        8.4503495578
 Ga         4.8740003454        2.7956666150       10.4493285261
  N         4.8790653267        4.6657708302       11.0581710846
 Ga         4.8805726861        4.6700248484       13.0613040370
  N         4.8752460612        2.7966075842       13.6579301184
 Ga         4.8826557020        2.7989229125       15.6740062259
  N         4.8553204845        4.6739553906       16.1582916023
 Ga         4.9398300414        4.6590530666       19.0971256534
  N         4.9422693136        2.7835350249       18.7440689753
 Ga         3.2488823274        5.5953697701        0.3237190507
  N         3.2478212205        7.4653595662        0.6073405961
 Ga         3.2758143594        7.4806633616        2.6378286843
  N         3.2487669342        5.5953959652        3.2292538138
 Ga         3.2501523311        5.5963649994        5.2407414364
  N         3.2505123147        7.4662186476        5.8497256203
 Ga         3.2530961450        7.4665770325        7.8500080267
  N         3.2515417958        5.5960556313        8.4548508665
 Ga         3.2548595090        5.5979795652       10.4539328226
  N         3.2570873901        7.4723230789       11.0489901521
 Ga         3.2587695405        7.4747925128       13.0461697030
  N         3.2466095940        5.6005517884       13.6229606057
 Ga         3.2546455035        5.6080572718       15.6284151645
  N         3.2774543180        7.4855610813       16.1598758497
 Ga         3.3228484306        7.4904850034       18.1736804712
  N         3.3757253754        5.5642587836       18.4470367628
  O         1.6514350390        5.2344752993       21.2016723712
  H         0.9945841538        5.4302598790       20.4416614842
  C         0.7729280401        3.8718069544       21.9475497564
  H         0.0850121930        3.5108161140       21.1726967335
  H         1.5657452773        3.1650885809       22.2097032192
  H         0.2926634262        4.3592573431       22.8020412002
  O         4.2425436844        4.7120019691       21.0730416756
  H         3.2366506274        4.8860873610       21.0580446236
  C         4.5618597960        3.5966957377       21.9422041824
  H         4.1198487225        2.6654308573       21.5601249231
  H         5.6514625823        3.4919681971       21.9740866936
  H         4.1797832488        3.8114479943       22.9489867439
     156
 i =        3, E =     -6136.6098977378
 Ga        -0.0031537751       -0.0158429815       -0.5449179026
  N        -0.0001730687        1.8589310225        0.6074335140
 Ga        -0.0001786955        1.8273966406        2.6377496957
  N        -0.0032177201       -0.0156520354        3.2706062335
 Ga        -0.0019710743       -0.0149087674        5.2607055272
  N         0.0010187226        1.8598947661        5.8483757605
 Ga         0.0026508801        1.8586277357        7.8479907412
  N         0.0013506095       -0.0145376243        8.4497804237
 Ga         0.0049048665       -0.0142574904       10.4484070004
  N         0.0045645648        1.8598570913       11.0492725481
 Ga         0.0119305671        1.8603624475       13.0422940910
  N         0.0179331053       -0.0110805134       13.6424311356
 Ga         0.0348787279       -0.0303145233       15.6359648954
  N         0.0300951764        1.8545103920       16.2144923928
 Ga         0.0476991908        1.8543673840       18.2739189746
  N         0.0389280675       -0.0166251792       18.6832467134
 Ga        -1.6223462375        2.7898723246        0.3246103254
  N        -1.6243689838        4.6598844631        0.6065670461
 Ga        -1.5957978277        4.6755722265        2.6369375498
  N        -1.6227330130        2.7898031829        3.2285200818
 Ga        -1.6214963387        2.7908195652        5.2400737263
  N        -1.6211062325        4.6610799829        5.8467252520
 Ga        -1.6190646116        4.6617672159        7.8454710126
  N        -1.6199931154        2.7919803679        8.4520740678
 Ga        -1.6184379081        2.7953169427       10.4479279281
  N        -1.6179046671        4.6660850829       11.0570812066
 Ga        -1.6195909768        4.6696577310       13.0552873009
  N        -1.6047232150        2.7989352461       13.6671264849
 Ga        -1.6014604653        2.8124774257       15.6718882804
  N        -1.5916215702        4.6757537290       16.3092307349
 Ga        -1.5180511019        4.6836093732       18.3845931640
  N        -1.5494954738        2.7874481459       18.7339439270
 Ga        -3.2432721363        5.5960261037        0.3244997849
  N        -3.2367624181        7.4658765345        0.6076262467
 Ga        -3.2645530930        7.4809534753        2.6378511145
  N        -3.2425663725        5.5952868254        3.2287284553
 Ga        -3.2416701441        5.5961160069        5.2401412961
  N        -3.2355386294        7.4663382646        5.8470131074
 Ga        -3.2355507261        7.4670593206        7.8459738102
  N        -3.2396240525        5.5964999581        8.4505620218
 Ga        -3.2389624660        5.5970507280       10.4465739055
  N        -3.2314315631        7.4661395806       11.0551731322
 Ga        -3.2228024261        7.4620307688       13.0538884215
  N        -3.2377708975        5.5964268502       13.6906541791
 Ga        -3.2242687315        5.5891695936       15.7281806764
  N        -3.2021694887        7.4599647624       16.2790435328
 Ga        -3.1967269625        7.4428550539       18.3355563847
  N        -3.1527350438        5.5867641952       18.8663399240
 Ga         3.2424567843       -0.0159763042        0.3248606358
  N         3.2416539445        1.8548209837        0.6058986357
 Ga         3.2696177375        1.8703034257        2.6375771520
  N         3.2427183976       -0.0154662658        3.2284347449
 Ga         3.2442084726       -0.0145910050        5.2400816038
  N         3.2448300095        1.8556006967        5.8474931836
 Ga         3.2472349712        1.8565141236        7.8468089006
  N         3.2447697965       -0.0143265050        8.4500586273
 Ga         3.2472177224       -0.0137552424       10.4455868244
  N         3.2526021761        1.8571624373       11.0515967935
 Ga         3.2598028939        1.8537065076       13.0485183593
  N         3.2543113244       -0.0155560791       13.6603827447
 Ga         3.2614805427       -0.0186184728       15.6668687695
  N         3.2846621637        1.8487079621       16.2421059009
 Ga         3.3230700632        1.8625267091       18.2702624137
  N         3.2954152860       -0.0217606875       18.7380726554
 Ga         1.6216563280        2.7905800245        0.3245771774
  N         1.6291348755        4.6604988192        0.6069882910
 Ga         1.6016010611        4.6756764409        2.6373645504
  N         1.6228836306        2.7898839699        3.2291971796
 Ga         1.6244228237        2.7910889746        5.2410150318
  N         1.6298330692        4.6612657090        5.8485079167
 Ga         1.6303212923        4.6617431835        7.8485780451
  N         1.6263842036        2.7903590502        8.4505681923
 Ga         1.6295494129        2.7917556166       10.4462491730
  N         1.6271920187        4.6626805900       11.0457863907
 Ga         1.6250749686        4.6660819283       13.0408567983
  N         1.6353502717        2.7898250874       13.6468061127
 Ga         1.6621048809        2.7880699434       15.6399527766
  N         1.6239727569        4.6633784278       16.1727665410
 Ga         1.6809006957        4.6454989670       18.1712397195
  N         1.6832634149        2.7859237997       18.6210284811
 Ga         0.0033161084        5.5956521705       -0.5452506759
  N         0.0060812236        7.4703356608        0.6065995283
 Ga         0.0062234555        7.4385567548        2.6370445956
  N         0.0031669088        5.5951905861        3.2692522197
 Ga         0.0048483555        5.5962931647        5.2597583535
  N         0.0076297045        7.4707707985        5.8480965301
 Ga         0.0089553878        7.4695074898        7.8478534307
  N         0.0049261507        5.5957478041        8.4477140923
 Ga         0.0056533357        5.5971488262       10.4451740368
  N         0.0115282586        7.4699617939       11.0443246158
 Ga         0.0135253123        7.4731443670       13.0369129774
  N         0.0030616101        5.6043112732       13.6443506056
 Ga         0.0050958083        5.5985352219       15.6427532173
  N         0.0400035495        7.4749667898       16.2573192093
 Ga         0.0533918598        7.4411286245       18.3451923186
  N         0.1369023762        5.5858388638       18.8785721995
 Ga         6.4876771743       -0.0155641624        0.3241095939
  N         6.4933977257        1.8552428317        0.6055743807
 Ga         6.4664307466        1.8701438014        2.6373737670
  N         6.4883931681       -0.0153578695        3.2291173478
 Ga         6.4899492689       -0.0146029565        5.2410482843
  N         6.4948125589        1.8560008751        5.8478841392
 Ga         6.4947584703        1.8572376621        7.8473090557
  N         6.4910641836       -0.0129710751        8.4516722300
 Ga         6.4947583674       -0.0095919708       10.4486034563
  N         6.4968360891        1.8630793853       11.0550855466
 Ga         6.5024785740        1.8688671385       13.0527948208
  N         6.4922070208       -0.0042836152       13.6315334874
 Ga         6.5099373942        0.0021022472       15.6301866832
  N         6.5173469149        1.8695166140       16.2380542776
 Ga         6.5725236462        1.8694623671       18.2821516860
  N         6.5552747122       -0.0296667121       18.6674884621
 Ga         4.8677482672        2.7914522266       -0.5373439344
  N         4.8711183537        4.6642442329        0.6063879232
 Ga         4.8709955269        4.6334358639        2.6378035413
  N         4.8684644638        2.7898986265        3.2692353348
 Ga         4.8698175782        2.7913226228        5.2597538884
  N         4.8725478607        4.6653576391        5.8482658153
 Ga         4.8730389426        4.6643616689        7.8480518662
  N         4.8711964749        2.7915102867        8.4504737592
 Ga         4.8741460226        2.7959673119       10.4495280612
  N         4.8788250258        4.6657995010       11.0579714880
 Ga         4.8794756219        4.6690695573       13.0614318913
  N         4.8755131462        2.7962042106       13.6605715124
 Ga         4.8823678485        2.7959966526       15.6785803811
  N         4.8504809893        4.6753795728       16.1507500304
 Ga         4.9453859985        4.6545389083       19.0968535744
  N         4.9448067304        2.7784147743       18.7523307421
 Ga         3.2486779832        5.5954762956        0.3240937046
  N         3.2476693551        7.4652165745        0.6073054458
 Ga         3.2761127918        7.4808166398        2.6375520273
  N         3.2488764167        5.5955089285        3.2293123556
 Ga         3.2502544389        5.5964580807        5.2410047950
  N         3.2506470760        7.4663181616        5.8494910707
 Ga         3.2532759879        7.4669045041        7.8499195002
  N         3.2516064113        5.5962655608        8.4547128880
 Ga         3.2547312635        5.5980956393       10.4541525635
  N         3.2580678181        7.4730722165       11.0471121485
 Ga         3.2590536464        7.4768444252       13.0437571751
  N         3.2449557431        5.6027310044       13.6179146050
 Ga         3.2525659506        5.6101770746       15.6227521068
  N         3.2747482144        7.4856694736       16.1596032637
 Ga         3.3198454782        7.4883656560       18.1735573990
  N         3.3863022387        5.5593899901       18.4313346770
  O         1.6677478535        5.2700613428       21.2020535051
  H         1.0154568554        5.4510228180       20.4381793297
  C         0.7557946697        3.8437979618       21.9647871387