 DBCSR| Multiplication driver                                               BLAS
 DBCSR| Multrec recursion limit                                              512
 DBCSR| Multiplication stack size                                           1000
 DBCSR| Maximum elements for images                                    UNLIMITED
 DBCSR| Multiplicative factor virtual images                                   1
 DBCSR| Multiplication size stacks                                             3
 DBCSR| Number of 3D layers                                               SINGLE
 DBCSR| Use MPI memory allocation                                              T
 DBCSR| Use RMA algorithm                                                      F
 DBCSR| Use Communication thread                                               T
 DBCSR| Communication thread load                                             87


  **** **** ******  **  PROGRAM STARTED AT               2019-05-27 22:26:57.645
 ***** ** ***  *** **   PROGRAM STARTED ON        blg9245.int.ets1.calculquebec.
 **    ****   ******    PROGRAM STARTED BY                                   rzk
 ***** **    ** ** **   PROGRAM PROCESS ID                                 50178
  **** **  *******  **  PROGRAM STARTED IN /lustre03/project/6004141/rzk/GaN-car
                                           bene/334-native/08-2Methanol-Htransfe
                                           r/03-CO-constraint/1.94

 CP2K| version string:                    CP2K version 7.0 (Development Version)
 CP2K| source code revision number:                                    svn:18619
 CP2K| cp2kflags: libint fftw3 libxc parallel mpi3 scalapack mkl                
 CP2K| is freely available from                            https://www.cp2k.org/
 CP2K| Program compiled at                          Sun Apr  7 00:48:11 EDT 2019
 CP2K| Program compiled on                      beluga2.int.ets1.calculquebec.ca
 CP2K| Program compiled for                    Beluga-Linux-x86-64-intel-openmpi
 CP2K| Data directory path    /home/rzk/projects/def-rzk/group/cp2k/cp2k-mcgill/
 CP2K| Input file name                                                 start.inp
 
 GLOBAL| Force Environment number                                              1
 GLOBAL| Basis set file name                                        BASIS_MOLOPT
 GLOBAL| Potential file name                                      GTH_POTENTIALS
 GLOBAL| MM Potential file name                                     MM_POTENTIAL
 GLOBAL| Coordinate file name                                 ../start-first.xyz
 GLOBAL| Method name                                                        CP2K
 GLOBAL| Project name                                                       TEST
 GLOBAL| Preferred FFT library                                             FFTW3
 GLOBAL| Preferred diagonalization lib.                                       SL
 GLOBAL| Run type                                                        GEO_OPT
 GLOBAL| All-to-all communication in single precision                          F
 GLOBAL| FFTs using library dependent lengths                                  F
 GLOBAL| Global print level                                               MEDIUM
 GLOBAL| MPI I/O enabled                                                       T
 GLOBAL| Total number of message passing processes                            80
 GLOBAL| Number of threads for this process                                    1
 GLOBAL| This output is from process                                           0
 GLOBAL| CPU model name :  Intel(R) Xeon(R) Gold 6148 CPU @ 2.40GHz

 MEMORY| system memory details [Kb]
 MEMORY|                        rank 0           min           max       average
 MEMORY| MemTotal            196614300     196614300     196614300     196614300
 MEMORY| MemFree             176870812     176870192     179256840     178037509
 MEMORY| Buffers                    76            76            76            76
 MEMORY| Cached                1641812       1453024       1641812       1547418
 MEMORY| Slab                  3225224       2612560       3225224       2918892
 MEMORY| SReclaimable           409576        242680        409576        326128
 MEMORY| MemLikelyFree       178922276     178921656     180952620     179911131


 *** Fundamental physical constants (SI units) ***

 *** Literature: B. J. Mohr and B. N. Taylor,
 ***             CODATA recommended values of the fundamental physical
 ***             constants: 2006, Web Version 5.1
 ***             http://physics.nist.gov/constants

 Speed of light in vacuum [m/s]                             2.99792458000000E+08
 Magnetic constant or permeability of vacuum [N/A**2]       1.25663706143592E-06
 Electric constant or permittivity of vacuum [F/m]          8.85418781762039E-12
 Planck constant (h) [J*s]                                  6.62606896000000E-34
 Planck constant (h-bar) [J*s]                              1.05457162825177E-34
 Elementary charge [C]                                      1.60217648700000E-19
 Electron mass [kg]                                         9.10938215000000E-31
 Electron g factor [ ]                                     -2.00231930436220E+00
 Proton mass [kg]                                           1.67262163700000E-27
 Fine-structure constant                                    7.29735253760000E-03
 Rydberg constant [1/m]                                     1.09737315685270E+07
 Avogadro constant [1/mol]                                  6.02214179000000E+23
 Boltzmann constant [J/K]                                   1.38065040000000E-23
 Atomic mass unit [kg]                                      1.66053878200000E-27
 Bohr radius [m]                                            5.29177208590000E-11

 *** Conversion factors ***

 [u] -> [a.u.]                                              1.82288848426455E+03
 [Angstrom] -> [Bohr] = [a.u.]                              1.88972613288564E+00
 [a.u.] = [Bohr] -> [Angstrom]                              5.29177208590000E-01
 [a.u.] -> [s]                                              2.41888432650478E-17
 [a.u.] -> [fs]                                             2.41888432650478E-02
 [a.u.] -> [J]                                              4.35974393937059E-18
 [a.u.] -> [N]                                              8.23872205491840E-08
 [a.u.] -> [K]                                              3.15774647902944E+05
 [a.u.] -> [kJ/mol]                                         2.62549961709828E+03
 [a.u.] -> [kcal/mol]                                       6.27509468713739E+02
 [a.u.] -> [Pa]                                             2.94210107994716E+13
 [a.u.] -> [bar]                                            2.94210107994716E+08
 [a.u.] -> [atm]                                            2.90362800883016E+08
 [a.u.] -> [eV]                                             2.72113838565563E+01
 [a.u.] -> [Hz]                                             6.57968392072181E+15
 [a.u.] -> [1/cm] (wave numbers)                            2.19474631370540E+05
 [a.u./Bohr**2] -> [1/cm]                                   5.14048714338585E+03
 
          ----------------------------------------------------------------------
 COLVARS| COLVAR INPUT INDEX:        1
 COLVARS| BOND          >>> ATOMS:                                   145     147
          ----------------------------------------------------------------------

 CELL_TOP| Volume [angstrom^3]:                                         2519.385
 CELL_TOP| Vector a [angstrom     9.737     0.000     0.000    |a| =       9.737
 CELL_TOP| Vector b [angstrom    -4.859     8.416     0.000    |b| =       9.718
 CELL_TOP| Vector c [angstrom     0.000     0.000    30.744    |c| =      30.744
 CELL_TOP| Angle (b,c), alpha [degree]:                                   90.000
 CELL_TOP| Angle (a,c), beta  [degree]:                                   90.000
 CELL_TOP| Angle (a,b), gamma [degree]:                                  120.000
 CELL_TOP| Numerically orthorhombic:                                          NO
 RESTRAINT| Active restraint on COLLECTIVE section Nr.     1. K [a.u.]= 0.100000
 
 GENERATE|  Preliminary Number of Bonds generated:                             0
 GENERATE|  Achieved consistency in connectivity generation.

 CELL| Volume [angstrom^3]:                                             2519.385
 CELL| Vector a [angstrom]:       9.737     0.000     0.000    |a| =       9.737
 CELL| Vector b [angstrom]:      -4.859     8.416     0.000    |b| =       9.718
 CELL| Vector c [angstrom]:       0.000     0.000    30.744    |c| =      30.744
 CELL| Angle (b,c), alpha [degree]:                                       90.000
 CELL| Angle (a,c), beta  [degree]:                                       90.000
 CELL| Angle (a,b), gamma [degree]:                                      120.000
 CELL| Numerically orthorhombic:                                              NO

 CELL_REF| Volume [angstrom^3]:                                         2432.344
 CELL_REF| Vector a [angstrom     9.558     0.000     0.000    |a| =       9.558
 CELL_REF| Vector b [angstrom    -4.779     8.277     0.000    |b| =       9.558
 CELL_REF| Vector c [angstrom     0.000     0.000    30.744    |c| =      30.744
 CELL_REF| Angle (b,c), alpha [degree]:                                   90.000
 CELL_REF| Angle (a,c), beta  [degree]:                                   90.000
 CELL_REF| Angle (a,b), gamma [degree]:                                  120.000
 CELL_REF| Numerically orthorhombic:                                          NO

 *******************************************************************************
 *******************************************************************************
 **                                                                           **
 **     #####                         ##              ##                      **
 **    ##   ##            ##          ##              ##                      **
 **   ##     ##                       ##            ######                    **
 **   ##     ##  ##   ##  ##   #####  ##  ##   ####   ##    #####    #####    **
 **   ##     ##  ##   ##  ##  ##      ## ##   ##      ##   ##   ##  ##   ##   **
 **   ##  ## ##  ##   ##  ##  ##      ####     ###    ##   ######   ######    **
 **    ##  ###   ##   ##  ##  ##      ## ##      ##   ##   ##       ##        **
 **     #######   #####   ##   #####  ##  ##  ####    ##    #####   ##        **
 **           ##                                                    ##        **
 **                                                                           **
 **                                                ... make the atoms dance   **
 **                                                                           **
 **            Copyright (C) by CP2K developers group (2000 - 2018)           **
 **                                                                           **
 *******************************************************************************

 DFT| Spin restricted Kohn-Sham (RKS) calculation                            RKS
 DFT| Multiplicity                                                             1
 DFT| Number of spin states                                                    1
 DFT| Charge                                                                   0
 DFT| Self-interaction correction (SIC)                                       NO
 DFT| Cutoffs: density                                              1.000000E-10
 DFT|          gradient                                             1.000000E-10
 DFT|          tau                                                  1.000000E-10
 DFT|          cutoff_smoothing_range                               0.000000E+00
 DFT| XC density smoothing                                                  NONE
 DFT| XC derivatives                                                          PW
 FUNCTIONAL| ROUTINE=NEW
 FUNCTIONAL| PBE:
 FUNCTIONAL| J.P.Perdew, K.Burke, M.Ernzerhof, Phys. Rev. Letter, vol. 77, n 18,
 FUNCTIONAL|  pp. 3865-3868, (1996){spin unpolarized}                           
 vdW POTENTIAL|                                                   Pair Potential
 vdW POTENTIAL|          DFT-D3 (Version 3.1)
 vdW POTENTIAL|          Potential Form: S. Grimme et al, JCP 132: 154104 (2010)
 vdW POTENTIAL|          Zero Damping
 vdW POTENTIAL|          Cutoff Radius [Bohr]:                             18.90
 vdW POTENTIAL|          s6 Scaling Factor:                               1.0000
 vdW POTENTIAL|          sr6 Scaling Factor:                              1.2170
 vdW POTENTIAL|          s8 Scaling Factor:                               0.7220
 vdW POTENTIAL|          Cutoff for CN calculation:                   0.1000E-05

 QS| Method:                                                                 GPW
 QS| Density plane wave grid type                        NON-SPHERICAL FULLSPACE
 QS| Number of grid levels:                                                    5
 QS| Density cutoff [a.u.]:                                                600.0
 QS| Multi grid cutoff [a.u.]: 1) grid level                               600.0
 QS|                           2) grid level                               200.0
 QS|                           3) grid level                                66.7
 QS|                           4) grid level                                22.2
 QS|                           5) grid level                                 7.4
 QS| Grid level progression factor:                                          3.0
 QS| Relative density cutoff [a.u.]:                                        20.0
 QS| Consistent realspace mapping and integration 
 QS| Interaction thresholds: eps_pgf_orb:                                1.0E-07
 QS|                         eps_filter_matrix:                          0.0E+00
 QS|                         eps_core_charge:                            1.0E-16
 QS|                         eps_rho_gspace:                             1.0E-14
 QS|                         eps_rho_rspace:                             1.0E-14
 QS|                         eps_gvg_rspace:                             1.0E-07
 QS|                         eps_ppl:                                    1.0E-02
 QS|                         eps_ppnl:                                   1.0E-09


 ATOMIC KIND INFORMATION

  1. Atomic kind: Ga                                    Number of atoms:      72

     Orbital Basis Set                                    DZVP-MOLOPT-SR-GTH-q13

       Number of orbital shell sets:                                           1
       Number of orbital shells:                                               7
       Number of primitive Cartesian functions:                                6
       Number of Cartesian basis functions:                                   30
       Number of spherical basis functions:                                   25
       Norm type:                                                              2

       Normalised Cartesian orbitals:

                        Set   Shell   Orbital            Exponent    Coefficient

                          1       1    2s                7.066654       0.013136
                                                         3.428369      -0.094392
                                                         1.430064       0.265435
                                                         0.571611       0.056465
                                                         0.232197      -0.192187
                                                         0.076562      -0.044987

                          1       2    3s                7.066654      -0.098564
                                                         3.428369       0.010390
                                                         1.430064       0.351249
                                                         0.571611       0.182615
                                                         0.232197      -0.425358
                                                         0.076562       0.190349

                          1       3    3px               7.066654       0.002364
                                                         3.428369       0.019222
                                                         1.430064       0.250132
                                                         0.571611      -0.058486
                                                         0.232197      -0.159451
                                                         0.076562      -0.020696
                          1       3    3py               7.066654       0.002364
                                                         3.428369       0.019222
                                                         1.430064       0.250132
                                                         0.571611      -0.058486
                                                         0.232197      -0.159451
                                                         0.076562      -0.020696
                          1       3    3pz               7.066654       0.002364
                                                         3.428369       0.019222
                                                         1.430064       0.250132
                                                         0.571611      -0.058486
                                                         0.232197      -0.159451
                                                         0.076562      -0.020696

                          1       4    4px               7.066654       0.492448
                                                         3.428369      -0.614736
                                                         1.430064      -0.191654
                                                         0.571611       0.037801
                                                         0.232197       0.302315
                                                         0.076562      -0.071336
                          1       4    4py               7.066654       0.492448
                                                         3.428369      -0.614736
                                                         1.430064      -0.191654
                                                         0.571611       0.037801
                                                         0.232197       0.302315
                                                         0.076562      -0.071336
                          1       4    4pz               7.066654       0.492448
                                                         3.428369      -0.614736
                                                         1.430064      -0.191654
                                                         0.571611       0.037801
                                                         0.232197       0.302315
                                                         0.076562      -0.071336

                          1       5    4dx2              7.066654     -15.264855
                                                         3.428369      -5.345726
                                                         1.430064      -1.022732
                                                         0.571611      -0.123148
                                                         0.232197      -0.006983
                                                         0.076562      -0.000022
                          1       5    4dxy              7.066654     -26.439504
                                                         3.428369      -9.259069
                                                         1.430064      -1.771423
                                                         0.571611      -0.213299
                                                         0.232197      -0.012094
                                                         0.076562      -0.000037
                          1       5    4dxz              7.066654     -26.439504
                                                         3.428369      -9.259069
                                                         1.430064      -1.771423
                                                         0.571611      -0.213299
                                                         0.232197      -0.012094
                                                         0.076562      -0.000037
                          1       5    4dy2              7.066654     -15.264855
                                                         3.428369      -5.345726
                                                         1.430064      -1.022732
                                                         0.571611      -0.123148
                                                         0.232197      -0.006983
                                                         0.076562      -0.000022
                          1       5    4dyz              7.066654     -26.439504
                                                         3.428369      -9.259069
                                                         1.430064      -1.771423
                                                         0.571611      -0.213299
                                                         0.232197      -0.012094
                                                         0.076562      -0.000037
                          1       5    4dz2              7.066654     -15.264855
                                                         3.428369      -5.345726
                                                         1.430064      -1.022732
                                                         0.571611      -0.123148
                                                         0.232197      -0.006983
                                                         0.076562      -0.000022

                          1       6    5dx2              7.066654      -5.739265
                                                         3.428369      -2.129289
                                                         1.430064      -0.700423
                                                         0.571611       0.161606
                                                         0.232197       0.043513
                                                         0.076562       0.011205
                          1       6    5dxy              7.066654      -9.940698
                                                         3.428369      -3.688037
                                                         1.430064      -1.213168
                                                         0.571611       0.279909
                                                         0.232197       0.075368
                                                         0.076562       0.019407
                          1       6    5dxz              7.066654      -9.940698
                                                         3.428369      -3.688037
                                                         1.430064      -1.213168
                                                         0.571611       0.279909
                                                         0.232197       0.075368
                                                         0.076562       0.019407
                          1       6    5dy2              7.066654      -5.739265
                                                         3.428369      -2.129289
                                                         1.430064      -0.700423
                                                         0.571611       0.161606
                                                         0.232197       0.043513
                                                         0.076562       0.011205
                          1       6    5dyz              7.066654      -9.940698
                                                         3.428369      -3.688037
                                                         1.430064      -1.213168
                                                         0.571611       0.279909
                                                         0.232197       0.075368
                                                         0.076562       0.019407
                          1       6    5dz2              7.066654      -5.739265
                                                         3.428369      -2.129289
                                                         1.430064      -0.700423
                                                         0.571611       0.161606
                                                         0.232197       0.043513
                                                         0.076562       0.011205

                          1       7    5fx3              7.066654       0.705879
                                                         3.428369      -0.273976
                                                         1.430064       0.113667
                                                         0.571611       0.132480
                                                         0.232197       0.012437
                                                         0.076562       0.003241
                          1       7    5fx2y             7.066654       1.578393
                                                         3.428369      -0.612629
                                                         1.430064       0.254167
                                                         0.571611       0.296234
                                                         0.232197       0.027811
                                                         0.076562       0.007246
                          1       7    5fx2z             7.066654       1.578393
                                                         3.428369      -0.612629
                                                         1.430064       0.254167
                                                         0.571611       0.296234
                                                         0.232197       0.027811
                                                         0.076562       0.007246
                          1       7    5fxy2             7.066654       1.578393
                                                         3.428369      -0.612629
                                                         1.430064       0.254167
                                                         0.571611       0.296234
                                                         0.232197       0.027811
                                                         0.076562       0.007246
                          1       7    5fxyz             7.066654       2.733856
                                                         3.428369      -1.061105
                                                         1.430064       0.440230
                                                         0.571611       0.513092
                                                         0.232197       0.048170
                                                         0.076562       0.012551
                          1       7    5fxz2             7.066654       1.578393
                                                         3.428369      -0.612629
                                                         1.430064       0.254167
                                                         0.571611       0.296234
                                                         0.232197       0.027811
                                                         0.076562       0.007246
                          1       7    5fy3              7.066654       0.705879
                                                         3.428369      -0.273976
                                                         1.430064       0.113667
                                                         0.571611       0.132480
                                                         0.232197       0.012437
                                                         0.076562       0.003241
                          1       7    5fy2z             7.066654       1.578393
                                                         3.428369      -0.612629
                                                         1.430064       0.254167
                                                         0.571611       0.296234
                                                         0.232197       0.027811
                                                         0.076562       0.007246
                          1       7    5fyz2             7.066654       1.578393
                                                         3.428369      -0.612629
                                                         1.430064       0.254167
                                                         0.571611       0.296234
                                                         0.232197       0.027811
                                                         0.076562       0.007246
                          1       7    5fz3              7.066654       0.705879
                                                         3.428369      -0.273976
                                                         1.430064       0.113667
                                                         0.571611       0.132480
                                                         0.232197       0.012437
                                                         0.076562       0.003241

     GTH Potential information for                                   GTH-PBE-q13

       Description:                       Goedecker-Teter-Hutter pseudopotential
                                           Goedecker et al., PRB 54, 1703 (1996)
                                          Hartwigsen et al., PRB 58, 3641 (1998)
                                                      Krack, TCA 114, 145 (2005)

       Gaussian exponent of the core charge distribution:               2.082466
       Electronic configuration (s p d ...):                           2   1  10

       Parameters of the local part of the GTH pseudopotential:

                          rloc        C1          C2          C3          C4
                        0.490000

       Parameters of the non-local part of the GTH pseudopotential:

                   l      r(l)      h(i,j,l)

                   0    0.416777   10.475690   -4.921768    0.870706
                                   -4.921768    7.770178   -2.248152
                                    0.870706   -2.248152    1.784415
                   1    0.569627    1.777985    0.195860
                                    0.195860   -0.231744
                   2    0.238126  -16.248680

  2. Atomic kind: N                                     Number of atoms:      72

     Orbital Basis Set                                     DZVP-MOLOPT-SR-GTH-q5

       Number of orbital shell sets:                                           1
       Number of orbital shells:                                               5
       Number of primitive Cartesian functions:                                5
       Number of Cartesian basis functions:                                   14
       Number of spherical basis functions:                                   13
       Norm type:                                                              2

       Normalised Cartesian orbitals:

                        Set   Shell   Orbital            Exponent    Coefficient

                          1       1    2s                7.341988       0.360561
                                                         2.542637       0.139177
                                                         0.888575      -0.289383
                                                         0.333802      -0.182244
                                                         0.112012      -0.019197

                          1       2    3s                7.341988       0.282000
                                                         2.542637       0.177875
                                                         0.888575      -0.278381
                                                         0.333802       0.008577
                                                         0.112012       0.154176

                          1       3    3px               7.341988      -1.188719
                                                         2.542637      -0.973969
                                                         0.888575      -0.501079
                                                         0.333802      -0.144894
                                                         0.112012      -0.013986
                          1       3    3py               7.341988      -1.188719
                                                         2.542637      -0.973969
                                                         0.888575      -0.501079
                                                         0.333802      -0.144894
                                                         0.112012      -0.013986
                          1       3    3pz               7.341988      -1.188719
                                                         2.542637      -0.973969
                                                         0.888575      -0.501079
                                                         0.333802      -0.144894
                                                         0.112012      -0.013986

                          1       4    4px               7.341988      -0.094798
                                                         2.542637       0.050069
                                                         0.888575      -0.114797
                                                         0.333802       0.144793
                                                         0.112012       0.066710
                          1       4    4py               7.341988      -0.094798
                                                         2.542637       0.050069
                                                         0.888575      -0.114797
                                                         0.333802       0.144793
                                                         0.112012       0.066710
                          1       4    4pz               7.341988      -0.094798
                                                         2.542637       0.050069
                                                         0.888575      -0.114797
                                                         0.333802       0.144793
                                                         0.112012       0.066710

                          1       5    4dx2              7.341988       1.354688
                                                         2.542637       0.690378
                                                         0.888575       0.855359
                                                         0.333802       0.091746
                                                         0.112012       0.001253
                          1       5    4dxy              7.341988       2.346389
                                                         2.542637       1.195770
                                                         0.888575       1.481524
                                                         0.333802       0.158910
                                                         0.112012       0.002169
                          1       5    4dxz              7.341988       2.346389
                                                         2.542637       1.195770
                                                         0.888575       1.481524
                                                         0.333802       0.158910
                                                         0.112012       0.002169
                          1       5    4dy2              7.341988       1.354688
                                                         2.542637       0.690378
                                                         0.888575       0.855359
                                                         0.333802       0.091746
                                                         0.112012       0.001253
                          1       5    4dyz              7.341988       2.346389
                                                         2.542637       1.195770
                                                         0.888575       1.481524
                                                         0.333802       0.158910
                                                         0.112012       0.002169
                          1       5    4dz2              7.341988       1.354688
                                                         2.542637       0.690378
                                                         0.888575       0.855359
                                                         0.333802       0.091746
                                                         0.112012       0.001253

     GTH Potential information for                                    GTH-PBE-q5

       Description:                       Goedecker-Teter-Hutter pseudopotential
                                           Goedecker et al., PRB 54, 1703 (1996)
                                          Hartwigsen et al., PRB 58, 3641 (1998)
                                                      Krack, TCA 114, 145 (2005)

       Gaussian exponent of the core charge distribution:               6.208322
       Electronic configuration (s p d ...):                               2   3

       Parameters of the local part of the GTH pseudopotential:

                          rloc        C1          C2          C3          C4
                        0.283791  -12.415226    1.868096

       Parameters of the non-local part of the GTH pseudopotential:

                   l      r(l)      h(i,j,l)

                   0    0.255405   13.630263
                   1    0.245495

  3. Atomic kind: O                                     Number of atoms:       2

     Orbital Basis Set                                     DZVP-MOLOPT-SR-GTH-q6

       Number of orbital shell sets:                                           1
       Number of orbital shells:                                               5
       Number of primitive Cartesian functions:                                5
       Number of Cartesian basis functions:                                   14
       Number of spherical basis functions:                                   13
       Norm type:                                                              2

       Normalised Cartesian orbitals:

                        Set   Shell   Orbital            Exponent    Coefficient

                          1       1    2s               10.389228       0.396646
                                                         3.849621       0.208811
                                                         1.388401      -0.301641
                                                         0.496955      -0.274061
                                                         0.162492      -0.033677

                          1       2    3s               10.389228       0.303673
                                                         3.849621       0.240943
                                                         1.388401      -0.313066
                                                         0.496955      -0.043055
                                                         0.162492       0.213991

                          1       3    3px              10.389228      -1.530415
                                                         3.849621      -1.371928
                                                         1.388401      -0.761951
                                                         0.496955      -0.253695
                                                         0.162492      -0.035541
                          1       3    3py              10.389228      -1.530415
                                                         3.849621      -1.371928
                                                         1.388401      -0.761951
                                                         0.496955      -0.253695
                                                         0.162492      -0.035541
                          1       3    3pz              10.389228      -1.530415
                                                         3.849621      -1.371928
                                                         1.388401      -0.761951
                                                         0.496955      -0.253695
                                                         0.162492      -0.035541

                          1       4    4px              10.389228      -0.565392
                                                         3.849621      -0.038231
                                                         1.388401      -0.382373
                                                         0.496955       0.179070
                                                         0.162492       0.122714
                          1       4    4py              10.389228      -0.565392
                                                         3.849621      -0.038231
                                                         1.388401      -0.382373
                                                         0.496955       0.179070
                                                         0.162492       0.122714
                          1       4    4pz              10.389228      -0.565392
                                                         3.849621      -0.038231
                                                         1.388401      -0.382373
                                                         0.496955       0.179070
                                                         0.162492       0.122714

                          1       5    4dx2             10.389228       1.867377
                                                         3.849621       0.670994
                                                         1.388401       1.353441
                                                         0.496955       0.273538
                                                         0.162492       0.006620
                          1       5    4dxy             10.389228       3.234392
                                                         3.849621       1.162195
                                                         1.388401       2.344229
                                                         0.496955       0.473781
                                                         0.162492       0.011466
                          1       5    4dxz             10.389228       3.234392
                                                         3.849621       1.162195
                                                         1.388401       2.344229
                                                         0.496955       0.473781
                                                         0.162492       0.011466
                          1       5    4dy2             10.389228       1.867377
                                                         3.849621       0.670994
                                                         1.388401       1.353441
                                                         0.496955       0.273538
                                                         0.162492       0.006620
                          1       5    4dyz             10.389228       3.234392
                                                         3.849621       1.162195
                                                         1.388401       2.344229
                                                         0.496955       0.473781
                                                         0.162492       0.011466
                          1       5    4dz2             10.389228       1.867377
                                                         3.849621       0.670994
                                                         1.388401       1.353441
                                                         0.496955       0.273538
                                                         0.162492       0.006620

     GTH Potential information for                                    GTH-PBE-q6

       Description:                       Goedecker-Teter-Hutter pseudopotential
                                           Goedecker et al., PRB 54, 1703 (1996)
                                          Hartwigsen et al., PRB 58, 3641 (1998)
                                                      Krack, TCA 114, 145 (2005)

       Gaussian exponent of the core charge distribution:               8.360253
       Electronic configuration (s p d ...):                               2   4

       Parameters of the local part of the GTH pseudopotential:

                          rloc        C1          C2          C3          C4
                        0.244554  -16.667215    2.487311

       Parameters of the non-local part of the GTH pseudopotential:

                   l      r(l)      h(i,j,l)

                   0    0.220956   18.337458
                   1    0.211332

  4. Atomic kind: H                                     Number of atoms:       8

     Orbital Basis Set                                     DZVP-MOLOPT-SR-GTH-q1

       Number of orbital shell sets:                                           1
       Number of orbital shells:                                               3
       Number of primitive Cartesian functions:                                5
       Number of Cartesian basis functions:                                    5
       Number of spherical basis functions:                                    5
       Norm type:                                                              2

       Normalised Cartesian orbitals:

                        Set   Shell   Orbital            Exponent    Coefficient

                          1       1    2s               10.068468      -0.133023
                                                         2.680223      -0.177618
                                                         0.791502      -0.258419
                                                         0.239116      -0.107525
                                                         0.082193      -0.014019

                          1       2    3s               10.068468       0.344673
                                                         2.680223       1.819821
                                                         0.791502      -0.999069
                                                         0.239116       0.017430
                                                         0.082193       0.082660

                          1       3    3px              10.068468       0.155326
                                                         2.680223       0.367157
                                                         0.791502       0.311480
                                                         0.239116       0.080105
                                                         0.082193       0.033440
                          1       3    3py              10.068468       0.155326
                                                         2.680223       0.367157
                                                         0.791502       0.311480
                                                         0.239116       0.080105
                                                         0.082193       0.033440
                          1       3    3pz              10.068468       0.155326
                                                         2.680223       0.367157
                                                         0.791502       0.311480
                                                         0.239116       0.080105
                                                         0.082193       0.033440

     GTH Potential information for                                    GTH-PBE-q1

       Description:                       Goedecker-Teter-Hutter pseudopotential
                                           Goedecker et al., PRB 54, 1703 (1996)
                                          Hartwigsen et al., PRB 58, 3641 (1998)
                                                      Krack, TCA 114, 145 (2005)

       Gaussian exponent of the core charge distribution:              12.500000
       Electronic configuration (s p d ...):                                   1

       Parameters of the local part of the GTH pseudopotential:

                          rloc        C1          C2          C3          C4
                        0.200000   -4.178900    0.724463

  5. Atomic kind: C                                     Number of atoms:       2

     Orbital Basis Set                                     DZVP-MOLOPT-SR-GTH-q4

       Number of orbital shell sets:                                           1
       Number of orbital shells:                                               5
       Number of primitive Cartesian functions:                                5
       Number of Cartesian basis functions:                                   14
       Number of spherical basis functions:                                   13
       Norm type:                                                              2

       Normalised Cartesian orbitals:

                        Set   Shell   Orbital            Exponent    Coefficient

                          1       1    2s                5.605331       0.322515
                                                         2.113016       0.213043
                                                         0.769911      -0.209686
                                                         0.348157      -0.219794
                                                         0.128212      -0.022789

                          1       2    3s                5.605331       0.552234
                                                         2.113016       0.082072
                                                         0.769911       0.007843
                                                         0.348157       0.136893
                                                         0.128212       0.074283

                          1       3    3px               5.605331      -0.703879
                                                         2.113016      -0.642521
                                                         0.769911      -0.374851
                                                         0.348157      -0.139743
                                                         0.128212      -0.027849
                          1       3    3py               5.605331      -0.703879
                                                         2.113016      -0.642521
                                                         0.769911      -0.374851
                                                         0.348157      -0.139743
                                                         0.128212      -0.027849
                          1       3    3pz               5.605331      -0.703879
                                                         2.113016      -0.642521
                                                         0.769911      -0.374851
                                                         0.348157      -0.139743
                                                         0.128212      -0.027849

                          1       4    4px               5.605331      -0.480376
                                                         2.113016      -0.552894
                                                         0.769911      -0.316145
                                                         0.348157       0.210505
                                                         0.128212       0.076095
                          1       4    4py               5.605331      -0.480376
                                                         2.113016      -0.552894
                                                         0.769911      -0.316145
                                                         0.348157       0.210505
                                                         0.128212       0.076095
                          1       4    4pz               5.605331      -0.480376
                                                         2.113016      -0.552894
                                                         0.769911      -0.316145
                                                         0.348157       0.210505
                                                         0.128212       0.076095

                          1       5    4dx2              5.605331       0.640026
                                                         2.113016       0.274300
                                                         0.769911       0.446711
                                                         0.348157       0.028674
                                                         0.128212       0.029790
                          1       5    4dxy              5.605331       1.108557
                                                         2.113016       0.475102
                                                         0.769911       0.773726
                                                         0.348157       0.049666
                                                         0.128212       0.051599
                          1       5    4dxz              5.605331       1.108557
                                                         2.113016       0.475102
                                                         0.769911       0.773726
                                                         0.348157       0.049666
                                                         0.128212       0.051599
                          1       5    4dy2              5.605331       0.640026
                                                         2.113016       0.274300
                                                         0.769911       0.446711
                                                         0.348157       0.028674
                                                         0.128212       0.029790
                          1       5    4dyz              5.605331       1.108557
                                                         2.113016       0.475102
                                                         0.769911       0.773726
                                                         0.348157       0.049666
                                                         0.128212       0.051599
                          1       5    4dz2              5.605331       0.640026
                                                         2.113016       0.274300
                                                         0.769911       0.446711
                                                         0.348157       0.028674
                                                         0.128212       0.029790

     GTH Potential information for                                    GTH-PBE-q4

       Description:                       Goedecker-Teter-Hutter pseudopotential
                                           Goedecker et al., PRB 54, 1703 (1996)
                                          Hartwigsen et al., PRB 58, 3641 (1998)
                                                      Krack, TCA 114, 145 (2005)

       Gaussian exponent of the core charge distribution:               4.364419
       Electronic configuration (s p d ...):                               2   2

       Parameters of the local part of the GTH pseudopotential:

                          rloc        C1          C2          C3          C4
                        0.338471   -8.803674    1.339211

       Parameters of the non-local part of the GTH pseudopotential:

                   l      r(l)      h(i,j,l)

                   0    0.302576    9.622487
                   1    0.291507


 MOLECULE KIND INFORMATION


 All atoms are their own molecule, skipping detailed information


 TOTAL NUMBERS AND MAXIMUM NUMBERS

  Total number of            - Atomic kinds:                                   5
                             - Atoms:                                        156
                             - Shell sets:                                   156
                             - Shells:                                       908
                             - Primitive Cartesian functions:                852
                             - Cartesian basis functions:                   3264
                             - Spherical basis functions:                   2828

  Maximum angular momentum of- Orbital basis functions:                        3
                             - Local part of the GTH pseudopotential:          2
                             - Non-local part of the GTH pseudopotential:      4


 MODULE QUICKSTEP:  ATOMIC COORDINATES IN angstrom

  Atom  Kind  Element       X           Y           Z          Z(eff)       Mass

       1     1 Ga  31   -0.003198   -0.015705   -0.532718     13.00      69.7230
       2     2 N    7   -0.000296    1.858587    0.606174      5.00      14.0067
       3     1 Ga  31   -0.000350    1.827780    2.637976     13.00      69.7230
       4     2 N    7   -0.003442   -0.015639    3.269373      5.00      14.0067
       5     1 Ga  31   -0.002210   -0.015049    5.260145     13.00      69.7230
       6     2 N    7    0.000799    1.859547    5.848187      5.00      14.0067
       7     1 Ga  31    0.002159    1.858176    7.848135     13.00      69.7230
       8     2 N    7    0.000772   -0.015106    8.450583      5.00      14.0067
       9     1 Ga  31    0.003863   -0.015055   10.449825     13.00      69.7230
      10     2 N    7    0.004004    1.859961   11.045000      5.00      14.0067
      11     1 Ga  31    0.008522    1.863643   13.037354     13.00      69.7230
      12     2 N    7    0.015857   -0.010706   13.626496      5.00      14.0067
      13     1 Ga  31    0.027129   -0.003200   15.617018     13.00      69.7230
      14     2 N    7    0.009824    1.857116   16.229907      5.00      14.0067
      15     1 Ga  31    0.042676    1.842647   18.290872     13.00      69.7230
      16     2 N    7    0.053536   -0.033530   18.705824      5.00      14.0067
      17     1 Ga  31   -1.623276    2.790246    0.324316     13.00      69.7230
      18     2 N    7   -1.624635    4.659853    0.607171      5.00      14.0067
      19     1 Ga  31   -1.595790    4.675723    2.636880     13.00      69.7230
      20     2 N    7   -1.622845    2.789884    3.228158      5.00      14.0067
      21     1 Ga  31   -1.621726    2.790609    5.239760     13.00      69.7230
      22     2 N    7   -1.621300    4.660932    5.846511      5.00      14.0067
      23     1 Ga  31   -1.619175    4.661308    7.845174     13.00      69.7230
      24     2 N    7   -1.620391    2.791775    8.451159      5.00      14.0067
      25     1 Ga  31   -1.619008    2.795063   10.447207     13.00      69.7230
      26     2 N    7   -1.617367    4.666693   11.054988      5.00      14.0067
      27     1 Ga  31   -1.617817    4.670576   13.051874     13.00      69.7230
      28     2 N    7   -1.610916    2.800939   13.653390      5.00      14.0067
      29     1 Ga  31   -1.593256    2.814117   15.654512     13.00      69.7230
      30     2 N    7   -1.586480    4.680183   16.309526      5.00      14.0067
      31     1 Ga  31   -1.515100    4.683017   18.382961     13.00      69.7230
      32     2 N    7   -1.553867    2.792115   18.767261      5.00      14.0067
      33     1 Ga  31   -3.243533    5.595175    0.324251     13.00      69.7230
      34     2 N    7   -3.237326    7.466101    0.606373      5.00      14.0067
      35     1 Ga  31   -3.264457    7.480860    2.638070     13.00      69.7230
      36     2 N    7   -3.242690    5.595410    3.228481      5.00      14.0067
      37     1 Ga  31   -3.241894    5.596021    5.239905     13.00      69.7230
      38     2 N    7   -3.235868    7.466292    5.846936      5.00      14.0067
      39     1 Ga  31   -3.235914    7.467035    7.846056     13.00      69.7230
      40     2 N    7   -3.239911    5.596138    8.449403      5.00      14.0067
      41     1 Ga  31   -3.238603    5.597078   10.444628     13.00      69.7230
      42     2 N    7   -3.230761    7.465700   11.054671      5.00      14.0067
      43     1 Ga  31   -3.222177    7.462797   13.052229     13.00      69.7230
      44     2 N    7   -3.232325    5.599195   13.695617      5.00      14.0067
      45     1 Ga  31   -3.220939    5.592490   15.732076     13.00      69.7230
      46     2 N    7   -3.216393    7.482947   16.260750      5.00      14.0067
      47     1 Ga  31   -3.179914    7.451394   18.321579     13.00      69.7230
      48     2 N    7   -3.161760    5.588654   18.852642      5.00      14.0067
      49     1 Ga  31    3.242959   -0.015403    0.324577     13.00      69.7230
      50     2 N    7    3.240993    1.854563    0.606521      5.00      14.0067
      51     1 Ga  31    3.269453    1.870396    2.637160     13.00      69.7230
      52     2 N    7    3.242493   -0.015510    3.228126      5.00      14.0067
      53     1 Ga  31    3.243963   -0.014688    5.239768     13.00      69.7230
      54     2 N    7    3.244562    1.855474    5.847456      5.00      14.0067
      55     1 Ga  31    3.246955    1.856223    7.846908     13.00      69.7230
      56     2 N    7    3.244927   -0.014803    8.449700      5.00      14.0067
      57     1 Ga  31    3.247838   -0.013977   10.445072     13.00      69.7230
      58     2 N    7    3.251225    1.856859   11.050655      5.00      14.0067
      59     1 Ga  31    3.258106    1.854157   13.047617     13.00      69.7230
      60     2 N    7    3.256578   -0.016805   13.660528      5.00      14.0067
      61     1 Ga  31    3.276352   -0.016070   15.667057     13.00      69.7230
      62     2 N    7    3.281740    1.864157   16.220364      5.00      14.0067
      63     1 Ga  31    3.313469    1.859272   18.244206     13.00      69.7230
      64     2 N    7    3.314989   -0.029241   18.696347      5.00      14.0067
      65     1 Ga  31    1.622308    2.790945    0.324213     13.00      69.7230
      66     2 N    7    1.629081    4.660496    0.607440      5.00      14.0067
      67     1 Ga  31    1.601182    4.675843    2.637184     13.00      69.7230
      68     2 N    7    1.622577    2.790045    3.228891      5.00      14.0067
      69     1 Ga  31    1.624163    2.790929    5.240742     13.00      69.7230
      70     2 N    7    1.629701    4.661168    5.848376      5.00      14.0067
      71     1 Ga  31    1.630004    4.661395    7.848163     13.00      69.7230
      72     2 N    7    1.625987    2.790253    8.449519      5.00      14.0067
      73     1 Ga  31    1.628982    2.791294   10.444958     13.00      69.7230
      74     2 N    7    1.627587    4.662282   11.047845      5.00      14.0067
      75     1 Ga  31    1.628862    4.662653   13.042223     13.00      69.7230
      76     2 N    7    1.633138    2.787729   13.645965      5.00      14.0067
      77     1 Ga  31    1.641745    2.775206   15.641299     13.00      69.7230
      78     2 N    7    1.634158    4.664560   16.185487      5.00      14.0067
      79     1 Ga  31    1.677882    4.640323   18.186283     13.00      69.7230
      80     2 N    7    1.682818    2.775581   18.645400      5.00      14.0067
      81     1 Ga  31    0.003096    5.595761   -0.548284     13.00      69.7230
      82     2 N    7    0.005933    7.470560    0.607137      5.00      14.0067
      83     1 Ga  31    0.006037    7.438367    2.636973     13.00      69.7230
      84     2 N    7    0.002991    5.595191    3.269479      5.00      14.0067
      85     1 Ga  31    0.004651    5.596185    5.259618     13.00      69.7230
      86     2 N    7    0.007441    7.470695    5.847666      5.00      14.0067
      87     1 Ga  31    0.008802    7.469291    7.847088     13.00      69.7230
      88     2 N    7    0.004904    5.595750    8.447173      5.00      14.0067
      89     1 Ga  31    0.006261    5.597151   10.444098     13.00      69.7230
      90     2 N    7    0.011763    7.469201   11.045964      5.00      14.0067
      91     1 Ga  31    0.014423    7.471449   13.038667     13.00      69.7230
      92     2 N    7    0.006783    5.601670   13.647910      5.00      14.0067
      93     1 Ga  31    0.002254    5.602778   15.643755     13.00      69.7230
      94     2 N    7    0.034785    7.460113   16.280728      5.00      14.0067
      95     1 Ga  31    0.082733    7.427018   18.363513     13.00      69.7230
      96     2 N    7    0.139310    5.575984   18.905080      5.00      14.0067
      97     1 Ga  31    6.486862   -0.014966    0.323806     13.00      69.7230
      98     2 N    7    6.493760    1.855017    0.606159      5.00      14.0067
      99     1 Ga  31    6.466191    1.870212    2.636938     13.00      69.7230
     100     2 N    7    6.488304   -0.015461    3.228699      5.00      14.0067
     101     1 Ga  31    6.489727   -0.014708    5.240587     13.00      69.7230
     102     2 N    7    6.494507    1.855825    5.847887      5.00      14.0067
     103     1 Ga  31    6.494543    1.856952    7.847468     13.00      69.7230
     104     2 N    7    6.490925   -0.013681    8.451199      5.00      14.0067
     105     1 Ga  31    6.494283   -0.011112   10.447499     13.00      69.7230
     106     2 N    7    6.496836    1.860912   11.052972      5.00      14.0067
     107     1 Ga  31    6.499864    1.866170   13.049714     13.00      69.7230
     108     2 N    7    6.489932   -0.007506   13.641649      5.00      14.0067
     109     1 Ga  31    6.503123    0.002502   15.644452     13.00      69.7230
     110     2 N    7    6.523599    1.878741   16.225059      5.00      14.0067
     111     1 Ga  31    6.574656    1.879389   18.265646     13.00      69.7230
     112     2 N    7    6.564070   -0.018942   18.649670      5.00      14.0067
     113     1 Ga  31    4.867546    2.791639   -0.542174     13.00      69.7230
     114     2 N    7    4.870953    4.664899    0.607045      5.00      14.0067
     115     1 Ga  31    4.870790    4.633432    2.637401     13.00      69.7230
     116     2 N    7    4.868270    2.789948    3.269090      5.00      14.0067
     117     1 Ga  31    4.869534    2.791099    5.259358     13.00      69.7230
     118     2 N    7    4.872119    4.665229    5.848041      5.00      14.0067
     119     1 Ga  31    4.872852    4.663899    7.847681     13.00      69.7230
     120     2 N    7    4.870892    2.791371    8.450582      5.00      14.0067
     121     1 Ga  31    4.873850    2.795110   10.449944     13.00      69.7230
     122     2 N    7    4.879779    4.666064   11.058251      5.00      14.0067
     123     1 Ga  31    4.883899    4.669625   13.060739     13.00      69.7230
     124     2 N    7    4.874871    2.794968   13.652062      5.00      14.0067
     125     1 Ga  31    4.886834    2.799227   15.663481     13.00      69.7230
     126     2 N    7    4.867380    4.670737   16.176085      5.00      14.0067
     127     1 Ga  31    4.928320    4.662168   19.094571     13.00      69.7230
     128     2 N    7    4.937464    2.778554   18.742173      5.00      14.0067
     129     1 Ga  31    3.248649    5.594679    0.323777     13.00      69.7230
     130     2 N    7    3.247936    7.465510    0.605821      5.00      14.0067
     131     1 Ga  31    3.275681    7.480725    2.637583     13.00      69.7230
     132     2 N    7    3.248565    5.595651    3.228868      5.00      14.0067
     133     1 Ga  31    3.249930    5.596381    5.240441     13.00      69.7230
     134     2 N    7    3.250455    7.466158    5.849286      5.00      14.0067
     135     1 Ga  31    3.253163    7.466707    7.849554     13.00      69.7230
     136     2 N    7    3.251403    5.595965    8.454865      5.00      14.0067
     137     1 Ga  31    3.255034    5.597447   10.453618     13.00      69.7230
     138     2 N    7    3.256553    7.471310   11.051565      5.00      14.0067
     139     1 Ga  31    3.258226    7.471884   13.048636     13.00      69.7230
     140     2 N    7    3.248965    5.595392   13.632880      5.00      14.0067
     141     1 Ga  31    3.261543    5.606829   15.639948     13.00      69.7230
     142     2 N    7    3.280152    7.491356   16.156775      5.00      14.0067
     143     1 Ga  31    3.329729    7.494193   18.171557     13.00      69.7230
     144     2 N    7    3.356607    5.574026   18.472585      5.00      14.0067
     145     3 O    8    1.577373    5.058296   21.238993      6.00      15.9994
     146     4 H    1    0.989353    5.394807   20.482621      1.00       1.0079
     147     5 C    6    0.846204    3.992323   21.879629      4.00      12.0107
     148     4 H    1    0.118770    3.544187   21.186736      1.00       1.0079
     149     4 H    1    1.550733    3.209309   22.187417      1.00       1.0079
     150     4 H    1    0.318697    4.373928   22.766353      1.00       1.0079
     151     3 O    8    4.230228    4.715273   21.072632      6.00      15.9994
     152     4 H    1    3.221957    4.866838   21.075915      1.00       1.0079
     153     5 C    6    4.551102    3.598188   21.942041      4.00      12.0107
     154     4 H    1    4.118366    2.663288   21.560051      1.00       1.0079
     155     4 H    1    5.642835    3.504189   21.964873      1.00       1.0079
     156     4 H    1    4.179123    3.811639   22.952057      1.00       1.0079




 SCF PARAMETERS         Density guess:                                    ATOMIC
                        --------------------------------------------------------
                        max_scf:                                             100
                        max_scf_history:                                       0
                        max_diis:                                              4
                        --------------------------------------------------------
                        eps_scf:                                        5.00E-06
                        eps_scf_history:                                0.00E+00
                        eps_diis:                                       1.00E-01
                        eps_eigval:                                     1.00E-05
                        --------------------------------------------------------
                        level_shift [a.u.]:                                 0.00
                        --------------------------------------------------------
                        Outer loop SCF in use 
                        No variables optimised in outer loop
                        eps_scf                                         5.00E-06
                        max_scf                                                4
                        No outer loop optimization
                        step_size                                       5.00E-01

 PW_GRID| Information for grid number                                          1
 PW_GRID| Grid distributed over                                    80 processors
 PW_GRID| Real space group dimensions                                    80    1
 PW_GRID| the grid is blocked:                                                NO
 PW_GRID| Cutoff [a.u.]                                                    600.0
 PW_GRID| spherical cutoff:                                                   NO
 PW_GRID|   Bounds   1           -100      99                Points:         200
 PW_GRID|   Bounds   2           -100      99                Points:         200
 PW_GRID|   Bounds   3           -324     323                Points:         648
 PW_GRID| Volume element (a.u.^3)  0.6333E-03     Volume (a.u.^3)     16414.2734
 PW_GRID| Grid span                                                    FULLSPACE
 PW_GRID|   Distribution                         Average         Max         Min
 PW_GRID|   G-Vectors                           324000.0      324000      324000
 PW_GRID|   G-Rays                                1620.0        1620        1620
 PW_GRID|   Real Space Points                   324000.0      388800      259200

 PW_GRID| Information for grid number                                          2
 PW_GRID| Grid distributed over                                    80 processors
 PW_GRID| Real space group dimensions                                    80    1
 PW_GRID| the grid is blocked:                                                NO
 PW_GRID| Cutoff [a.u.]                                                    200.0
 PW_GRID| spherical cutoff:                                                   NO
 PW_GRID|   Bounds   1            -60      59                Points:         120
 PW_GRID|   Bounds   2            -60      59                Points:         120
 PW_GRID|   Bounds   3           -187     187                Points:         375
 PW_GRID| Volume element (a.u.^3)  0.3040E-02     Volume (a.u.^3)     16414.2734
 PW_GRID| Grid span                                                    FULLSPACE
 PW_GRID|   Distribution                         Average         Max         Min
 PW_GRID|   G-Vectors                            67500.0       68520       66240
 PW_GRID|   G-Rays                                 562.5         571         552
 PW_GRID|   Real Space Points                    67500.0       90000       45000

 PW_GRID| Information for grid number                                          3
 PW_GRID| Grid distributed over                                    80 processors
 PW_GRID| Real space group dimensions                                     8   10
 PW_GRID| the grid is blocked:                                                NO
 PW_GRID| Cutoff [a.u.]                                                     66.7
 PW_GRID| spherical cutoff:                                                   NO
 PW_GRID|   Bounds   1            -36      35                Points:          72
 PW_GRID|   Bounds   2            -36      35                Points:          72
 PW_GRID|   Bounds   3           -108     107                Points:         216
 PW_GRID| Volume element (a.u.^3)  0.1466E-01     Volume (a.u.^3)     16414.2734
 PW_GRID| Grid span                                                    FULLSPACE
 PW_GRID|   Distribution                         Average         Max         Min
 PW_GRID|   G-Vectors                            13996.8       14976       12816
 PW_GRID|   G-Rays                                 194.4         208         178
 PW_GRID|   Real Space Points                    13996.8       15552       13608

 PW_GRID| Information for grid number                                          4
 PW_GRID| Grid distributed over                                    80 processors
 PW_GRID| Real space group dimensions                                     8   10
 PW_GRID| the grid is blocked:                                                NO
 PW_GRID| Cutoff [a.u.]                                                     22.2
 PW_GRID| spherical cutoff:                                                   NO
 PW_GRID|   Bounds   1            -20      19                Points:          40
 PW_GRID|   Bounds   2            -20      19                Points:          40
 PW_GRID|   Bounds   3            -62      62                Points:         125
 PW_GRID| Volume element (a.u.^3)  0.8207E-01     Volume (a.u.^3)     16414.2734
 PW_GRID| Grid span                                                    FULLSPACE
 PW_GRID|   Distribution                         Average         Max         Min
 PW_GRID|   G-Vectors                             2500.0        2960        2040
 PW_GRID|   G-Rays                                  62.5          74          51
 PW_GRID|   Real Space Points                     2500.0        2500        2500

 PW_GRID| Information for grid number                                          5
 PW_GRID| Grid distributed over                                    80 processors
 PW_GRID| Real space group dimensions                                     8   10
 PW_GRID| the grid is blocked:                                                NO
 PW_GRID| Cutoff [a.u.]                                                      7.4
 PW_GRID| spherical cutoff:                                                   NO
 PW_GRID|   Bounds   1            -12      11                Points:          24
 PW_GRID|   Bounds   2            -12      11                Points:          24
 PW_GRID|   Bounds   3            -36      35                Points:          72
 PW_GRID| Volume element (a.u.^3)  0.3958         Volume (a.u.^3)     16414.2734
 PW_GRID| Grid span                                                    FULLSPACE
 PW_GRID|   Distribution                         Average         Max         Min
 PW_GRID|   G-Vectors                              518.4         648         240
 PW_GRID|   G-Rays                                  21.6          27          10
 PW_GRID|   Real Space Points                      518.4         648         432

 POISSON| Solver                                                        PERIODIC
 POISSON| Periodicity                                                        XYZ

 RS_GRID| Information for grid number                                          1
 RS_GRID|   Bounds   1           -100      99                Points:         200
 RS_GRID|   Bounds   2           -100      99                Points:         200
 RS_GRID|   Bounds   3           -324     323                Points:         648
 RS_GRID| Real space distribution over                                 80 groups
 RS_GRID| Real space distribution along direction                              3
 RS_GRID| Border size                                                         73
 RS_GRID|   Distribution                         Average         Max         Min
 RS_GRID|   Planes                                 154.1         155         154

 RS_GRID| Information for grid number                                          2
 RS_GRID|   Bounds   1            -60      59                Points:         120
 RS_GRID|   Bounds   2            -60      59                Points:         120
 RS_GRID|   Bounds   3           -187     187                Points:         375
 RS_GRID| Real space distribution over                                 80 groups
 RS_GRID| Real space distribution along direction                              3
 RS_GRID| Border size                                                         45
 RS_GRID|   Distribution                         Average         Max         Min
 RS_GRID|   Planes                                  94.7          95          94

 RS_GRID| Information for grid number                                          3
 RS_GRID|   Bounds   1            -36      35                Points:          72
 RS_GRID|   Bounds   2            -36      35                Points:          72
[...]
 flops   706 x    54 x   120          35464469760     100.0%      0.0%      0.0%
 flops   708 x    54 x   120          35564935680     100.0%      0.0%      0.0%
 flops   711 x    54 x   120          35715634560     100.0%      0.0%      0.0%
 flops    25 x     5 x    32          39637496000     100.0%      0.0%      0.0%
 flops    13 x     5 x    32          51618494720     100.0%      0.0%      0.0%
 flops   160 x    54 x   120          52590643200     100.0%      0.0%      0.0%
 flops   703 x    54 x   139          61357676904     100.0%      0.0%      0.0%
 flops   706 x    54 x   139          61619516208     100.0%      0.0%      0.0%
 flops   708 x    54 x   139          61794075744     100.0%      0.0%      0.0%
 flops   703 x    54 x   140          61799099040     100.0%      0.0%      0.0%
 flops   711 x    54 x   139          62055915048     100.0%      0.0%      0.0%
 flops   706 x    54 x   140          62062822080     100.0%      0.0%      0.0%
 flops   708 x    54 x   140          62238637440     100.0%      0.0%      0.0%
 flops   711 x    54 x   140          62502360480     100.0%      0.0%      0.0%
 flops   182 x    54 x    32          68860786176     100.0%      0.0%      0.0%
 flops   182 x    32 x    54          68860786176     100.0%      0.0%      0.0%
 flops    13 x    13 x    54          77872011984     100.0%      0.0%      0.0%
 flops   160 x    54 x   139          91376242560     100.0%      0.0%      0.0%
 flops   160 x    54 x   140          92033625600     100.0%      0.0%      0.0%
 flops     5 x    25 x    32         118853360000     100.0%      0.0%      0.0%
 flops    13 x    22 x    13         129416233232     100.0%      0.0%      0.0%
 flops     5 x    32 x    13         153328281600     100.0%      0.0%      0.0%
 flops    13 x    32 x     5         153328281600     100.0%      0.0%      0.0%
 flops    13 x    25 x    54         159401665800     100.0%      0.0%      0.0%
 flops    25 x    13 x    54         170872451100     100.0%      0.0%      0.0%
 flops   160 x    32 x    54         181610864640     100.0%      0.0%      0.0%
 flops   160 x    54 x    32         181610864640     100.0%      0.0%      0.0%
 flops   182 x    32 x   120         224516597760     100.0%      0.0%      0.0%
 flops   703 x    32 x    54         261783522432     100.0%      0.0%      0.0%
 flops   703 x    54 x    32         261783522432     100.0%      0.0%      0.0%
 flops   706 x    32 x    54         262900664064     100.0%      0.0%      0.0%
 flops   706 x    54 x    32         262900664064     100.0%      0.0%      0.0%
 flops   708 x    32 x    54         263645425152     100.0%      0.0%      0.0%
 flops   708 x    54 x    32         263645425152     100.0%      0.0%      0.0%
 flops   711 x    54 x    32         264762566784     100.0%      0.0%      0.0%
 flops   711 x    32 x    54         264762566784     100.0%      0.0%      0.0%
 flops    13 x    22 x    25         278917581800     100.0%      0.0%      0.0%
 flops    25 x    22 x    13         278917581800     100.0%      0.0%      0.0%
 flops    25 x    25 x    54         321253290000     100.0%      0.0%      0.0%
 flops     5 x    32 x    25         345806720000     100.0%      0.0%      0.0%
 flops    25 x    32 x     5         345806720000     100.0%      0.0%      0.0%
 flops   182 x    32 x   139         390097588608     100.0%      0.0%      0.0%
 flops   182 x    32 x   140         392904046080     100.0%      0.0%      0.0%
 flops   703 x    32 x   120         397606901760     100.0%      0.0%      0.0%
 flops   706 x    32 x   120         399303659520     100.0%      0.0%      0.0%
 flops   708 x    32 x   120         400434831360     100.0%      0.0%      0.0%
 flops   711 x    32 x   120         402131589120     100.0%      0.0%      0.0%
 flops    25 x    22 x    25         535170240000     100.0%      0.0%      0.0%
 flops   160 x    32 x   120         592131686400     100.0%      0.0%      0.0%
 flops   703 x    32 x   139         690841991808     100.0%      0.0%      0.0%
 flops   706 x    32 x   139         693790108416     100.0%      0.0%      0.0%
 flops   708 x    32 x   139         695755519488     100.0%      0.0%      0.0%
 flops   703 x    32 x   140         695812078080     100.0%      0.0%      0.0%
 flops   711 x    32 x   139         698703636096     100.0%      0.0%      0.0%
 flops   706 x    32 x   140         698781404160     100.0%      0.0%      0.0%
 flops   708 x    32 x   140         700760954880     100.0%      0.0%      0.0%
 flops   711 x    32 x   140         703730280960     100.0%      0.0%      0.0%
 flops   182 x    32 x    32         775321444352     100.0%      0.0%      0.0%
 flops    13 x    13 x    32         876781171968     100.0%      0.0%      0.0%
 flops   160 x    32 x   139        1028828805120     100.0%      0.0%      0.0%
 flops   160 x    32 x   140        1036230451200     100.0%      0.0%      0.0%
 flops    13 x    25 x    32        1794744681600     100.0%      0.0%      0.0%
 flops    25 x    13 x    32        1923897227200     100.0%      0.0%      0.0%
 flops   160 x    32 x    32        2044803809280     100.0%      0.0%      0.0%
 flops   703 x    32 x    32        2947488548864     100.0%      0.0%      0.0%
 flops   706 x    32 x    32        2960066736128     100.0%      0.0%      0.0%
 flops   708 x    32 x    32        2968452194304     100.0%      0.0%      0.0%
 flops   711 x    32 x    32        2981030381568     100.0%      0.0%      0.0%
 flops    25 x    25 x    32        3617074080000     100.0%      0.0%      0.0%
 flops    13 x    32 x    13        3764835875840     100.0%      0.0%      0.0%
 flops    13 x    32 x    25        8113966016000     100.0%      0.0%      0.0%
 flops    25 x    32 x    13        8113966016000     100.0%      0.0%      0.0%
 flops    25 x    32 x    25       15568588800000     100.0%      0.0%      0.0%
 flops inhomo. stacks              23676438049920     100.0%      0.0%      0.0%
 flops total                        99.913998E+12     100.0%      0.0%      0.0%
 flops max/rank                      2.013941E+12     100.0%      0.0%      0.0%
 matmuls inhomo. stacks                   5918400     100.0%      0.0%      0.0%
 matmuls total                         2203788500     100.0%      0.0%      0.0%
 number of processed stacks              90977744     100.0%      0.0%      0.0%
 average stack size                                    24.2       0.0       0.0
 marketing flops                   107.946269E+12
 -------------------------------------------------------------------------------
 # multiplications                          23411
 max memory usage/rank             910.626816E+06
 # max total images/rank                        5
 # max 3D layers                                1
 # MPI messages exchanged               213508320
 MPI messages size (bytes):
  total size                        14.553993E+12
  min size                           0.000000E+00
  max size                           1.023840E+06
  average size                      68.165930E+03
 MPI breakdown and total messages size (bytes):
             size <=      128             2026160                        0
       128 < size <=     8192            78463711             642774720512
      8192 < size <=    32768            26378004             680212518112
     32768 < size <=   131072            80002445            3160763541568
    131072 < size <=  4194304            26638000           10065518712896
   4194304 < size <= 16777216                   0                        0
  16777216 < size                               0                        0
 -------------------------------------------------------------------------------

 *** WARNING in dbcsr/mm/dbcsr_mm.F:268 :: Using a non-square number of ***
 *** MPI ranks might lead to poor performance.                          ***
 *** Used ranks: 80                                                     ***
 *** Suggested: 81 169                                                  ***

 -------------------------------------------------------------------------------
 
 MEMORY| Estimated peak process memory [MiB]                                 873

 -------------------------------------------------------------------------------
 ----                             MULTIGRID INFO                            ----
 -------------------------------------------------------------------------------
 count for grid        1:        1299800          cutoff [a.u.]          600.00
 count for grid        2:       10404876          cutoff [a.u.]          200.00
 count for grid        3:        9691320          cutoff [a.u.]           66.67
 count for grid        4:       15157684          cutoff [a.u.]           22.22
 count for grid        5:       14781042          cutoff [a.u.]            7.41
 total gridlevel count  :       51334722

 -------------------------------------------------------------------------------
 -                                                                             -
 -                         MESSAGE PASSING PERFORMANCE                         -
 -                                                                             -
 -------------------------------------------------------------------------------

 ROUTINE             CALLS      AVE VOLUME [Bytes]
 MP_Group             2348
 MP_Bcast            21002                  45890.
 MP_Allreduce       186534                    192.
 MP_Sync               757
 MP_Alltoall        138329                2590084.
 MP_SendRecv         38236                   5268.
 MP_ISendRecv       629472                  49867.
 MP_Wait           5409433
 MP_comm_split         752
 MP_ISend          6120402                  65530.
 MP_IRecv          6120402                  65260.
 MP_Recv              2280                  89856.
 MP_Memory         2595042
 -------------------------------------------------------------------------------


 -------------------------------------------------------------------------------
 -                                                                             -
 -                           R E F E R E N C E S                               -
 -                                                                             -
 -------------------------------------------------------------------------------
 
 CP2K version 7.0 (Development Version), the CP2K developers group (2018).
 CP2K is freely available from https://www.cp2k.org/ .

 Schuett, Ole; Messmer, Peter; Hutter, Juerg; VandeVondele, Joost. 
 Electronic Structure Calculations on Graphics Processing Units, John Wiley & Sons, Ltd, 173-190 (2016). 
 GPU-Accelerated Sparse Matrix-Matrix Multiplication for Linear Scaling Density Functional Theory.
 http://dx.doi.org/10.1002/9781118670712.ch8


 Borstnik, U; VandeVondele, J; Weber, V; Hutter, J. 
 PARALLEL COMPUTING, 40 (5-6), 47-58 (2014). 
 Sparse matrix multiplication: The distributed block-compressed sparse
 row library.
 http://dx.doi.org/10.1016/j.parco.2014.03.012


 Hutter, J; Iannuzzi, M; Schiffmann, F; VandeVondele, J. 
 WILEY INTERDISCIPLINARY REVIEWS-COMPUTATIONAL MOLECULAR SCIENCE, 4 (1), 15-25 (2014). 
 CP2K: atomistic simulations of condensed matter systems.
 http://dx.doi.org/10.1002/wcms.1159


 Grimme, S; Ehrlich, S; Goerigk, L. 
 JOURNAL OF COMPUTATIONAL CHEMISTRY, 32, 1456 (2011). 
 Effect of the damping function in dispersion corrected density functional theory.
 http://dx.doi.org/10.1002/jcc.21759


 Grimme, S; Antony, J; Ehrlich, S; Krieg, H. 
 JOURNAL OF CHEMICAL PHYSICS, 132 (15), 154104 (2010). 
 A consistent and accurate ab initio parametrization of density
 functional dispersion correction (DFT-D) for the 94 elements H-Pu.
 http://dx.doi.org/10.1063/1.3382344


 VandeVondele, J; Hutter, J. 
 JOURNAL OF CHEMICAL PHYSICS, 127 (11), 114105 (2007). 
 Gaussian basis sets for accurate calculations on molecular systems in
 gas and condensed phases.
 http://dx.doi.org/10.1063/1.2770708


 Krack, M. 
 THEORETICAL CHEMISTRY ACCOUNTS, 114 (1-3), 145-152 (2005). 
 Pseudopotentials for H to Kr optimized for gradient-corrected
 exchange-correlation functionals.
 http://dx.doi.org/10.1007/s00214-005-0655-y


 VandeVondele, J; Krack, M; Mohamed, F; Parrinello, M; Chassaing, T;
 Hutter, J. COMPUTER PHYSICS COMMUNICATIONS, 167 (2), 103-128 (2005). 
 QUICKSTEP: Fast and accurate density functional calculations using a
 mixed Gaussian and plane waves approach.
 http://dx.doi.org/10.1016/j.cpc.2004.12.014


 Frigo, M; Johnson, SG. 
 PROCEEDINGS OF THE IEEE, 93 (2), 216-231 (2005). 
 The design and implementation of FFTW3.
 http://dx.doi.org/10.1109/JPROC.2004.840301


 Kolafa, J. 
 JOURNAL OF COMPUTATIONAL CHEMISTRY, 25 (3), 335-342 (2004). 
 Time-reversible always stable predictor-corrector method for molecular dynamics of polarizable molecules.
 http://dx.doi.org/10.1002/jcc.10385


 VandeVondele, J; Hutter, J. 
 JOURNAL OF CHEMICAL PHYSICS, 118 (10), 4365-4369 (2003). 
 An efficient orbital transformation method for electronic structure
 calculations.
 http://dx.doi.org/10.1063/1.1543154


 Hartwigsen, C; Goedecker, S; Hutter, J. 
 PHYSICAL REVIEW B, 58 (7), 3641-3662 (1998). 
 Relativistic separable dual-space Gaussian pseudopotentials from H to Rn.
 http://dx.doi.org/10.1103/PhysRevB.58.3641


 Lippert, G; Hutter, J; Parrinello, M. 
 MOLECULAR PHYSICS, 92 (3), 477-487 (1997). 
 A hybrid Gaussian and plane wave density functional scheme.
 http://dx.doi.org/10.1080/002689797170220


 Perdew, JP; Burke, K; Ernzerhof, M. 
 PHYSICAL REVIEW LETTERS, 77 (18), 3865-3868 (1996). 
 Generalized gradient approximation made simple.
 http://dx.doi.org/10.1103/PhysRevLett.77.3865


 Goedecker, S; Teter, M; Hutter, J. 
 PHYSICAL REVIEW B, 54 (3), 1703-1710 (1996). 
 Separable dual-space Gaussian pseudopotentials.
 http://dx.doi.org/10.1103/PhysRevB.54.1703


 -------------------------------------------------------------------------------
 -                                                                             -
 -                                T I M I N G                                  -
 -                                                                             -
 -------------------------------------------------------------------------------
 SUBROUTINE                       CALLS  ASD         SELF TIME        TOTAL TIME
                                MAXIMUM       AVERAGE  MAXIMUM  AVERAGE  MAXIMUM
 CP2K                                 1  1.0    0.049    0.071 8600.899 8600.923
 cp_geo_opt                           1  2.0    0.026    0.052 8599.721 8599.755
 geoopt_bfgs                          1  3.0    0.060    0.158 8599.695 8599.751
 cp_eval_at                         122  4.0    0.042    0.073 8544.032 8544.098
 qs_forces                          121  5.0    0.061    0.118 8503.486 8503.501
 qs_energies                        122  6.0    0.030    0.116 7554.791 7554.929
 scf_env_do_scf                     122  7.0    0.022    0.134 6904.425 6904.492
 scf_env_do_scf_inner_loop         1568  8.0    0.065    0.159 5880.082 5880.160
 rebuild_ks_matrix                 1689  9.8    0.007    0.020 3412.940 3413.850
 qs_ks_build_kohn_sham_matrix      1689 10.8    0.413    1.246 3412.933 3413.842
 qs_rho_update_rho                 1690  9.1    0.010    0.015 2922.214 2925.382
 calculate_rho_elec                1690 10.1 1636.860 1714.489 2922.204 2925.371
 qs_ks_update_qs_env               1692  9.0    0.014    0.036 2643.944 2644.987
 sum_up_and_integrate               966 11.6    3.314    4.285 2131.185 2131.939
 integrate_v_rspace                 966 12.6 1354.232 1413.766 2127.852 2129.117
 pw_transfer                      28367 13.3    3.007    3.563 1380.784 1386.124
 fft_wrap_pw1pw2                  24989 14.3    0.298    0.408 1368.777 1374.392
 rs_pw_transfer                   13767 12.9    0.158    0.183 1318.005 1353.056
 fft_wrap_pw1pw2_600              14365 15.6   78.715   91.927 1237.234 1240.633
 density_rs2pw                     1690 11.1    0.119    0.141 1165.679 1208.582
 fft3d_ps                         24989 16.3  273.152  316.433 1184.580 1207.419
 dbcsr_multiply_generic           23411 13.7    1.491    2.266 1049.897 1054.519
 init_scf_loop                      124  8.0    0.004    0.014 1022.711 1022.733
 qs_vxc_create                     1689 11.8    0.031    0.049  994.537  998.728
 mp_waitall_1                   4818909 16.6  860.611  919.956  860.611  919.956
 mp_waitany                      590524 14.8  825.068  898.908  825.068  898.908
 qs_scf_new_mos                    1568  9.0    0.010    0.012  893.837  894.671
 qs_scf_loop_do_ot                 1568 10.0    0.070    0.192  893.826  894.660
 mp_alltoall_z22v                 24989 18.3  792.958  872.725  792.958  872.725
 ot_scf_mini                       1568 11.0    0.105    0.243  813.688  814.787
 multiply_cannon                  23411 14.7    7.155    7.541  762.562  780.376
 qs_ks_update_qs_env_forces         121  6.0    0.002    0.003  779.093  779.287
 xc_vxc_pw_create                   966 12.6   30.343   37.507  742.001  746.147
 prepare_preconditioner             124  9.0    0.001    0.001  644.698  644.896
 rs_pw_transfer_RS2PW_600          1934 12.9  110.216  128.611  603.934  643.154
 make_preconditioner                124 10.0    0.011    0.028  603.833  603.915
 make_full_all                      124 11.0    0.042    0.087  571.129  571.342
 xc_rho_set_and_dset_create        1689 13.8    5.130    6.009  525.286  539.207
 potential_pw2rs                    966 13.6    0.431    0.635  530.180  531.520
 multiply_cannon_metrocomm3      468220 15.7    1.219    1.368  435.615  495.424
 x_to_yz                           9655 17.9   40.783   51.504  470.958  490.044
 cp_fm_syevd                        752 11.9    0.006    0.009  424.245  458.012
 ot_mini                           1568 12.0    0.010    0.032  446.708  447.380
 cp_fm_redistribute_end             752 12.9  192.428  423.463  198.792  439.872
 yz_to_x                           7366 17.0   29.200   36.906  388.530  431.463
 cp_fm_syevd_base                   752 13.2  209.401  388.290  209.401  388.290
 init_scf_run                       122  7.0    0.003    0.010  343.587  343.607
 scf_env_initial_rho_setup          122  8.0    0.003    0.010  343.583  343.602
 mp_alltoall_d11v                 27919 14.6  308.926  342.103  308.926  342.103
 wfi_extrapolate                    122  9.0    0.046    0.156  340.485  340.508
 rs_distribute_matrix              2777 12.0    1.642    3.869  283.366  315.791
 rs_pw_transfer_PW2RS_600          1209 14.8  103.066  116.490  289.857  292.264
 multiply_cannon_metrocomm1      468220 15.7    1.363    1.486  191.198  284.718
 qs_ot_get_derivative               845 13.0    0.010    0.023  283.812  284.660
 mp_sum_d                         28462 14.0  205.886  263.639  205.886  263.639
 xc_exc_calc                        723 13.0    1.670    2.047  252.505  252.654
 qs_energies_init_hamiltonians      122  7.0    0.007    0.021  215.194  215.256
 build_core_hamiltonian_matrix_     121  6.0    0.005    0.009  168.974  196.009
 -------------------------------------------------------------------------------

 The number of warnings for this run is : 1
 
 -------------------------------------------------------------------------------
  **** **** ******  **  PROGRAM ENDED AT                 2019-05-28 00:50:37.694
 ***** ** ***  *** **   PROGRAM RAN ON            blg9245.int.ets1.calculquebec.
 **    ****   ******    PROGRAM RAN BY                                       rzk
 ***** **    ** ** **   PROGRAM PROCESS ID                                 50178
  **** **  *******  **  PROGRAM STOPPED IN /lustre03/project/6004141/rzk/GaN-car
                                           bene/334-native/08-2Methanol-Htransfe
                                           r/03-CO-constraint/1.94
