     156
 i =        1, E =     -6136.6114084145
 Ga        -0.0031973016       -0.0158329524       -0.5375924862
  N        -0.0002729765        1.8584780622        0.6070025366
 Ga        -0.0003340735        1.8280288746        2.6383729451
  N        -0.0033776693       -0.0156159087        3.2696715667
 Ga        -0.0021653253       -0.0150504568        5.2603899283
  N         0.0008176513        1.8596741844        5.8482863636
 Ga         0.0022938460        1.8581492435        7.8482570290
  N         0.0008332625       -0.0150043600        8.4505891302
 Ga         0.0037462513       -0.0157241022       10.4497984043
  N         0.0042770333        1.8600692754       11.0415708457
 Ga         0.0095756213        1.8622410649       13.0320452930
  N         0.0153286359       -0.0087458052       13.6325265350
 Ga         0.0304071789       -0.0177815953       15.6248489931
  N         0.0199337468        1.8575050161       16.2216621256
 Ga         0.0448856829        1.8472085215       18.2878079080
  N         0.0484038365       -0.0267945916       18.6985043941
 Ga        -1.6230535515        2.7898790852        0.3238577311
  N        -1.6248092170        4.6597399215        0.6067036060
 Ga        -1.5956875407        4.6757303978        2.6367584249
  N        -1.6231061173        2.7899847219        3.2283103153
 Ga        -1.6217674612        2.7906185654        5.2398579087
  N        -1.6212820445        4.6608903556        5.8464767582
 Ga        -1.6191121935        4.6615338892        7.8452176893
  N        -1.6203686255        2.7918371211        8.4511910273
 Ga        -1.6194701614        2.7953454136       10.4471903344
  N        -1.6174696640        4.6668730191       11.0552012102
 Ga        -1.6181969089        4.6714055384       13.0527692717
  N        -1.6072555745        2.7998256705       13.6583974360
 Ga        -1.6007328462        2.8163322083       15.6629388975
  N        -1.5864410028        4.6838440386       16.3115303853
 Ga        -1.5143336864        4.6810704977       18.3866090153
  N        -1.5542690163        2.7885113797       18.7558901980
 Ga        -3.2437384990        5.5955549700        0.3237762403
  N        -3.2373751214        7.4661485598        0.6072604858
 Ga        -3.2641811813        7.4807092785        2.6385120289
  N        -3.2426866967        5.5950414151        3.2286489270
 Ga        -3.2419167196        5.5960175868        5.2401061369
  N        -3.2357830498        7.4663008258        5.8469772369
 Ga        -3.2358776631        7.4670848239        7.8461523591
  N        -3.2398787976        5.5961821165        8.4495099248
 Ga        -3.2389578888        5.5972447140       10.4449775611
  N        -3.2308433492        7.4658263032       11.0556550963
 Ga        -3.2219270666        7.4629620558       13.0544584406
  N        -3.2355911591        5.5972897511       13.6928568102
 Ga        -3.2227506700        5.5919932515       15.7299227653
  N        -3.2086404288        7.4742959037       16.2704448907
 Ga        -3.1859309244        7.4478053401       18.3277234269
  N        -3.1591475725        5.5861201129       18.8508394128
 Ga         3.2425512120       -0.0154444973        0.3241633977
  N         3.2414640742        1.8548065825        0.6064041861
 Ga         3.2696602402        1.8704493858        2.6372716537
  N         3.2428081332       -0.0153018192        3.2283114571
 Ga         3.2440037077       -0.0146002493        5.2399837522
  N         3.2446612823        1.8555404769        5.8474789305
 Ga         3.2471214925        1.8563016094        7.8468983719
  N         3.2448897263       -0.0146525508        8.4498432364
 Ga         3.2477479661       -0.0140918768       10.4454029800
  N         3.2516255472        1.8569306763       11.0512532147
 Ga         3.2584323662        1.8540017863       13.0486155567
  N         3.2577942916       -0.0166471120       13.6599100558
 Ga         3.2697406996       -0.0187378380       15.6657751127
  N         3.2837252699        1.8547424171       16.2307882432
 Ga         3.3198047529        1.8604047118       18.2552009181
  N         3.3062954110       -0.0256137815       18.7100722458
 Ga         1.6221356718        2.7905839360        0.3237599059
  N         1.6293374771        4.6603703785        0.6070244213
 Ga         1.6011636532        4.6758751601        2.6371223198
  N         1.6229364286        2.7900955127        3.2290459487
 Ga         1.6243016613        2.7909480791        5.2409084744
  N         1.6297316214        4.6611463669        5.8483948651
 Ga         1.6302401052        4.6616186447        7.8483601988
  N         1.6261115986        2.7902912127        8.4496132574
 Ga         1.6296900759        2.7921034965       10.4450732140
  N         1.6277788367        4.6624103315       11.0491046309
 Ga         1.6291723744        4.6646944180       13.0447715157
  N         1.6312529001        2.7873555808       13.6464424330
 Ga         1.6546458375        2.7849354519       15.6411069423
  N         1.6292327236        4.6649788191       16.1843436394
 Ga         1.6784959128        4.6402138912       18.1815350009
  N         1.6849218756        2.7775752592       18.6347680422
 Ga         0.0031267355        5.5957808891       -0.5460650576
  N         0.0059631086        7.4707668478        0.6066903793
 Ga         0.0060798171        7.4382901027        2.6368388619
  N         0.0030123706        5.5951899736        3.2695600525
 Ga         0.0046922382        5.5962070140        5.2597999122
  N         0.0074733013        7.4707308313        5.8477458169
 Ga         0.0089325227        7.4693607439        7.8473791679
  N         0.0049618605        5.5956920730        8.4474906269
 Ga         0.0067237938        5.5972406048       10.4447739621
  N         0.0116956477        7.4694115640       11.0449744699
 Ga         0.0151590704        7.4714349396       13.0370772433
  N         0.0057124064        5.6027650567       13.6456066003
 Ga         0.0064959842        5.6014663253       15.6418320364
  N         0.0373074815        7.4659798211       16.2691240980
 Ga         0.0724509563        7.4321603051       18.3565776254
  N         0.1394047867        5.5808728022       18.9001384833
 Ga         6.4873193824       -0.0150112594        0.3233778277
  N         6.4933547156        1.8552431866        0.6060764095
 Ga         6.4660945483        1.8703009003        2.6370711611
  N         6.4880555084       -0.0152152180        3.2289249737
 Ga         6.4897977548       -0.0146100384        5.2408801184
  N         6.4945650063        1.8559331439        5.8479434987
 Ga         6.4944338637        1.8568655545        7.8475028185
  N         6.4910157298       -0.0135251661        8.4515769691
 Ga         6.4945795339       -0.0112814591       10.4481831014
  N         6.4964381367        1.8611464687       11.0529395818
 Ga         6.5008783316        1.8654486810       13.0501307406
  N         6.4899688680       -0.0070115552       13.6381414260
 Ga         6.5090156661       -0.0000748509       15.6390067965
  N         6.5163681106        1.8736506764       16.2290642428
 Ga         6.5724329176        1.8766187149       18.2702769479
  N         6.5609806495       -0.0215258694       18.6561262425
 Ga         4.8675978363        2.7916176426       -0.5407208487
  N         4.8709926249        4.6643843569        0.6069498239
 Ga         4.8708433517        4.6332334034        2.6375479211
  N         4.8683123946        2.7899033434        3.2693013336
 Ga         4.8696074400        2.7911734608        5.2595427909
  N         4.8722549292        4.6651827049        5.8481335535
 Ga         4.8727493423        4.6640318621        7.8478225289
  N         4.8709690925        2.7914539316        8.4504604829
 Ga         4.8737826763        2.7956367624       10.4497105179
  N         4.8796218647        4.6660284139       11.0584222042
 Ga         4.8809858781        4.6697812022       13.0609127563
  N         4.8759881228        2.7957723908       13.6539628868
 Ga         4.8829337091        2.8016689105       15.6676537543
  N         4.8620231896        4.6739183645       16.1683867965
 Ga         4.9327231537        4.6623593348       19.0930542486
  N         4.9399402442        2.7838023334       18.7399803820
 Ga         3.2489114028        5.5950410284        0.3233208770
  N         3.2480355527        7.4655300895        0.6067711771
 Ga         3.2754810967        7.4805718240        2.6380892282
  N         3.2486685367        5.5952812238        3.2290999903
 Ga         3.2500910341        5.5963526168        5.2407751422
  N         3.2504882321        7.4661954234        5.8494251356
 Ga         3.2531342364        7.4666196235        7.8498694377
  N         3.2515171303        5.5960000521        8.4551891056
 Ga         3.2549090194        5.5976542066       10.4543194901
  N         3.2566814564        7.4714408472       11.0506906572
 Ga         3.2573521483        7.4729129929       13.0479073970
  N         3.2491340869        5.5987067340       13.6294819525
 Ga         3.2565193750        5.6059060637       15.6352880352
  N         3.2799630696        7.4864970088       16.1587324855
 Ga         3.3269607811        7.4923691831       18.1720369195
  N         3.3627756230        5.5701513854       18.4641637338
  O         1.6142135136        5.1415211706       21.2108015295
  H         0.9832572166        5.4109226278       20.4614593990
  C         0.8120161859        3.9356102153       21.9140668653
  H         0.1011505707        3.5290356076       21.1779107471
  H         1.5610973324        3.1856315421       22.1990687894
  H         0.3032832839        4.3730954607       22.7864530666
  O         4.2439305198        4.7159953657       21.0731678336
  H         3.2364648192        4.8653408734       21.0729872142
  C         4.5515941980        3.5963605305       21.9434055701
  H         4.1178899208        2.6624261225       21.5599528390
  H         5.6433646829        3.5047012557       21.9646960460
  H         4.1785130234        3.8117294569       22.9527415879
     156
 i =        2, E =     -6136.6212190856
 Ga        -0.0031889008       -0.0158378006       -0.5426106531
  N        -0.0002276835        1.8587274133        0.6074517853
 Ga        -0.0002224123        1.8276890636        2.6380082619
  N        -0.0033179004       -0.0156315505        3.2702506073
 Ga        -0.0021221147       -0.0150353491        5.2604347151
  N         0.0009450924        1.8597723247        5.8486913626
 Ga         0.0025299087        1.8583453812        7.8485434244
  N         0.0010393539       -0.0150762970        8.4497738923
 Ga         0.0042920570       -0.0153813016       10.4486038487
  N         0.0043355258        1.8598962015       11.0457836402
 Ga         0.0108970325        1.8617744189       13.0375598212
  N         0.0169312292       -0.0092244578       13.6388701518
 Ga         0.0333285204       -0.0259644227       15.6320287164
  N         0.0259400104        1.8562122956       16.2178255644
 Ga         0.0469380346        1.8517354953       18.2808789587
  N         0.0430703674       -0.0198851132       18.6895852541
 Ga        -1.6226398301        2.7897123183        0.3241437018
  N        -1.6246707620        4.6597544232        0.6064302684
 Ga        -1.5958653286        4.6756210187        2.6367023422
  N        -1.6229351824        2.7898673514        3.2283766825
 Ga        -1.6216975018        2.7907400423        5.2398442936
  N        -1.6211303551        4.6610353143        5.8468769129
 Ga        -1.6190205142        4.6619009247        7.8455181598
  N        -1.6203903355        2.7920344399        8.4510133262
 Ga        -1.6191688904        2.7955443414       10.4468016469
  N        -1.6176557039        4.6666297292       11.0562112984
 Ga        -1.6189451433        4.6703778288       13.0541234581
  N        -1.6058557013        2.7993308094       13.6636267091
 Ga        -1.6018031020        2.8148165133       15.6681837335
  N        -1.5892215597        4.6794954007       16.3109781805
 Ga        -1.5166014872        4.6813408085       18.3863515416
  N        -1.5519786532        2.7868470161       18.7415598900
 Ga        -3.2436133871        5.5959157625        0.3240961205
  N        -3.2370493899        7.4660095311        0.6077088965
 Ga        -3.2643905675        7.4808184472        2.6381808356
  N        -3.2426693276        5.5951413426        3.2287121302
 Ga        -3.2418412029        5.5960119655        5.2400310489
  N        -3.2356270992        7.4663572595        5.8471784913
 Ga        -3.2355880451        7.4670244940        7.8461556005
  N        -3.2398329666        5.5963494307        8.4501191791
 Ga        -3.2390586997        5.5972870692       10.4458144516
  N        -3.2310046248        7.4661655769       11.0554096669
 Ga        -3.2225575979        7.4622099842       13.0541623419
  N        -3.2365247468        5.5968841380       13.6924074877
 Ga        -3.2241338123        5.5901928676       15.7299400913
  N        -3.2038405345        7.4656332766       16.2754822566
 Ga        -3.1922057962        7.4445138495       18.3318541454
  N        -3.1559125527        5.5859947961       18.8576977725
 Ga         3.2423409927       -0.0156657182        0.3244493110
  N         3.2416926429        1.8549061774        0.6060861216
 Ga         3.2695955714        1.8703678319        2.6373216422
  N         3.2427380860       -0.0153668895        3.2283620207
 Ga         3.2442172000       -0.0145694175        5.2398972871
  N         3.2447172694        1.8555580538        5.8477686501
 Ga         3.2472813466        1.8562897479        7.8469577650
  N         3.2448554277       -0.0145223350        8.4499836150
 Ga         3.2475475193       -0.0138946626       10.4453753423
  N         3.2520082822        1.8570924703       11.0514638253
 Ga         3.2594728140        1.8530608058       13.0484730261
  N         3.2557739551       -0.0165858382       13.6609460345
 Ga         3.2643317710       -0.0183261679       15.6671320600
  N         3.2842541852        1.8512282716       16.2371432029
 Ga         3.3232700730        1.8609113103       18.2633754502
  N         3.2990683994       -0.0230850030       18.7276711854
 Ga         1.6218339600        2.7904372963        0.3241351268
  N         1.6292862140        4.6603951665        0.6068036557
 Ga         1.6015279992        4.6757070311        2.6370852521
  N         1.6229109870        2.7899916529        3.2291229738
 Ga         1.6244269499        2.7910930158        5.2408228019
  N         1.6297793755        4.6612403250        5.8487014464
 Ga         1.6303077866        4.6618532358        7.8484873025
  N         1.6264920064        2.7905409324        8.4496883772
 Ga         1.6296997831        2.7921479733       10.4450864735
  N         1.6277876092        4.6626145051       11.0474855842
 Ga         1.6265540972        4.6653830755       13.0430084136
  N         1.6340118079        2.7885063989       13.6470936023
 Ga         1.6590591059        2.7877737512       15.6406955553
  N         1.6264625924        4.6636153529       16.1785258713
 Ga         1.6790543142        4.6426072351       18.1768389404
  N         1.6848887875        2.7811657688       18.6248746625
 Ga         0.0032328953        5.5957099529       -0.5448318012
  N         0.0060146076        7.4706466104        0.6064852142
 Ga         0.0061509996        7.4385621299        2.6368475371
  N         0.0031177487        5.5951735757        3.2691082579
 Ga         0.0048315633        5.5962862243        5.2595529414
  N         0.0075566653        7.4707087099        5.8483097119
 Ga         0.0088942231        7.4693777389        7.8478364072
  N         0.0051078705        5.5957283102        8.4476249934
 Ga         0.0063817415        5.5970490263       10.4448592876
  N         0.0116777476        7.4695670393       11.0442647790
 Ga         0.0143907539        7.4727119724       13.0364103890
  N         0.0040878940        5.6041979301       13.6450573925
 Ga         0.0063872964        5.5986560826       15.6427026440
  N         0.0400148620        7.4714133439       16.2596441731
 Ga         0.0615086088        7.4378682738       18.3491588439
  N         0.1367012446        5.5848935353       18.8902476283
 Ga         6.4876520931       -0.0152410692        0.3236990740
  N         6.4932324127        1.8553473018        0.6057525222
 Ga         6.4662532520        1.8701686759        2.6371027218
  N         6.4882473472       -0.0152845064        3.2290189826
 Ga         6.4897976764       -0.0146414193        5.2408163652
  N         6.4946628186        1.8559019853        5.8482410585
 Ga         6.4943849255        1.8569091795        7.8476227346
  N         6.4910307840       -0.0134237502        8.4512333244
 Ga         6.4945667110       -0.0105553201       10.4477611038
  N         6.4967051756        1.8618260482       11.0545121156
 Ga         6.5015141467        1.8672706031       13.0521402166
  N         6.4914510014       -0.0058359193       13.6338941046
 Ga         6.5109411874        0.0016183729       15.6334013221
  N         6.5166721515        1.8714589285       16.2345785167
 Ga         6.5715650233        1.8732228818       18.2767762565
  N         6.5574277477       -0.0249147024       18.6634073263
 Ga         4.8676629293        2.7915129843       -0.5386878749
  N         4.8710584155        4.6641348749        0.6066039419
 Ga         4.8708735460        4.6333873898        2.6375772837
  N         4.8683828844        2.7899164596        3.2691215167
 Ga         4.8696885695        2.7912439779        5.2594697606
  N         4.8723370323        4.6652665822        5.8484789579
 Ga         4.8728419578        4.6642510660        7.8480458687
  N         4.8709900298        2.7915909275        8.4503640409
 Ga         4.8739903307        2.7956739002       10.4493722594
  N         4.8790805952        4.6657921542       11.0582070547
 Ga         4.8805630938        4.6699905925       13.0613222348
  N         4.8752638787        2.7965711530       13.6577482989
 Ga         4.8826611931        2.7990004745       15.6737169983
  N         4.8556110449        4.6739064765       16.1584692906
 Ga         4.9392069281        4.6594254699       19.0969941588
  N         4.9421442645        2.7837118541       18.7441221902
 Ga         3.2488872988        5.5953671130        0.3236959894
  N         3.2478228396        7.4653618935        0.6073186608
 Ga         3.2757967324        7.4806577762        2.6378345972
  N         3.2487649931        5.5953823530        3.2292382393
 Ga         3.2501523552        5.5963617057        5.2407473652
  N         3.2505075644        7.4662154251        5.8497042755
 Ga         3.2531030429        7.4665776733        7.8500015866
  N         3.2515400354        5.5960532488        8.4548614971
 Ga         3.2548650632        5.5979676155       10.4539516788
  N         3.2570917431        7.4722834978       11.0490610057
 Ga         3.2586896971        7.4747095382       13.0462458933
  N         3.2467020752        5.6004842610       13.6232120062
 Ga         3.2547820128        5.6079668551       15.6287036345
  N         3.2775458444        7.4856032761       16.1597134963
 Ga         3.3230266397        7.4905390629       18.1734045283
  N         3.3747407567        5.5646242699       18.4480832130
  O         1.6379635985        5.1978607402       21.2095326407
  H         0.9939731000        5.4226625419       20.4506109731
  C         0.7866167755        3.8960442472       21.9344286873
  H         0.0920573850        3.5176481486       21.1742505984
  H         1.5633983141        3.1747575367       22.2046289836
  H         0.2971369835        4.3624593479       22.7953206971
  O         4.2399146193        4.7126978203       21.0728953867
  H         3.2335072704        4.8820634969       21.0619723577
  C         4.5596886920        3.5971295368       21.9420985326
  H         4.1195857374        2.6650598601       21.5601860835
  H         5.6496895499        3.4945067297       21.9722712229
  H         4.1795702172        3.8114302293       22.9495476521
     156
 i =        3, E =     -6136.6225257450
 Ga        -0.0031599459       -0.0158473076       -0.5445911706
  N        -0.0001793838        1.8588799671        0.6074326536
 Ga        -0.0001858358        1.8274212171        2.6377971183
  N        -0.0032293935       -0.0156506067        3.2705642346
 Ga        -0.0019863857       -0.0149219497        5.2606938331
  N         0.0010096582        1.8598810958        5.8483705516
 Ga         0.0026385286        1.8585985088        7.8480272195
  N         0.0013117915       -0.0145780336        8.4497867714
 Ga         0.0048295794       -0.0143704797       10.4484654995
  N         0.0045426333        1.8598765944       11.0487896308
 Ga         0.0118065835        1.8605130655       13.0416313339
  N         0.0178040087       -0.0108151836       13.6419788463
 Ga         0.0346993625       -0.0297391251       15.6355152729
  N         0.0295745673        1.8547861556       16.2152722535
 Ga         0.0476523833        1.8538960726       18.2754532133
  N         0.0394401648       -0.0172544228       18.6840581985
 Ga        -1.6223668843        2.7898587229        0.3244401282
  N        -1.6243989301        4.6598725814        0.6065673151
 Ga        -1.5958055810        4.6755733248        2.6369413394
  N        -1.6227558117        2.7898044032        3.2284839444
 Ga        -1.6215158064        2.7908099028        5.2400582870
  N        -1.6211144625        4.6610752573        5.8467171309
 Ga        -1.6190586015        4.6617703477        7.8454816092
  N        -1.6200237969        2.7919768854        8.4519534641
 Ga        -1.6185107906        2.7953271440       10.4478170883
  N        -1.6178812228        4.6661260066       11.0569393197
 Ga        -1.6195455524        4.6697665849       13.0550901814
  N        -1.6048042976        2.7990143931       13.6668736678
 Ga        -1.6015496124        2.8128203301       15.6717178195
  N        -1.5910779011        4.6763355448       16.3101443085
 Ga        -1.5171916876        4.6839673606       18.3861374076
  N        -1.5500316566        2.7875012446       18.7334509832
 Ga        -3.2433007399        5.5960216412        0.3243407391
  N        -3.2368146061        7.4659025306        0.6076316562
 Ga        -3.2645435894        7.4809448766        2.6379034354
  N        -3.2425826693        5.5952745894        3.2286975054
 Ga        -3.2416890775        5.5961066571        5.2401308676
  N        -3.2355497646        7.4663357421        5.8470143623
 Ga        -3.2355653304        7.4670620015        7.8460067632
  N        -3.2396463518        5.5964813936        8.4504951650
 Ga        -3.2389897103        5.5970715416       10.4465037341
  N        -3.2314042964        7.4661378027       11.0552272457
 Ga        -3.2227628359        7.4620628082       13.0539924729
  N        -3.2375672549        5.5964722813       13.6908931143
 Ga        -3.2241492657        5.5892508141       15.7285012923
  N        -3.2024812997        7.4606354396       16.2785038756
 Ga        -3.1962266401        7.4429863265       18.3350455943
  N        -3.1531601770        5.5866426544       18.8660005438
 Ga         3.2424397102       -0.0159510653        0.3247010435
  N         3.2416687038        1.8548380321        0.6058861269
 Ga         3.2696189110        1.8703131332        2.6375588395
  N         3.2427158014       -0.0154528481        3.2284028292
 Ga         3.2442036846       -0.0145900691        5.2400709288
  N         3.2448196902        1.8555968581        5.8475062014
 Ga         3.2472320511        1.8564952675        7.8468445689
  N         3.2447786964       -0.0143481100        8.4500387297
 Ga         3.2472456838       -0.0137648707       10.4455905287
  N         3.2525053615        1.8571605867       11.0515812370
 Ga         3.2597535684        1.8536936057       13.0485562975
  N         3.2545143342       -0.0156505638       13.6604090430
 Ga         3.2618683051       -0.0186189457       15.6669053396
  N         3.2846925520        1.8490239433       16.2414024577
 Ga         3.3232198185        1.8623514541       18.2693126614
  N         3.2961170738       -0.0221560523       18.7362254670
 Ga         1.6216640463        2.7905664167        0.3244042007
  N         1.6291494247        4.6604886570        0.6069845573
 Ga         1.6015913434        4.6756788902        2.6373647671
  N         1.6228865120        2.7898891967        3.2291661294
 Ga         1.6244200556        2.7910870807        5.2410042620
  N         1.6298298759        4.6612625213        5.8485103970
 Ga         1.6303169654        4.6617459552        7.8485829025
  N         1.6263790248        2.7903703080        8.4504641555
 Ga         1.6295649504        2.7917975769       10.4461330639
  N         1.6272532634        4.6626553644       11.0459949882
 Ga         1.6252957541        4.6660023834       13.0411154997
  N         1.6350980294        2.7896643867       13.6468365916
 Ga         1.6618756180        2.7879714046       15.6400892806
  N         1.6241898729        4.6635833948       16.1733303690
 Ga         1.6805661125        4.6453020422       18.1714955824
  N         1.6835972685        2.7853840185       18.6206963479
 Ga         0.0033056501        5.5956650626       -0.5451550887
  N         0.0060733291        7.4703731809        0.6066041938
 Ga         0.0062157714        7.4385589856        2.6370504097
  N         0.0031592180        5.5951904891        3.2692368884
 Ga         0.0048452441        5.5962894122        5.2597570602
  N         0.0076218583        7.4707655775        5.8480980231
 Ga         0.0089523917        7.4694964712        7.8478612144
  N         0.0049413586        5.5957469224        8.4476965803
 Ga         0.0057431875        5.5971370753       10.4451594979
  N         0.0115392158        7.4699174038       11.0443350557
 Ga         0.0136245255        7.4730981510       13.0368965209
  N         0.0031680172        5.6042380190       13.6443192898
 Ga         0.0052138201        5.5986269416       15.6425057029
  N         0.0398692363        7.4743516289       16.2579526870
 Ga         0.0547059382        7.4403620104       18.3459267709
  N         0.1382766802        5.5859750312       18.8830170442
 Ga         6.4876777347       -0.0155376419        0.3239536742
  N         6.4933706237        1.8552610311        0.6055621433
 Ga         6.4664102676        1.8701517662        2.6373547463
  N         6.4883818733       -0.0153456714        3.2290818128
 Ga         6.4899358307       -0.0146079558        5.2410308952
  N         6.4947943148        1.8559904198        5.8478997581
 Ga         6.4947231762        1.8572050033        7.8473539158
  N         6.4910640572       -0.0130173918        8.4516486866
 Ga         6.4947539470       -0.0096971992       10.4485806516
  N         6.4968444914        1.8629613716       11.0550135072
 Ga         6.5023415845        1.8686675283       13.0527443919
  N         6.4920704642       -0.0044565462       13.6319349130
 Ga         6.5099674768        0.0020458570       15.6307400427
  N         6.5172523362        1.8697790540       16.2377031047
 Ga         6.5719441867        1.8698116670       18.2815558330
  N         6.5557100506       -0.0291836834       18.6670902959
 Ga         4.8677407372        2.7914578002       -0.5372264258
  N         4.8711122153        4.6642226473        0.6063771724
 Ga         4.8709833639        4.6334245364        2.6377877153
  N         4.8684559816        2.7898996705        3.2692081907
 Ga         4.8698031651        2.7913148889        5.2597339148
  N         4.8725260031        4.6653487021        5.8482697204
 Ga         4.8730140319        4.6643486708        7.8480632667
  N         4.8711754836        2.7915189715        8.4504820978
 Ga         4.8741208226        2.7959471437       10.4495912202
  N         4.8788481086        4.6658242850       11.0580757843
 Ga         4.8795855290        4.6691052454       13.0615661298
  N         4.8754933991        2.7961468317       13.6601355368
 Ga         4.8824231545        2.7963136515       15.6778850115
  N         4.8512297657        4.6751508020       16.1514108301
 Ga         4.9440124923        4.6554428711       19.0968406790
  N         4.9444195276        2.7791701618       18.7519387556
 Ga         3.2486935090        5.5954716515        0.3239358224
  N         3.2477049116        7.4652428697        0.6073048387
 Ga         3.2760857270        7.4808053209        2.6375991179
  N         3.2488701710        5.5954987620        3.2292771136
 Ga         3.2502431059        5.5964494605        5.2409824092
  N         3.2506318728        7.4663062077        5.8494927679
 Ga         3.2532622070        7.4668752677        7.8499341873
  N         3.2515969733        5.5962468609        8.4547273712
 Ga         3.2547443091        5.5980770195       10.4541613676
  N         3.2579841673        7.4729729636       11.0473686620
 Ga         3.2589543316        7.4766235647       13.0441006506
  N         3.2451386242        5.6024934080       13.6184660083
 Ga         3.2529761971        5.6098222978       15.6234460302
  N         3.2750405296        7.4856557282       16.1594245983
 Ga         3.3202694797        7.4886503378       18.1731637688
  N         3.3842269444        5.5603453171       18.4338114127
  O         1.6496207246        5.2207695299       21.2115396954
  H         1.0093412999        5.4357619126       20.4487152855
  C         0.7758865753        3.8782495084       21.9462163353