     212
 i =       18, E =     -8504.7039473591
  N         0.0032831678        2.0469985379        2.4543429917
 Ga        -0.0056154076        0.0958455493        2.8024206002
  N        -0.0063859741        0.0493812296        4.9658670475
 Ga         0.0031077705        1.8849523376        5.7427626592
  N        -0.0014116910        1.8909086955        7.7432141118
 Ga        -0.0014129804        0.0473662081        8.3957299441
  N        -0.0026849504        0.0454392714       10.3681113774
 Ga        -0.0028931125        1.8848188899       11.0263133632
  N        -0.0037263409        1.8652073628       13.0166743582
 Ga        -0.0029701892        0.0458118301       13.8297064080
  N        -0.0021249894        0.0444850711       16.0220107260
 Ga        -0.0039911069        2.0857419321       16.4383090725
 Ga        -0.0111613694        3.7152311766        1.2532743571
  N        -1.4722926945        4.6248269505        2.4382157441
 Ga        -1.6696696430        2.7911256496        3.2172158297
  N        -1.6124267124        2.8324273008        5.1982322726
 Ga        -1.6313794017        4.6971052189        5.7542767639
  N        -1.6193012220        4.6959649164        7.7473188598
 Ga        -1.5978575169        2.8359772008        8.3907811752
  N        -1.5993354499        2.8379002150       10.3817423939
 Ga        -1.6276699625        4.6955083756       11.0295914108
  N        -1.6445207683        4.7060486120       13.0183142298
 Ga        -1.6004873343        2.8371991910       13.5777106871
  N        -1.6264512954        2.8227214000       15.5365066721
 Ga        -1.4488631227        4.5929332403       16.4384552283
  N         0.0017409772        3.7551887611       17.5813283721
  N        -3.2325498662        7.5836004531        2.4548642995
 Ga        -3.1861292862        5.5812950980        2.8048801132
  N        -3.2152354623        5.6107838030        4.9667036695
 Ga        -3.2376364730        7.4334679351        5.7490570426
  N        -3.2235821693        7.4625861402        7.7397272554
 Ga        -3.2186775379        5.6153483602        8.4004458894
  N        -3.2192386113        5.6167094919       10.3704393230
 Ga        -3.2209627731        7.4541471546       11.0312342984
  N        -3.2203597737        7.4353438904       13.0191761114
 Ga        -3.2195760833        5.6156705600       13.8346153802
  N        -3.2197984899        5.6159370324       16.0216626361
 Ga        -3.2203085886        7.6644922819       16.4413836946
 Ga        -3.2523077669        9.3475306794        1.3984160847
  N        -4.7426928219       10.1845711452        2.4654035936
 Ga        -4.9737369191        8.3171336135        3.1902309120
  N        -4.8434131671        8.3884739213        5.1628497415
 Ga        -4.8619429508       10.2644506574        5.7380279079
  N        -4.8392167776       10.2574855034        7.7358245883
 Ga        -4.8198907706        8.4074268387        8.3966931157
  N        -4.8157438166        8.4076292349       10.3832938408
 Ga        -4.8431144004       10.2674263976       11.0270921864
  N        -4.8601192934       10.2767072271       13.0162010480
 Ga        -4.8179781589        8.4079789374       13.5786995398
  N        -4.8482447987        8.3921066445       15.5346534521
 Ga        -4.6567087053       10.1592998723       16.4427287577
  N        -3.2147899940        9.3268103421       17.5702044526
  N         3.2051059929        1.9008115474        2.5593235418
 Ga         3.1932370418        0.1584482439        3.2343570011
  N         3.2086087998        0.0395038358        5.1962674040
 Ga         3.2005821054        1.9066025514        5.8229870092
  N         3.2107995797        1.9000484545        7.7973212472
 Ga         3.2074052585        0.0336910384        8.3887735979
  N         3.2114828281        0.0310631667       10.3790222913
 Ga         3.2121458434        1.9008750400       10.9816937876
  N         3.2116738257        1.9017948161       12.9482213889
 Ga         3.2116299742        0.0338644728       13.5782971828
  N         3.2101805501        0.0677912711       15.5342892081
 Ga         3.2106054958        1.9034607580       15.8191329642
  N         1.4902493383        4.6322727539        2.3739467914
 Ga         1.6840462034        2.8074532410        3.2027283505
  N         1.6080848477        2.8405793938        5.1847161961
 Ga         1.6554344412        4.7068716135        5.7594610683
  N         1.6096050165        4.6920541170        7.7603865982
 Ga         1.5940110319        2.8356268859        8.3942810708
  N         1.5936033632        2.8361566924       10.3847652885
 Ga         1.6210498138        4.6951053943       11.0285268948
  N         1.6366710138        4.7058268762       13.0186057623
 Ga         1.5936465367        2.8366418579       13.5772692749
  N         1.6179594047        2.8222956870       15.5371393393
 Ga         1.4447208449        4.5951168260       16.4383112673
  N        -0.0096377478        7.4668598329        2.6465597758
 Ga         0.0240356282        5.5979328440        3.2559774235
  N         0.0046425763        5.6274062916        5.1943806101
 Ga        -0.0060145023        7.4589066319        5.8617994684
  N        -0.0060332761        7.4713156502        7.8156921473
 Ga        -0.0024202023        5.5983025833        8.4057537118
  N        -0.0044315419        5.6032060942       10.3910663417
 Ga        -0.0045322902        7.4725064772       10.9874545713
  N        -0.0037435323        7.4728099790       12.9534336710
 Ga        -0.0039126749        5.6022347727       13.5781664500
  N        -0.0046430064        5.6322122693       15.5370243341
 Ga        -0.0024576573        7.4715865967       15.8156509869
  N        -1.7200835003       10.1845133363        2.4726454053
 Ga        -1.6104289263        8.3770392406        3.2813593246
  N        -1.6056626712        8.3890370563        5.2059808422
 Ga        -1.5920533267       10.2761508749        5.7632246627
  N        -1.6030952368       10.2599125250        7.7489819497
 Ga        -1.6274091861        8.4057654124        8.4008316136
  N        -1.6246359466        8.4069011541       10.3860926272
 Ga        -1.5989554437       10.2672606989       11.0296031556
  N        -1.5802255536       10.2769305958       13.0181895376
 Ga        -1.6234847332        8.4081267775       13.5794591169
  N        -1.5918462181        8.3896318588       15.5360385820
 Ga        -1.7780541910       10.1625236675       16.4409268394
  N         6.4338264416        2.0146286905        2.5044750207
 Ga         6.4231661946        0.0501573720        2.8430056567
  N         6.4256239885        0.0414391371        4.9811147233
 Ga         6.4253258667        1.8775931386        5.7640123015
  N         6.4290763513        1.8887208252        7.7544096205
 Ga         6.4266103038        0.0456774542        8.4071720503
  N         6.4273536921        0.0444629644       10.3747066392
 Ga         6.4284101073        1.8850841601       11.0297318789
  N         6.4287349440        1.8651061101       13.0187153777
 Ga         6.4283853655        0.0459742679       13.8335405929
  N         6.4281407603        0.0453404029       16.0208463250
 Ga         6.4281009317        2.0935326134       16.4397497101
 Ga         6.4525870267        3.7236307651        1.4738681109
  N         4.9395861753        4.5957237129        2.4750143082
 Ga         4.7062103788        2.7695817107        3.2578989537
  N         4.8191154571        2.8281221648        5.2124943670
 Ga         4.7773535352        4.7087044796        5.7609835698
  N         4.8167636694        4.6898823678        7.7616580936
 Ga         4.8283755862        2.8344674604        8.3964690621
  N         4.8316358913        2.8351575494       10.3858982899
 Ga         4.8053463621        4.6954661744       11.0275797027
  N         4.7885910153        4.7060358062       13.0174934890
 Ga         4.8301870095        2.8367641218       13.5772104532
  N         4.8000390679        2.8212413982       15.5336888794
 Ga         4.9914932108        4.5885761037       16.4417458660
  N         6.4336777226        3.7557090916       17.5687705376
  N         3.1929749442        7.6226951261        2.4884943712
  N         3.2169634547        5.6199515703        5.0247484793
 Ga         3.2173885853        7.4165086907        5.7706217974
  N         3.2112274907        7.4693283546        7.7645630470
 Ga         3.2132522984        5.6146121477        8.4013874015
  N         3.2128445762        5.6164237962       10.3745319678
 Ga         3.2134264046        7.4545016935       11.0298754738
  N         3.2127103241        7.4362562411       13.0192167612
 Ga         3.2132888591        5.6155310030       13.8299852715
  N         3.2137923551        5.6147290121       16.0224298679
 Ga         3.2120000937        7.6564007474       16.4385896476
 Ga         3.2270789371        9.3626705541        1.4344582655
  N         1.7002038786       10.1937991749        2.4854075371
 Ga         1.5751282798        8.3842125373        3.3042670370
  N         1.5894211498        8.3956384501        5.2229288310
 Ga         1.5780926612       10.2785341427        5.7734691232
  N         1.5937087604       10.2629720425        7.7572826741
 Ga         1.6154890648        8.4078067612        8.4077206779
  N         1.6142656879        8.4086514764       10.3918528833
 Ga         1.5890131244       10.2682926291       11.0318534280
  N         1.5722407630       10.2773412694       13.0195469621
 Ga         1.6156658223        8.4083101394       13.5786870750
  N         1.5893479177        8.3932691070       15.5372442030
 Ga         1.7671586709       10.1637525223       16.4381076205
  N         3.2177064052        9.3264112874       17.5804420611
  N         9.6601247460        1.9097494583        2.5696117982
 Ga         9.6531776728        0.1725459667        3.2502860065
  N         9.6413482571        0.0437141319        5.2086782275
 Ga         9.6558628618        1.9065962043        5.8341845473
  N         9.6463317842        1.9018871508        7.8046273476
 Ga         9.6470377597        0.0356514292        8.3983008353
  N         9.6447344367        0.0321306952       10.3857047606
 Ga         9.6464487947        1.9030156865       10.9819768099
  N         9.6458280690        1.9021055557       12.9496651012
 Ga         9.6449760081        0.0332334916       13.5780036947
  N         9.6439918014        0.0621373311       15.5367199046
 Ga         9.6461595879        1.9014338549       15.8159792376
  N         7.9335735156        4.6225542989        2.4903598848
 Ga         8.1540566903        2.7690236876        3.2621395175
  N         8.0391605221        2.8268842990        5.2162001454
 Ga         8.0629324640        4.7008181930        5.7574057114
  N         8.0475308538        4.6935700725        7.7493094782
 Ga         8.0282359140        2.8358238402        8.3960113715
  N         8.0259359291        2.8370868416       10.3850940588
 Ga         8.0529659010        4.6961621389       11.0298877747
  N         8.0697266233        4.7065502214       13.0187750170
 Ga         8.0262147259        2.8370990452       13.5779698511
  N         8.0568809080        2.8189763309       15.5350794676
 Ga         7.8706316405        4.5918389201       16.4404621454
  N         6.3600111618        7.4347406517        2.4599261652
 Ga         6.4167631703        5.7122097305        3.2585252980
  N         6.4286704846        5.6187750359        5.2053525089
 Ga         6.4255215215        7.4699322525        5.8419410513
  N         6.4276700770        7.4716710337        7.8059071012
 Ga         6.4291317288        5.6011017993        8.4012162709
  N         6.4305092268        5.6032292872       10.3882221937
 Ga         6.4294240091        7.4728326154       10.9845916625
  N         6.4283384473        7.4735078587       12.9500536436
 Ga         6.4284412626        5.6038413761       13.5778601592
  N         6.4266206519        5.6382439948       15.5342882647
 Ga         6.4267284366        7.4737984017       15.8191815358
  N         4.7183361150       10.2000911518        2.4836744209
 Ga         4.9044089575        8.3480412332        3.2628013076
  N         4.8209034145        8.4010518665        5.2087831976
 Ga         4.8491946855       10.2768820771        5.7584974532
  N         4.8305064209       10.2640807594        7.7497226431
 Ga         4.8102190590        8.4096928592        8.4015663790
  N         4.8104922273        8.4088109079       10.3881425668
 Ga         4.8372500265       10.2680804163       11.0284761574
  N         4.8530866448       10.2772050039       13.0177886693
 Ga         4.8098370227        8.4081846852       13.5782612275
  N         4.8342663853        8.3932241703       15.5378301312
 Ga         4.6607878283       10.1659977646       16.4385812066
  O         0.0956467632        3.6890911633       -0.5658513623
  H        -0.0012221156        7.4752640761        1.6202972544
  C         0.1781446001        2.3917625752       -1.1749901742
  H         0.9981022678        1.7813801352       -0.7604705804
  H        -0.7594342522        1.8221940268       -1.0679499369
  H         0.3692606639        2.5426400530       -2.2479138437
 Ga         3.2115374066        5.6102548800        2.4360619477
  O         3.7523957130        6.0857067418        0.2327600133
  H         3.5632645259        5.3866605051       -0.4158452286
  C         5.1191871093        6.5940780391        0.0298178280
  H         5.0857872867        7.3939081052       -0.7237531484
  H         5.5830074470        6.9805799146        1.0135517498
  H         5.7668241208        5.7880831580       -0.3538483638
     212
 i =       34, E =     -8504.7004777446
  N         0.0040122083        2.0481201500        2.4540316891
 Ga        -0.0052101786        0.0964514768        2.8026263009
  N        -0.0069366192        0.0493422902        4.9646965781
 Ga         0.0035933473        1.8857854471        5.7407355736
  N        -0.0020809591        1.8905140248        7.7413151197
 Ga        -0.0022466747        0.0471390928        8.3942157193
  N        -0.0038614863        0.0447471404       10.3666373293
 Ga        -0.0042785587        1.8837741544       11.0263210030
  N        -0.0044215644        1.8641185063       13.0162686910
 Ga        -0.0041418599        0.0451602400       13.8314191361
  N        -0.0046175489        0.0443323191       16.0199842216
 Ga        -0.0044227055        2.0922029360       16.4389003190
 Ga        -0.0177337473        3.7116379348        1.2479896555
  N        -1.4707053349        4.6248127402        2.4383513627
 Ga        -1.6691196909        2.7914484948        3.2179406916
  N        -1.6129743769        2.8324040737        5.1978717600
 Ga        -1.6303290313        4.6976227863        5.7521915133
  N        -1.6200626712        4.6959124334        7.7453495301
 Ga        -1.5984607020        2.8358071293        8.3895820233
  N        -1.6009216245        2.8370360933       10.3809868649
 Ga        -1.6290269244        4.6948254575       11.0293806999
  N        -1.6452642218        4.7054266439       13.0181189472
 Ga        -1.6015722470        2.8358402553       13.5769526000
  N        -1.6327298436        2.8180423264       15.5340584433
 Ga        -1.4470677752        4.5909158558       16.4394162042
  N        -0.0100289987        3.7544973885       17.5677830702
  N        -3.2336874208        7.5834403353        2.4531950800
 Ga        -3.1848216033        5.5816138419        2.8058784439
  N        -3.2154340340        5.6108392275        4.9657065043
 Ga        -3.2382930632        7.4336335627        5.7478030930
  N        -3.2251807779        7.4623772140        7.7380507599
 Ga        -3.2192900579        5.6150490385        8.3987910830
  N        -3.2203537628        5.6160707859       10.3687984618
 Ga        -3.2222464849        7.4535133147       11.0297272640
  N        -3.2206997378        7.4348125504       13.0178285753
 Ga        -3.2205824416        5.6148973230       13.8331449257
  N        -3.2210271703        5.6150853684       16.0204909863
 Ga        -3.2210153657        7.6631169044       16.4400495154
 Ga        -3.2515497015        9.3484046876        1.3934572642
  N        -4.7433431906       10.1845065095        2.4631152886
 Ga        -4.9725180349        8.3184183623        3.1888172808
  N        -4.8444176173        8.3883520262        5.1610499214
 Ga        -4.8623397463       10.2644701194        5.7365873102
  N        -4.8402337183       10.2567559600        7.7340887930
 Ga        -4.8213001609        8.4070008628        8.3955729840
  N        -4.8177712010        8.4067626366       10.3827049785
 Ga        -4.8446019442       10.2668677519       11.0266204260
  N        -4.8606296971       10.2759817834       13.0159315155
 Ga        -4.8177558656        8.4072587513       13.5779179599
  N        -4.8490177029        8.3888339752       15.5347111960
 Ga        -4.6635285048       10.1616670156       16.4396170122
  N        -3.2268613112        9.3257367440       17.5692816036
  N         3.2057074001        1.9009132232        2.5565917707
 Ga         3.1928519756        0.1582942139        3.2317421365
  N         3.2077048574        0.0397950274        5.1938079249
 Ga         3.1995539382        1.9075595772        5.8198672503
  N         3.2094216668        1.8999203277        7.7946306423
 Ga         3.2060889076        0.0335998528        8.3865675746
  N         3.2097467184        0.0303571271       10.3769999102
 Ga         3.2105309373        1.8998193332       10.9808392830
  N         3.2121567382        1.9006949107       12.9473771225
 Ga         3.2116989703        0.0328631793       13.5773748011
  N         3.2132617928        0.0666837254       15.5335573204
 Ga         3.2130307776        1.9024518503       15.8183701965
  N         1.4938260408        4.6346889070        2.3563436041
 Ga         1.6861880877        2.8113176141        3.1977407030
  N         1.6075754112        2.8423964226        5.1802593871
 Ga         1.6561283927        4.7076438931        5.7607110982
  N         1.6075164632        4.6911016842        7.7616970496
 Ga         1.5927490438        2.8350726645        8.3940418051
  N         1.5921814228        2.8350432854       10.3842560433
 Ga         1.6196954008        4.6944567409       11.0274515508
  N         1.6358998286        4.7051519993       13.0171686927
 Ga         1.5937382079        2.8357929021       13.5762127719
  N         1.6235320186        2.8202259493       15.5328576143
 Ga         1.4324028376        4.5876506787       16.4408352132
  N        -0.0107440390        7.4675138237        2.6431608046
 Ga         0.0291948562        5.5981772661        3.2505991547
  N         0.0057955783        5.6268025127        5.1896402636
 Ga        -0.0060273596        7.4580784278        5.8591024362
  N        -0.0071267389        7.4706652916        7.8131883939
 Ga        -0.0037131138        5.5979334524        8.4057068454
  N        -0.0061413207        5.6026580938       10.3903763292
 Ga        -0.0067958114        7.4721600148       10.9859603061
  N        -0.0049054870        7.4729331888       12.9506366165
 Ga        -0.0039812204        5.6028841338       13.5773104720
  N        -0.0027910857        5.6372332221       15.5337141246
 Ga        -0.0031724892        7.4727232989       15.8188748279
  N        -1.7202626539       10.1848299725        2.4712220016
 Ga        -1.6118174348        8.3773812810        3.2794620409
  N        -1.6063782456        8.3888433946        5.2041138441
 Ga        -1.5931333218       10.2760618054        5.7613996200
  N        -1.6043591361       10.2597420931        7.7469010207
 Ga        -1.6285816714        8.4052845259        8.3983662075
  N        -1.6265979954        8.4062599461       10.3831484759
 Ga        -1.6007277156       10.2662521422       11.0268737307
  N        -1.5811901311       10.2757042816       13.0156121296
 Ga        -1.6232646300        8.4071999061       13.5783973380
  N        -1.5927185858        8.3910849826       15.5343328162
 Ga        -1.7842909432       10.1583871229       16.4418059344
  N         6.4342417683        2.0152208989        2.5031741545
 Ga         6.4229644064        0.0497516375        2.8429314336
  N         6.4250173784        0.0413661574        4.9792433584
 Ga         6.4242713969        1.8776986415        5.7626002152
  N         6.4277104251        1.8881480451        7.7527300382
 Ga         6.4254686617        0.0450924654        8.4053841977
  N         6.4260927856        0.0436914630       10.3730398387
 Ga         6.4270104335        1.8845069612       11.0274029326
  N         6.4280439834        1.8644968488       13.0168766566
 Ga         6.4269359748        0.0448111272       13.8291201614
  N         6.4256574681        0.0434327200       16.0212793867
 Ga         6.4275084221        2.0849936920       16.4373763495
 Ga         6.4559219179        3.7225041211        1.4716390313
  N         4.9398370588        4.5957154769        2.4658237362
 Ga         4.7053871424        2.7711382482        3.2557896273
  N         4.8189124219        2.8290313295        5.2099957153
 Ga         4.7757026036        4.7089556377        5.7633192460
  N         4.8170616221        4.6888636724        7.7635033801
 Ga         4.8269625392        2.8335162543        8.3955618142
  N         4.8299896435        2.8341520595       10.3848560195
 Ga         4.8039371148        4.6946918043       11.0261362624
  N         4.7881665375        4.7047260187       13.0167589319
 Ga         4.8302129656        2.8357882456       13.5761649563
  N         4.8055744127        2.8215389565       15.5362164103
 Ga         4.9786293698        4.5945116798       16.4373526833
  N         6.4218161078        3.7545296856       17.5801563429
  N         3.1917111964        7.6211662953        2.4771378808
  N         3.2172043618        5.6203049039        5.0384918420
 Ga         3.2163619337        7.4154077970        5.7733334883
  N         3.2102257978        7.4704102462        7.7666661842
 Ga         3.2121155980        5.6141544700        8.3999678030
  N         3.2116365737        5.6157579295       10.3735435477
 Ga         3.2119110790        7.4537387048       11.0288159890
  N         3.2116652233        7.4356925249       13.0183837227
 Ga         3.2117060147        5.6146434138       13.8284811212
  N         3.2100095687        5.6140088362       16.0215556925
 Ga         3.2116874783        7.6552582878       16.4377531034
 Ga         3.2270146312        9.3650330858        1.4311316530
  N         1.7009289512       10.1928424501        2.4839584311
 Ga         1.5756442355        8.3814076747        3.3014285062
  N         1.5897285722        8.3951697911        5.2199844841
 Ga         1.5773974668       10.2776797438        5.7716501632
  N         1.5924086249       10.2624626071        7.7554610882
 Ga         1.6137968173        8.4075281972        8.4074021105
  N         1.6125056300        8.4079609722       10.3909707929
 Ga         1.5878015242       10.2673843385       11.0305649333
  N         1.5715979137       10.2762942360       13.0187852225
 Ga         1.6143714404        8.4068769117       13.5780225284
  N         1.5893457732        8.3921457710       15.5376789422
 Ga         1.7626994972       10.1651875187       16.4377928949
  N         3.2061231941        9.3255876093       17.5804432314
  N         9.6608298475        1.9097860079        2.5688222093
 Ga         9.6532378087        0.1724331310        3.2499199241
  N         9.6408998591        0.0435952448        5.2077825441
 Ga         9.6555913603        1.9063896453        5.8340054776
  N         9.6454120026        1.9014560965        7.8038798087
 Ga         9.6459135009        0.0349071408        8.3969581701
  N         9.6434678371        0.0312480781       10.3843514897
 Ga         9.6442271083        1.9023114476       10.9804214124
  N         9.6433795145        1.9012335956       12.9483211333
 Ga         9.6447431963        0.0325236543       13.5771891880
  N         9.6445210739        0.0613051649       15.5361715635
 Ga         9.6423983737        1.9006971961       15.8156089247
  N         7.9335347958        4.6228944594        2.4900042272
 Ga         8.1547351468        2.7686940710        3.2623268744
  N         8.0389057174        2.8268142299        5.2156839719
 Ga         8.0626055223        4.7008867630        5.7567134311
  N         8.0465030217        4.6936370157        7.7480122685
 Ga         8.0269633383        2.8354874208        8.3939443330
  N         8.0241032449        2.8367349488       10.3827338600
 Ga         8.0518551464        4.6955316879       11.0279296056
  N         8.0687832369        4.7052769960       13.0168558250
 Ga         8.0252865866        2.8365484561       13.5765803054
  N         8.0504506272        2.8218888082       15.5356261874
 Ga         7.8725216351        4.5923103961       16.4373915132
  N         6.3582936936        7.4338267503        2.4569020208
 Ga         6.4153641447        5.7097938799        3.2596185517
  N         6.4277894568        5.6185631622        5.2040373450
 Ga         6.4244755083        7.4700078052        5.8405232883
  N         6.4263646387        7.4713848356        7.8042831274
 Ga         6.4283787985        5.6010387150        8.4008116505
  N         6.4293516755        5.6030431302       10.3877688337
 Ga         6.4277235115        7.4720965879       10.9848874618
  N         6.4274467678        7.4719034522       12.9514636808
 Ga         6.4283240072        5.6016283451       13.5767182037
  N         6.4283181101        5.6314438453       15.5357793363
 Ga         6.4261138672        7.4707800218       15.8148691622
  N         4.7182632677       10.1990532211        2.4820553244
 Ga         4.9006024315        8.3472152421        3.2626784988
  N         4.8194300487        8.4005761590        5.2067751268
 Ga         4.8486331882       10.2765783329        5.7577241783
  N         4.8297095940       10.2634487445        7.7484725311
 Ga         4.8093203820        8.4095924623        8.4017569785
  N         4.8095756520        8.4082611000       10.3881846669
 Ga         4.8362843168       10.2677106897       11.0279211451
  N         4.8522683303       10.2765770153       13.0168269128
 Ga         4.8087228381        8.4079204776       13.5773471701
  N         4.8343580731        8.3926387477       15.5362891146
 Ga         4.6568732661       10.1630256905       16.4373209387
  O         0.0607369255        3.6766687459       -0.5717358635
  H        -0.0032432899        7.4773552348        1.6169605263
  C         0.1410317659        2.3774364420       -1.1768212935
  H         0.9746251811        1.7753851046       -0.7777844455
  H        -0.7892685097        1.8004517598       -1.0478095689
  H         0.3080916791        2.5257611836       -2.2540886113
 Ga         3.2180597984        5.6130784956        2.3849520820
  O         3.8382421525        6.1238460289        0.2117822974
  H         3.6758148992        5.4380781006       -0.4574491875
  C         5.2114788728        6.6467672984        0.0543862024
  H         5.1880145444        7.4572770096       -0.6883679064
  H         5.6655327434        7.0233764661        1.0693518425
  H         5.8701736181        5.8503602474       -0.3318302634
     212
 i =       30, E =     -8504.6918047799
  N         0.0049259497        2.0491353859        2.4529580473
 Ga        -0.0045430849        0.0972150243        2.8026376359
  N        -0.0070269423        0.0495808666        4.9634931476
 Ga         0.0044641923        1.8866264439        5.7383955701
  N        -0.0016792508        1.8904332123        7.7393978632
 Ga        -0.0018832457        0.0473491668        8.3927595027
  N        -0.0036532410        0.0448151522       10.3654377880
 Ga        -0.0041677579        1.8836719797       11.0255252258
  N        -0.0043066728        1.8641732311       13.0156185776
 Ga        -0.0039002594        0.0452498904       13.8307857676
  N        -0.0045510067        0.0446264112       16.0191706276
 Ga        -0.0042120858        2.0922952811       16.4382776374
 Ga        -0.0185494294        3.7105095315        1.2435084960
  N        -1.4691636969        4.6251334726        2.4371639822
 Ga        -1.6683296740        2.7922244643        3.2164139631
  N        -1.6127407883        2.8324715022        5.1964834358
 Ga        -1.6290445661        4.6978574551        5.7500720505
  N        -1.6197233328        4.6959266704        7.7436173061
 Ga        -1.5979693705        2.8358085671        8.3879812282
  N        -1.6006950332        2.8369295969       10.3797879138
 Ga        -1.6289667673        4.6946188324       11.0285677241
  N        -1.6451284795        4.7053708587       13.0174380522
 Ga        -1.6014748814        2.8358186679       13.5761910657
  N        -1.6326203987        2.8181625169       15.5333776738
 Ga        -1.4468088696        4.5910464252       16.4387120502
  N        -0.0098559556        3.7546206876       17.5669910315
  N        -3.2357198187        7.5829741570        2.4512792797
 Ga        -3.1840459539        5.5815288180        2.8055478003
  N        -3.2151315143        5.6105806900        4.9646157268
 Ga        -3.2387343071        7.4336126963        5.7458417291
  N        -3.2253508908        7.4623098636        7.7363797224
 Ga        -3.2189021176        5.6148641246        8.3972857106
  N        -3.2201222692        5.6159005875       10.3675961817
 Ga        -3.2219956190        7.4534034768       11.0285487823
  N        -3.2204983196        7.4347399722       13.0167558939