     212
 i =       30, E =     -8504.6918047799
  N         0.0049259497        2.0491353859        2.4529580473
 Ga        -0.0045430849        0.0972150243        2.8026376359
  N        -0.0070269423        0.0495808666        4.9634931476
 Ga         0.0044641923        1.8866264439        5.7383955701
  N        -0.0016792508        1.8904332123        7.7393978632
 Ga        -0.0018832457        0.0473491668        8.3927595027
  N        -0.0036532410        0.0448151522       10.3654377880
 Ga        -0.0041677579        1.8836719797       11.0255252258
  N        -0.0043066728        1.8641732311       13.0156185776
 Ga        -0.0039002594        0.0452498904       13.8307857676
  N        -0.0045510067        0.0446264112       16.0191706276
 Ga        -0.0042120858        2.0922952811       16.4382776374
 Ga        -0.0185494294        3.7105095315        1.2435084960
  N        -1.4691636969        4.6251334726        2.4371639822
 Ga        -1.6683296740        2.7922244643        3.2164139631
  N        -1.6127407883        2.8324715022        5.1964834358
 Ga        -1.6290445661        4.6978574551        5.7500720505
  N        -1.6197233328        4.6959266704        7.7436173061
 Ga        -1.5979693705        2.8358085671        8.3879812282
  N        -1.6006950332        2.8369295969       10.3797879138
 Ga        -1.6289667673        4.6946188324       11.0285677241
  N        -1.6451284795        4.7053708587       13.0174380522
 Ga        -1.6014748814        2.8358186679       13.5761910657
  N        -1.6326203987        2.8181625169       15.5333776738
 Ga        -1.4468088696        4.5910464252       16.4387120502
  N        -0.0098559556        3.7546206876       17.5669910315
  N        -3.2357198187        7.5829741570        2.4512792797
 Ga        -3.1840459539        5.5815288180        2.8055478003
  N        -3.2151315143        5.6105806900        4.9646157268
 Ga        -3.2387343071        7.4336126963        5.7458417291
  N        -3.2253508908        7.4623098636        7.7363797224
 Ga        -3.2189021176        5.6148641246        8.3972857106
  N        -3.2201222692        5.6159005875       10.3675961817
 Ga        -3.2219956190        7.4534034768       11.0285487823
  N        -3.2204983196        7.4347399722       13.0167558939
 Ga        -3.2203528087        5.6149936463       13.8323575313
  N        -3.2206568032        5.6150746048       16.0196814826
 Ga        -3.2207688754        7.6631841669       16.4396374994
 Ga        -3.2512123653        9.3489526183        1.3892122260
  N        -4.7445824320       10.1833515303        2.4611764939
 Ga        -4.9738727312        8.3178180282        3.1851839190
  N        -4.8458939059        8.3875133180        5.1579574922
 Ga        -4.8623173462       10.2641538262        5.7342905268
  N        -4.8401908817       10.2565058597        7.7321606982
 Ga        -4.8210923738        8.4070707989        8.3945316518
  N        -4.8175744786        8.4067694174       10.3817975068
 Ga        -4.8443715140       10.2669874174       11.0254747079
  N        -4.8605098013       10.2761279185       13.0148974434
 Ga        -4.8174108695        8.4074227411       13.5771708028
  N        -4.8485651224        8.3890853975       15.5339809836
 Ga        -4.6634756471       10.1619459600       16.4392806451
  N        -3.2265795403        9.3259471130       17.5685244000
  N         3.2061684135        1.9004792031        2.5550693997
 Ga         3.1924082755        0.1577213165        3.2298670981
  N         3.2075075080        0.0398063784        5.1921086330
 Ga         3.1995996302        1.9082419825        5.8173851930
  N         3.2094470437        1.9000320298        7.7927023207
 Ga         3.2061388726        0.0336600723        8.3846569624
  N         3.2098961797        0.0303696723       10.3755497009
 Ga         3.2106512268        1.8995016006       10.9803975508
  N         3.2124078417        1.9006993240       12.9469690205
 Ga         3.2118707544        0.0328674200       13.5766673667
  N         3.2134949340        0.0665933356       15.5328406944
 Ga         3.2132679672        1.9024328520       15.8178618980
  N         1.4966669956        4.6367464354        2.3428912548
 Ga         1.6882022544        2.8143420197        3.1939364078
  N         1.6078684742        2.8438122871        5.1769457175
 Ga         1.6569053894        4.7080560020        5.7625343073
  N         1.6064349580        4.6902416606        7.7637400989
 Ga         1.5927568550        2.8345095317        8.3937658095
  N         1.5924131146        2.8345587747       10.3840374919
 Ga         1.6198702610        4.6942904157       11.0265039796
  N         1.6360855959        4.7051794701       13.0164985269
 Ga         1.5939399056        2.8358494444       13.5754245953
  N         1.6238020834        2.8203537739       15.5321973494
 Ga         1.4325856066        4.5878097008       16.4401426698
  N        -0.0115463812        7.4682646159        2.6415462863
 Ga         0.0332182573        5.5983680433        3.2464658359
  N         0.0071964844        5.6263537049        5.1861172344
 Ga        -0.0057560401        7.4574071915        5.8574180974
  N        -0.0069669898        7.4702696589        7.8118748440
 Ga        -0.0039890179        5.5977542118        8.4057967424
  N        -0.0062645970        5.6027198964       10.3904207303
 Ga        -0.0069510077        7.4721322373       10.9855879819
  N        -0.0048118823        7.4730050132       12.9502498051
 Ga        -0.0037912192        5.6028816870       13.5764619558
  N        -0.0026071075        5.6374091597       15.5329840829
 Ga        -0.0030745622        7.4729711016       15.8181961772
  N        -1.7206238844       10.1846399854        2.4699924924
 Ga        -1.6134262015        8.3772481353        3.2779674133
  N        -1.6065903316        8.3885876897        5.2028130356
 Ga        -1.5933073163       10.2760103863        5.7599518316
  N        -1.6041904792       10.2596891615        7.7455276181
 Ga        -1.6284709713        8.4050988391        8.3967963126
  N        -1.6264602266        8.4061808843       10.3819389539
 Ga        -1.6006672924       10.2662032696       11.0256199916
  N        -1.5810050601       10.2757533175       13.0145286887
 Ga        -1.6231919507        8.4072777016       13.5776412750
  N        -1.5927477542        8.3913310977       15.5335661006
 Ga        -1.7839050025       10.1586118188       16.4413153565
  N         6.4344984465        2.0153865378        2.5014482241
 Ga         6.4225059774        0.0498088153        2.8420968142
  N         6.4251186418        0.0413899217        4.9782630542
 Ga         6.4239924054        1.8778792744        5.7613729199
  N         6.4278314427        1.8879188967        7.7515735999
 Ga         6.4255481781        0.0450693698        8.4043695277
  N         6.4262368345        0.0436528667       10.3721145285
 Ga         6.4272342054        1.8843316101       11.0266559933
  N         6.4283100760        1.8645307175       13.0162281114
 Ga         6.4270489088        0.0448096391       13.8284546280
  N         6.4260204362        0.0435373907       16.0204482232
 Ga         6.4277254716        2.0846005040       16.4365356955
 Ga         6.4578319986        3.7212955541        1.4665725359
  N         4.9390340702        4.5944468065        2.4584301024
 Ga         4.7050978336        2.7724010891        3.2534197917
  N         4.8193736884        2.8296476079        5.2079267311
 Ga         4.7749681289        4.7087323312        5.7659058130
  N         4.8185147235        4.6879785326        7.7659580425
 Ga         4.8271744372        2.8327232975        8.3954051648
  N         4.8300754877        2.8336429104       10.3847011910
 Ga         4.8040066900        4.6945237228       11.0252762835
  N         4.7883154452        4.7047961797       13.0160802869
 Ga         4.8304567409        2.8359123921       13.5754763836
  N         4.8058783872        2.8217313323       15.5357287996
 Ga         4.9784399421        4.5948381282       16.4366271288
  N         6.4220581663        3.7545585528       17.5790976698
  N         3.1897638831        7.6207757031        2.4719426845
  N         3.2177103533        5.6208760538        5.0549169765
 Ga         3.2157781057        7.4149949128        5.7772406379
  N         3.2102735028        7.4718706024        7.7699797700
 Ga         3.2121522740        5.6138486048        8.3989458022
  N         3.2117923786        5.6156141720       10.3732138304
 Ga         3.2119593603        7.4535967953       11.0279983032
  N         3.2118366919        7.4356966050       13.0177474772
 Ga         3.2118680866        5.6147366655       13.8277385439
  N         3.2100902488        5.6142019121       16.0209517024
 Ga         3.2118466371        7.6556073065       16.4374165650
 Ga         3.2269502069        9.3663647413        1.4309889476
  N         1.7012330636       10.1925649771        2.4835217171
 Ga         1.5754667837        8.3798476145        3.3007948047
  N         1.5902067586        8.3952829589        5.2191951277
 Ga         1.5773183891       10.2775866318        5.7709162433
  N         1.5924629138       10.2625308008        7.7547379647
 Ga         1.6132561492        8.4079283771        8.4078037816
  N         1.6121961162        8.4081016657       10.3912470114
 Ga         1.5878408682       10.2675384099       11.0299967900
  N         1.5718026537       10.2764346902       13.0182534943
 Ga         1.6146008996        8.4069252459       13.5772781417
  N         1.5895606229        8.3922901316       15.5369932912
 Ga         1.7629819977       10.1653131213       16.4373313572
  N         3.2062536843        9.3258463496       17.5798636801
  N         9.6612220593        1.9102774307        2.5680301663
 Ga         9.6530895667        0.1732141062        3.2495999345
  N         9.6409984410        0.0437404129        5.2071688882
 Ga         9.6558694434        1.9068144426        5.8328733569
  N         9.6456955590        1.9014713087        7.8027653330
 Ga         9.6459740534        0.0349415673        8.3960661663
  N         9.6436133942        0.0312351232       10.3836110466
 Ga         9.6444599247        1.9023520913       10.9793751273
  N         9.6435060457        1.9013528495       12.9474274272
 Ga         9.6449550308        0.0327519625       13.5765102075
  N         9.6447108179        0.0615133309       15.5354511524
 Ga         9.6425693432        1.9008176418       15.8154012195
  N         7.9330802334        4.6233881775        2.4889159172
 Ga         8.1545274942        2.7689165410        3.2609952846
  N         8.0389319971        2.8268384319        5.2144926033
 Ga         8.0629421674        4.7007656277        5.7557012493
  N         8.0466539561        4.6936337729        7.7468898392
 Ga         8.0270505731        2.8352995565        8.3926871348
  N         8.0242579406        2.8366507559       10.3817442458
 Ga         8.0522986512        4.6953758503       11.0272276036
  N         8.0690970405        4.7052724439       13.0161782375
 Ga         8.0255328264        2.8365907360       13.5759318090
  N         8.0505706254        2.8221011547       15.5350998613
 Ga         7.8731239128        4.5925960373       16.4366095861
  N         6.3510076914        7.4306659840        2.4509250807
 Ga         6.4125020888        5.7049576525        3.2601428076
  N         6.4274210087        5.6186257315        5.2027477724
 Ga         6.4241193518        7.4697706887        5.8405658862
  N         6.4262656180        7.4711580550        7.8039209523
 Ga         6.4290059352        5.6007606786        8.4013546311
  N         6.4298504966        5.6031380705       10.3880432292
 Ga         6.4281581628        7.4721818720       10.9847531840
  N         6.4277179901        7.4719310599       12.9512702685
 Ga         6.4285299181        5.6015347826       13.5760261675
  N         6.4285607869        5.6313926882       15.5353090306
 Ga         6.4264157599        7.4709988432       15.8142111580
  N         4.7182205323       10.1984818667        2.4822002998
 Ga         4.8951190565        8.3471960382        3.2651564391
  N         4.8189885797        8.4004728579        5.2068427737
 Ga         4.8488025109       10.2771037189        5.7573693963
  N         4.8299765032       10.2635659033        7.7477698930
 Ga         4.8096432165        8.4101600582        8.4025261415
  N         4.8100914101        8.4084732813       10.3886550832
 Ga         4.8366016241       10.2680358692       11.0273616046
  N         4.8524997984       10.2768080915       13.0162708802
 Ga         4.8088436160        8.4080537779       13.5766041285
  N         4.8345103869        8.3928161534       15.5356180000
 Ga         4.6569382101       10.1631991250       16.4369490145
  O         0.0534578094        3.6705444938       -0.5761715723
  H        -0.0037861075        7.4795722230        1.6153848419
  C         0.1197028289        2.3690503937       -1.1782089208
  H         0.9592036995        1.7669365930       -0.7919707612
  H        -0.8091602717        1.7943222320       -1.0301486309
  H         0.2674745076        2.5133084158       -2.2587794460
 Ga         3.2225045747        5.6155893022        2.3359892220
  O         3.8710323382        6.1437919466        0.2155792461
  H         3.7260453356        5.4630613084       -0.4630084912
  C         5.2531551746        6.6739184903        0.0926566521
  H         5.2356369449        7.4823151757       -0.6523301958
  H         5.7148834677        7.0555220479        1.1394530990
  H         5.9151900684        5.8769447057       -0.2875775254
