     212
 i =       34, E =     -8504.7004777446
  N         0.0040122083        2.0481201500        2.4540316891
 Ga        -0.0052101786        0.0964514768        2.8026263009
  N        -0.0069366192        0.0493422902        4.9646965781
 Ga         0.0035933473        1.8857854471        5.7407355736
  N        -0.0020809591        1.8905140248        7.7413151197
 Ga        -0.0022466747        0.0471390928        8.3942157193
  N        -0.0038614863        0.0447471404       10.3666373293
 Ga        -0.0042785587        1.8837741544       11.0263210030
  N        -0.0044215644        1.8641185063       13.0162686910
 Ga        -0.0041418599        0.0451602400       13.8314191361
  N        -0.0046175489        0.0443323191       16.0199842216
 Ga        -0.0044227055        2.0922029360       16.4389003190
 Ga        -0.0177337473        3.7116379348        1.2479896555
  N        -1.4707053349        4.6248127402        2.4383513627
 Ga        -1.6691196909        2.7914484948        3.2179406916
  N        -1.6129743769        2.8324040737        5.1978717600
 Ga        -1.6303290313        4.6976227863        5.7521915133
  N        -1.6200626712        4.6959124334        7.7453495301
 Ga        -1.5984607020        2.8358071293        8.3895820233
  N        -1.6009216245        2.8370360933       10.3809868649
 Ga        -1.6290269244        4.6948254575       11.0293806999
  N        -1.6452642218        4.7054266439       13.0181189472
 Ga        -1.6015722470        2.8358402553       13.5769526000
  N        -1.6327298436        2.8180423264       15.5340584433
 Ga        -1.4470677752        4.5909158558       16.4394162042
  N        -0.0100289987        3.7544973885       17.5677830702
  N        -3.2336874208        7.5834403353        2.4531950800
 Ga        -3.1848216033        5.5816138419        2.8058784439
  N        -3.2154340340        5.6108392275        4.9657065043
 Ga        -3.2382930632        7.4336335627        5.7478030930
  N        -3.2251807779        7.4623772140        7.7380507599
 Ga        -3.2192900579        5.6150490385        8.3987910830
  N        -3.2203537628        5.6160707859       10.3687984618
 Ga        -3.2222464849        7.4535133147       11.0297272640
  N        -3.2206997378        7.4348125504       13.0178285753
 Ga        -3.2205824416        5.6148973230       13.8331449257
  N        -3.2210271703        5.6150853684       16.0204909863
 Ga        -3.2210153657        7.6631169044       16.4400495154
 Ga        -3.2515497015        9.3484046876        1.3934572642
  N        -4.7433431906       10.1845065095        2.4631152886
 Ga        -4.9725180349        8.3184183623        3.1888172808
  N        -4.8444176173        8.3883520262        5.1610499214
 Ga        -4.8623397463       10.2644701194        5.7365873102
  N        -4.8402337183       10.2567559600        7.7340887930
 Ga        -4.8213001609        8.4070008628        8.3955729840
  N        -4.8177712010        8.4067626366       10.3827049785
 Ga        -4.8446019442       10.2668677519       11.0266204260
  N        -4.8606296971       10.2759817834       13.0159315155
 Ga        -4.8177558656        8.4072587513       13.5779179599
  N        -4.8490177029        8.3888339752       15.5347111960
 Ga        -4.6635285048       10.1616670156       16.4396170122
  N        -3.2268613112        9.3257367440       17.5692816036
  N         3.2057074001        1.9009132232        2.5565917707
 Ga         3.1928519756        0.1582942139        3.2317421365
  N         3.2077048574        0.0397950274        5.1938079249
 Ga         3.1995539382        1.9075595772        5.8198672503
  N         3.2094216668        1.8999203277        7.7946306423
 Ga         3.2060889076        0.0335998528        8.3865675746
  N         3.2097467184        0.0303571271       10.3769999102
 Ga         3.2105309373        1.8998193332       10.9808392830
  N         3.2121567382        1.9006949107       12.9473771225
 Ga         3.2116989703        0.0328631793       13.5773748011
  N         3.2132617928        0.0666837254       15.5335573204
 Ga         3.2130307776        1.9024518503       15.8183701965
  N         1.4938260408        4.6346889070        2.3563436041
 Ga         1.6861880877        2.8113176141        3.1977407030
  N         1.6075754112        2.8423964226        5.1802593871
 Ga         1.6561283927        4.7076438931        5.7607110982
  N         1.6075164632        4.6911016842        7.7616970496
 Ga         1.5927490438        2.8350726645        8.3940418051
  N         1.5921814228        2.8350432854       10.3842560433
 Ga         1.6196954008        4.6944567409       11.0274515508
  N         1.6358998286        4.7051519993       13.0171686927
 Ga         1.5937382079        2.8357929021       13.5762127719
  N         1.6235320186        2.8202259493       15.5328576143
 Ga         1.4324028376        4.5876506787       16.4408352132
  N        -0.0107440390        7.4675138237        2.6431608046
 Ga         0.0291948562        5.5981772661        3.2505991547
  N         0.0057955783        5.6268025127        5.1896402636
 Ga        -0.0060273596        7.4580784278        5.8591024362
  N        -0.0071267389        7.4706652916        7.8131883939
 Ga        -0.0037131138        5.5979334524        8.4057068454
  N        -0.0061413207        5.6026580938       10.3903763292
 Ga        -0.0067958114        7.4721600148       10.9859603061
  N        -0.0049054870        7.4729331888       12.9506366165
 Ga        -0.0039812204        5.6028841338       13.5773104720
  N        -0.0027910857        5.6372332221       15.5337141246
 Ga        -0.0031724892        7.4727232989       15.8188748279
  N        -1.7202626539       10.1848299725        2.4712220016
 Ga        -1.6118174348        8.3773812810        3.2794620409
  N        -1.6063782456        8.3888433946        5.2041138441
 Ga        -1.5931333218       10.2760618054        5.7613996200
  N        -1.6043591361       10.2597420931        7.7469010207
 Ga        -1.6285816714        8.4052845259        8.3983662075
  N        -1.6265979954        8.4062599461       10.3831484759
 Ga        -1.6007277156       10.2662521422       11.0268737307
  N        -1.5811901311       10.2757042816       13.0156121296
 Ga        -1.6232646300        8.4071999061       13.5783973380
  N        -1.5927185858        8.3910849826       15.5343328162
 Ga        -1.7842909432       10.1583871229       16.4418059344
  N         6.4342417683        2.0152208989        2.5031741545
 Ga         6.4229644064        0.0497516375        2.8429314336
  N         6.4250173784        0.0413661574        4.9792433584
 Ga         6.4242713969        1.8776986415        5.7626002152
  N         6.4277104251        1.8881480451        7.7527300382
 Ga         6.4254686617        0.0450924654        8.4053841977
  N         6.4260927856        0.0436914630       10.3730398387
 Ga         6.4270104335        1.8845069612       11.0274029326
  N         6.4280439834        1.8644968488       13.0168766566
 Ga         6.4269359748        0.0448111272       13.8291201614
  N         6.4256574681        0.0434327200       16.0212793867
 Ga         6.4275084221        2.0849936920       16.4373763495
 Ga         6.4559219179        3.7225041211        1.4716390313
  N         4.9398370588        4.5957154769        2.4658237362
 Ga         4.7053871424        2.7711382482        3.2557896273
  N         4.8189124219        2.8290313295        5.2099957153
 Ga         4.7757026036        4.7089556377        5.7633192460
  N         4.8170616221        4.6888636724        7.7635033801
 Ga         4.8269625392        2.8335162543        8.3955618142
  N         4.8299896435        2.8341520595       10.3848560195
 Ga         4.8039371148        4.6946918043       11.0261362624
  N         4.7881665375        4.7047260187       13.0167589319
 Ga         4.8302129656        2.8357882456       13.5761649563
  N         4.8055744127        2.8215389565       15.5362164103
 Ga         4.9786293698        4.5945116798       16.4373526833
  N         6.4218161078        3.7545296856       17.5801563429
  N         3.1917111964        7.6211662953        2.4771378808
  N         3.2172043618        5.6203049039        5.0384918420
 Ga         3.2163619337        7.4154077970        5.7733334883
  N         3.2102257978        7.4704102462        7.7666661842
 Ga         3.2121155980        5.6141544700        8.3999678030
  N         3.2116365737        5.6157579295       10.3735435477
 Ga         3.2119110790        7.4537387048       11.0288159890
  N         3.2116652233        7.4356925249       13.0183837227
 Ga         3.2117060147        5.6146434138       13.8284811212
  N         3.2100095687        5.6140088362       16.0215556925
 Ga         3.2116874783        7.6552582878       16.4377531034
 Ga         3.2270146312        9.3650330858        1.4311316530
  N         1.7009289512       10.1928424501        2.4839584311
 Ga         1.5756442355        8.3814076747        3.3014285062
  N         1.5897285722        8.3951697911        5.2199844841
 Ga         1.5773974668       10.2776797438        5.7716501632
  N         1.5924086249       10.2624626071        7.7554610882
 Ga         1.6137968173        8.4075281972        8.4074021105
  N         1.6125056300        8.4079609722       10.3909707929
 Ga         1.5878015242       10.2673843385       11.0305649333
  N         1.5715979137       10.2762942360       13.0187852225
 Ga         1.6143714404        8.4068769117       13.5780225284
  N         1.5893457732        8.3921457710       15.5376789422
 Ga         1.7626994972       10.1651875187       16.4377928949
  N         3.2061231941        9.3255876093       17.5804432314
  N         9.6608298475        1.9097860079        2.5688222093
 Ga         9.6532378087        0.1724331310        3.2499199241
  N         9.6408998591        0.0435952448        5.2077825441
 Ga         9.6555913603        1.9063896453        5.8340054776
  N         9.6454120026        1.9014560965        7.8038798087
 Ga         9.6459135009        0.0349071408        8.3969581701
  N         9.6434678371        0.0312480781       10.3843514897
 Ga         9.6442271083        1.9023114476       10.9804214124
  N         9.6433795145        1.9012335956       12.9483211333
 Ga         9.6447431963        0.0325236543       13.5771891880
  N         9.6445210739        0.0613051649       15.5361715635
 Ga         9.6423983737        1.9006971961       15.8156089247
  N         7.9335347958        4.6228944594        2.4900042272
 Ga         8.1547351468        2.7686940710        3.2623268744
  N         8.0389057174        2.8268142299        5.2156839719
 Ga         8.0626055223        4.7008867630        5.7567134311
  N         8.0465030217        4.6936370157        7.7480122685
 Ga         8.0269633383        2.8354874208        8.3939443330
  N         8.0241032449        2.8367349488       10.3827338600
 Ga         8.0518551464        4.6955316879       11.0279296056
  N         8.0687832369        4.7052769960       13.0168558250
 Ga         8.0252865866        2.8365484561       13.5765803054
  N         8.0504506272        2.8218888082       15.5356261874
 Ga         7.8725216351        4.5923103961       16.4373915132
  N         6.3582936936        7.4338267503        2.4569020208
 Ga         6.4153641447        5.7097938799        3.2596185517
  N         6.4277894568        5.6185631622        5.2040373450
 Ga         6.4244755083        7.4700078052        5.8405232883
  N         6.4263646387        7.4713848356        7.8042831274
 Ga         6.4283787985        5.6010387150        8.4008116505
  N         6.4293516755        5.6030431302       10.3877688337
 Ga         6.4277235115        7.4720965879       10.9848874618
  N         6.4274467678        7.4719034522       12.9514636808
 Ga         6.4283240072        5.6016283451       13.5767182037
  N         6.4283181101        5.6314438453       15.5357793363
 Ga         6.4261138672        7.4707800218       15.8148691622
  N         4.7182632677       10.1990532211        2.4820553244
 Ga         4.9006024315        8.3472152421        3.2626784988
  N         4.8194300487        8.4005761590        5.2067751268
 Ga         4.8486331882       10.2765783329        5.7577241783
  N         4.8297095940       10.2634487445        7.7484725311
 Ga         4.8093203820        8.4095924623        8.4017569785
  N         4.8095756520        8.4082611000       10.3881846669
 Ga         4.8362843168       10.2677106897       11.0279211451
  N         4.8522683303       10.2765770153       13.0168269128
 Ga         4.8087228381        8.4079204776       13.5773471701
  N         4.8343580731        8.3926387477       15.5362891146
 Ga         4.6568732661       10.1630256905       16.4373209387
  O         0.0607369255        3.6766687459       -0.5717358635
  H        -0.0032432899        7.4773552348        1.6169605263
  C         0.1410317659        2.3774364420       -1.1768212935
  H         0.9746251811        1.7753851046       -0.7777844455
  H        -0.7892685097        1.8004517598       -1.0478095689
  H         0.3080916791        2.5257611836       -2.2540886113
 Ga         3.2180597984        5.6130784956        2.3849520820
  O         3.8382421525        6.1238460289        0.2117822974
  H         3.6758148992        5.4380781006       -0.4574491875
  C         5.2114788728        6.6467672984        0.0543862024
  H         5.1880145444        7.4572770096       -0.6883679064
  H         5.6655327434        7.0233764661        1.0693518425
  H         5.8701736181        5.8503602474       -0.3318302634
