 DBCSR| Multiplication driver                                               BLAS
 DBCSR| Multrec recursion limit                                              512
 DBCSR| Multiplication stack size                                           1000
 DBCSR| Maximum elements for images                                    UNLIMITED
 DBCSR| Multiplicative factor virtual images                                   1
 DBCSR| Multiplication size stacks                                             3
 DBCSR| Number of 3D layers                                               SINGLE
 DBCSR| Use MPI memory allocation                                              T
 DBCSR| Use RMA algorithm                                                      F
 DBCSR| Use Communication thread                                               T
 DBCSR| Communication thread load                                             87


  **** **** ******  **  PROGRAM STARTED AT               2019-07-14 18:38:01.761
 ***** ** ***  *** **   PROGRAM STARTED ON        blg9214.int.ets1.calculquebec.
 **    ****   ******    PROGRAM STARTED BY                                   rzk
 ***** **    ** ** **   PROGRAM PROCESS ID                                208956
  **** **  *******  **  PROGRAM STARTED IN /lustre04/scratch/rzk/rzk/GaN-carbene
                                           /443-adatoms-both-2x2/09-BondBreaking
                                           -CH/03-0501-CH-to-Nsur-PES/Phase02

 CP2K| version string:                    CP2K version 7.0 (Development Version)
 CP2K| source code revision number:                                    svn:18619
 CP2K| cp2kflags: libint fftw3 libxc parallel mpi3 scalapack mkl                
 CP2K| is freely available from                            https://www.cp2k.org/
 CP2K| Program compiled at                          Sun Apr  7 00:48:11 EDT 2019
 CP2K| Program compiled on                      beluga2.int.ets1.calculquebec.ca
 CP2K| Program compiled for                    Beluga-Linux-x86-64-intel-openmpi
 CP2K| Data directory path    /home/rzk/projects/def-rzk/group/cp2k/cp2k-mcgill/
 CP2K| Input file name                                            TEST-1.restart
 
 GLOBAL| Force Environment number                                              1
 GLOBAL| Basis set file name                                        BASIS_MOLOPT
 GLOBAL| Potential file name                                      GTH_POTENTIALS
 GLOBAL| MM Potential file name                                     MM_POTENTIAL
 GLOBAL| Coordinate file name                                      __STD_INPUT__
 GLOBAL| Method name                                                        CP2K
 GLOBAL| Project name                                                       TEST
 GLOBAL| Preferred FFT library                                             FFTW3
 GLOBAL| Preferred diagonalization lib.                                       SL
 GLOBAL| Run type                                                        GEO_OPT
 GLOBAL| All-to-all communication in single precision                          F
 GLOBAL| FFTs using library dependent lengths                                  F
 GLOBAL| Global print level                                               MEDIUM
 GLOBAL| MPI I/O enabled                                                       T
 GLOBAL| Total number of message passing processes                            80
 GLOBAL| Number of threads for this process                                    1
 GLOBAL| This output is from process                                           0
 GLOBAL| CPU model name :  Intel(R) Xeon(R) Gold 6148 CPU @ 2.40GHz

 MEMORY| system memory details [Kb]
 MEMORY|                        rank 0           min           max       average
 MEMORY| MemTotal            196614300     196614300     196614300     196614300
 MEMORY| MemFree             182580188     182573180     182733412     182639494
 MEMORY| Buffers                     0             0             0             0
 MEMORY| Cached                1400364       1282340       1400364       1341352
 MEMORY| Slab                  1289716       1139536       1289716       1214626
 MEMORY| SReclaimable           211168        205712        211168        208440
 MEMORY| MemLikelyFree       184191720     184125740     184221464     184189286


 *** Fundamental physical constants (SI units) ***

 *** Literature: B. J. Mohr and B. N. Taylor,
 ***             CODATA recommended values of the fundamental physical
 ***             constants: 2006, Web Version 5.1
 ***             http://physics.nist.gov/constants

 Speed of light in vacuum [m/s]                             2.99792458000000E+08
 Magnetic constant or permeability of vacuum [N/A**2]       1.25663706143592E-06
 Electric constant or permittivity of vacuum [F/m]          8.85418781762039E-12
 Planck constant (h) [J*s]                                  6.62606896000000E-34
 Planck constant (h-bar) [J*s]                              1.05457162825177E-34
 Elementary charge [C]                                      1.60217648700000E-19
 Electron mass [kg]                                         9.10938215000000E-31
 Electron g factor [ ]                                     -2.00231930436220E+00
 Proton mass [kg]                                           1.67262163700000E-27
 Fine-structure constant                                    7.29735253760000E-03
 Rydberg constant [1/m]                                     1.09737315685270E+07
 Avogadro constant [1/mol]                                  6.02214179000000E+23
 Boltzmann constant [J/K]                                   1.38065040000000E-23
 Atomic mass unit [kg]                                      1.66053878200000E-27
 Bohr radius [m]                                            5.29177208590000E-11

 *** Conversion factors ***

 [u] -> [a.u.]                                              1.82288848426455E+03
 [Angstrom] -> [Bohr] = [a.u.]                              1.88972613288564E+00
 [a.u.] = [Bohr] -> [Angstrom]                              5.29177208590000E-01
 [a.u.] -> [s]                                              2.41888432650478E-17
 [a.u.] -> [fs]                                             2.41888432650478E-02
 [a.u.] -> [J]                                              4.35974393937059E-18
 [a.u.] -> [N]                                              8.23872205491840E-08
 [a.u.] -> [K]                                              3.15774647902944E+05
 [a.u.] -> [kJ/mol]                                         2.62549961709828E+03
 [a.u.] -> [kcal/mol]                                       6.27509468713739E+02
 [a.u.] -> [Pa]                                             2.94210107994716E+13
 [a.u.] -> [bar]                                            2.94210107994716E+08
 [a.u.] -> [atm]                                            2.90362800883016E+08
 [a.u.] -> [eV]                                             2.72113838565563E+01
 [a.u.] -> [Hz]                                             6.57968392072181E+15
 [a.u.] -> [1/cm] (wave numbers)                            2.19474631370540E+05
 [a.u./Bohr**2] -> [1/cm]                                   5.14048714338585E+03
 
          ----------------------------------------------------------------------
 COLVARS| COLVAR INPUT INDEX:        1
 COLVARS| BOND          >>> ATOMS:                                   176     211
          ----------------------------------------------------------------------

 CELL_TOP| Volume [angstrom^3]:                                         4586.323
 CELL_TOP| Vector a [angstrom    12.864     0.000     0.000    |a| =      12.864
 CELL_TOP| Vector b [angstrom    -6.432    11.141     0.000    |b| =      12.864
 CELL_TOP| Vector c [angstrom     0.000     0.000    32.000    |c| =      32.000
 CELL_TOP| Angle (b,c), alpha [degree]:                                   90.000
 CELL_TOP| Angle (a,c), beta  [degree]:                                   90.000
 CELL_TOP| Angle (a,b), gamma [degree]:                                  120.000
 CELL_TOP| Numerically orthorhombic:                                          NO
 RESTRAINT| Active restraint on COLLECTIVE section Nr.     1. K [a.u.]= 2.000000
 
 GENERATE|  Preliminary Number of Bonds generated:                             0
 GENERATE|  Achieved consistency in connectivity generation.

 CELL| Volume [angstrom^3]:                                             4586.323
 CELL| Vector a [angstrom]:      12.864     0.000     0.000    |a| =      12.864
 CELL| Vector b [angstrom]:      -6.432    11.141     0.000    |b| =      12.864
 CELL| Vector c [angstrom]:       0.000     0.000    32.000    |c| =      32.000
 CELL| Angle (b,c), alpha [degree]:                                       90.000
 CELL| Angle (a,c), beta  [degree]:                                       90.000
 CELL| Angle (a,b), gamma [degree]:                                      120.000
 CELL| Numerically orthorhombic:                                              NO

 CELL_REF| Volume [angstrom^3]:                                         4670.759
 CELL_REF| Vector a [angstrom    12.982     0.000     0.000    |a| =      12.982
 CELL_REF| Vector b [angstrom    -6.491    11.243     0.000    |b| =      12.982
 CELL_REF| Vector c [angstrom     0.000     0.000    32.000    |c| =      32.000
 CELL_REF| Angle (b,c), alpha [degree]:                                   90.000
 CELL_REF| Angle (a,c), beta  [degree]:                                   90.000
 CELL_REF| Angle (a,b), gamma [degree]:                                  120.000
 CELL_REF| Numerically orthorhombic:                                          NO

 *******************************************************************************
 *******************************************************************************
 **                                                                           **
 **     #####                         ##              ##                      **
 **    ##   ##            ##          ##              ##                      **
 **   ##     ##                       ##            ######                    **
 **   ##     ##  ##   ##  ##   #####  ##  ##   ####   ##    #####    #####    **
 **   ##     ##  ##   ##  ##  ##      ## ##   ##      ##   ##   ##  ##   ##   **
 **   ##  ## ##  ##   ##  ##  ##      ####     ###    ##   ######   ######    **
 **    ##  ###   ##   ##  ##  ##      ## ##      ##   ##   ##       ##        **
 **     #######   #####   ##   #####  ##  ##  ####    ##    #####   ##        **
 **           ##                                                    ##        **
 **                                                                           **
 **                                                ... make the atoms dance   **
 **                                                                           **
 **            Copyright (C) by CP2K developers group (2000 - 2018)           **
 **                                                                           **
 *******************************************************************************

 DFT| Spin unrestricted (spin-polarized) Kohn-Sham calculation               UKS
 DFT| Multiplicity                                                             1
 DFT| Number of spin states                                                    2
 DFT| Charge                                                                   0
 DFT| Self-interaction correction (SIC)                                       NO
 DFT| Cutoffs: density                                              1.000000E-10
 DFT|          gradient                                             1.000000E-10
 DFT|          tau                                                  1.000000E-10
 DFT|          cutoff_smoothing_range                               0.000000E+00
 DFT| XC density smoothing                                                  NONE
 DFT| XC derivatives                                                          PW
 FUNCTIONAL| ROUTINE=NEW
 FUNCTIONAL| PBE:
 FUNCTIONAL| J.P.Perdew, K.Burke, M.Ernzerhof, Phys. Rev. Letter, vol. 77, n 18,
 FUNCTIONAL|  pp. 3865-3868, (1996){spin polarized}                             
 vdW POTENTIAL|                                                   Pair Potential
 vdW POTENTIAL|          DFT-D3 (Version 3.1)
 vdW POTENTIAL|          Potential Form: S. Grimme et al, JCP 132: 154104 (2010)
 vdW POTENTIAL|          Zero Damping
 vdW POTENTIAL|          Cutoff Radius [Bohr]:                             18.90
 vdW POTENTIAL|          s6 Scaling Factor:                               1.0000
 vdW POTENTIAL|          sr6 Scaling Factor:                              1.2170
 vdW POTENTIAL|          s8 Scaling Factor:                               0.7220
 vdW POTENTIAL|          Cutoff for CN calculation:                   0.1000E-05

 QS| Method:                                                                 GPW
 QS| Density plane wave grid type                        NON-SPHERICAL FULLSPACE
 QS| Number of grid levels:                                                    5
 QS| Density cutoff [a.u.]:                                                600.0
 QS| Multi grid cutoff [a.u.]: 1) grid level                               600.0
 QS|                           2) grid level                               200.0
 QS|                           3) grid level                                66.7
 QS|                           4) grid level                                22.2
 QS|                           5) grid level                                 7.4
 QS| Grid level progression factor:                                          3.0
 QS| Relative density cutoff [a.u.]:                                        20.0
 QS| Consistent realspace mapping and integration 
 QS| Interaction thresholds: eps_pgf_orb:                                1.0E-07
 QS|                         eps_filter_matrix:                          0.0E+00
 QS|                         eps_core_charge:                            1.0E-16
 QS|                         eps_rho_gspace:                             1.0E-14
 QS|                         eps_rho_rspace:                             1.0E-14
 QS|                         eps_gvg_rspace:                             1.0E-07
 QS|                         eps_ppl:                                    1.0E-02
 QS|                         eps_ppnl:                                   1.0E-09


 ATOMIC KIND INFORMATION

  1. Atomic kind: N                                     Number of atoms:     100

     Orbital Basis Set                                        DZVP-MOLOPT-SR-GTH

       Number of orbital shell sets:                                           1
       Number of orbital shells:                                               5
       Number of primitive Cartesian functions:                                5
       Number of Cartesian basis functions:                                   14
       Number of spherical basis functions:                                   13
       Norm type:                                                              2

       Normalised Cartesian orbitals:

                        Set   Shell   Orbital            Exponent    Coefficient

                          1       1    2s                7.341988       0.360561
                                                         2.542637       0.139177
                                                         0.888575      -0.289383
                                                         0.333802      -0.182244
                                                         0.112012      -0.019197

                          1       2    3s                7.341988       0.282000
                                                         2.542637       0.177875
                                                         0.888575      -0.278381
                                                         0.333802       0.008577
                                                         0.112012       0.154176

                          1       3    3px               7.341988      -1.188719
                                                         2.542637      -0.973969
                                                         0.888575      -0.501079
                                                         0.333802      -0.144894
                                                         0.112012      -0.013986
                          1       3    3py               7.341988      -1.188719
                                                         2.542637      -0.973969
                                                         0.888575      -0.501079
                                                         0.333802      -0.144894
                                                         0.112012      -0.013986
                          1       3    3pz               7.341988      -1.188719
                                                         2.542637      -0.973969
                                                         0.888575      -0.501079
                                                         0.333802      -0.144894
                                                         0.112012      -0.013986

                          1       4    4px               7.341988      -0.094798
                                                         2.542637       0.050069
                                                         0.888575      -0.114797
                                                         0.333802       0.144793
                                                         0.112012       0.066710
                          1       4    4py               7.341988      -0.094798
                                                         2.542637       0.050069
                                                         0.888575      -0.114797
                                                         0.333802       0.144793
                                                         0.112012       0.066710
                          1       4    4pz               7.341988      -0.094798
                                                         2.542637       0.050069
                                                         0.888575      -0.114797
                                                         0.333802       0.144793
                                                         0.112012       0.066710

                          1       5    4dx2              7.341988       1.354688
                                                         2.542637       0.690378
                                                         0.888575       0.855359
                                                         0.333802       0.091746
                                                         0.112012       0.001253
                          1       5    4dxy              7.341988       2.346389
                                                         2.542637       1.195770
                                                         0.888575       1.481524
                                                         0.333802       0.158910
                                                         0.112012       0.002169
                          1       5    4dxz              7.341988       2.346389
                                                         2.542637       1.195770
                                                         0.888575       1.481524
                                                         0.333802       0.158910
                                                         0.112012       0.002169
                          1       5    4dy2              7.341988       1.354688
                                                         2.542637       0.690378
                                                         0.888575       0.855359
                                                         0.333802       0.091746
                                                         0.112012       0.001253
                          1       5    4dyz              7.341988       2.346389
                                                         2.542637       1.195770
                                                         0.888575       1.481524
                                                         0.333802       0.158910
                                                         0.112012       0.002169
                          1       5    4dz2              7.341988       1.354688
                                                         2.542637       0.690378
                                                         0.888575       0.855359
                                                         0.333802       0.091746
                                                         0.112012       0.001253

     GTH Potential information for                                    GTH-PBE-q5

       Description:                       Goedecker-Teter-Hutter pseudopotential
                                           Goedecker et al., PRB 54, 1703 (1996)
                                          Hartwigsen et al., PRB 58, 3641 (1998)
                                                      Krack, TCA 114, 145 (2005)

       Gaussian exponent of the core charge distribution:               6.208322
       Electronic configuration (s p d ...):                               2   3

       Parameters of the local part of the GTH pseudopotential:

                          rloc        C1          C2          C3          C4
                        0.283791  -12.415226    1.868096

       Parameters of the non-local part of the GTH pseudopotential:

                   l      r(l)      h(i,j,l)

                   0    0.255405   13.630263
                   1    0.245495

  2. Atomic kind: Ga                                    Number of atoms:     100

     Orbital Basis Set                                        DZVP-MOLOPT-SR-GTH

       Number of orbital shell sets:                                           1
       Number of orbital shells:                                               7
       Number of primitive Cartesian functions:                                6
       Number of Cartesian basis functions:                                   30
       Number of spherical basis functions:                                   25
       Norm type:                                                              2

       Normalised Cartesian orbitals:

                        Set   Shell   Orbital            Exponent    Coefficient

                          1       1    2s                7.066654       0.013136
                                                         3.428369      -0.094392
                                                         1.430064       0.265435
                                                         0.571611       0.056465
                                                         0.232197      -0.192187
                                                         0.076562      -0.044987

                          1       2    3s                7.066654      -0.098564
                                                         3.428369       0.010390
                                                         1.430064       0.351249
                                                         0.571611       0.182615
                                                         0.232197      -0.425358
                                                         0.076562       0.190349

                          1       3    3px               7.066654       0.002364
                                                         3.428369       0.019222
                                                         1.430064       0.250132
                                                         0.571611      -0.058486
                                                         0.232197      -0.159451
                                                         0.076562      -0.020696
                          1       3    3py               7.066654       0.002364
                                                         3.428369       0.019222
                                                         1.430064       0.250132
                                                         0.571611      -0.058486
                                                         0.232197      -0.159451
                                                         0.076562      -0.020696
                          1       3    3pz               7.066654       0.002364
                                                         3.428369       0.019222
                                                         1.430064       0.250132
                                                         0.571611      -0.058486
                                                         0.232197      -0.159451
                                                         0.076562      -0.020696

                          1       4    4px               7.066654       0.492448
                                                         3.428369      -0.614736
                                                         1.430064      -0.191654
                                                         0.571611       0.037801
                                                         0.232197       0.302315
                                                         0.076562      -0.071336
                          1       4    4py               7.066654       0.492448
                                                         3.428369      -0.614736
                                                         1.430064      -0.191654
                                                         0.571611       0.037801
                                                         0.232197       0.302315
                                                         0.076562      -0.071336
                          1       4    4pz               7.066654       0.492448
                                                         3.428369      -0.614736
                                                         1.430064      -0.191654
                                                         0.571611       0.037801
                                                         0.232197       0.302315
                                                         0.076562      -0.071336

                          1       5    4dx2              7.066654     -15.264855
                                                         3.428369      -5.345726
                                                         1.430064      -1.022732
                                                         0.571611      -0.123148
                                                         0.232197      -0.006983
                                                         0.076562      -0.000022
                          1       5    4dxy              7.066654     -26.439504
                                                         3.428369      -9.259069
                                                         1.430064      -1.771423
                                                         0.571611      -0.213299
                                                         0.232197      -0.012094
                                                         0.076562      -0.000037
                          1       5    4dxz              7.066654     -26.439504
                                                         3.428369      -9.259069
                                                         1.430064      -1.771423
                                                         0.571611      -0.213299
                                                         0.232197      -0.012094
                                                         0.076562      -0.000037
                          1       5    4dy2              7.066654     -15.264855
                                                         3.428369      -5.345726
                                                         1.430064      -1.022732
                                                         0.571611      -0.123148
                                                         0.232197      -0.006983
                                                         0.076562      -0.000022
                          1       5    4dyz              7.066654     -26.439504
                                                         3.428369      -9.259069
                                                         1.430064      -1.771423
                                                         0.571611      -0.213299
                                                         0.232197      -0.012094
                                                         0.076562      -0.000037
                          1       5    4dz2              7.066654     -15.264855
                                                         3.428369      -5.345726
                                                         1.430064      -1.022732
                                                         0.571611      -0.123148
                                                         0.232197      -0.006983
                                                         0.076562      -0.000022

                          1       6    5dx2              7.066654      -5.739265
                                                         3.428369      -2.129289
                                                         1.430064      -0.700423
                                                         0.571611       0.161606
                                                         0.232197       0.043513
                                                         0.076562       0.011205
                          1       6    5dxy              7.066654      -9.940698
                                                         3.428369      -3.688037
                                                         1.430064      -1.213168
                                                         0.571611       0.279909
                                                         0.232197       0.075368
                                                         0.076562       0.019407
                          1       6    5dxz              7.066654      -9.940698
                                                         3.428369      -3.688037
                                                         1.430064      -1.213168
                                                         0.571611       0.279909
                                                         0.232197       0.075368
                                                         0.076562       0.019407
                          1       6    5dy2              7.066654      -5.739265
                                                         3.428369      -2.129289
                                                         1.430064      -0.700423
                                                         0.571611       0.161606
                                                         0.232197       0.043513
                                                         0.076562       0.011205
                          1       6    5dyz              7.066654      -9.940698
                                                         3.428369      -3.688037
                                                         1.430064      -1.213168
                                                         0.571611       0.279909
                                                         0.232197       0.075368
                                                         0.076562       0.019407
                          1       6    5dz2              7.066654      -5.739265
                                                         3.428369      -2.129289
                                                         1.430064      -0.700423
                                                         0.571611       0.161606
                                                         0.232197       0.043513
                                                         0.076562       0.011205

                          1       7    5fx3              7.066654       0.705879
                                                         3.428369      -0.273976
                                                         1.430064       0.113667
                                                         0.571611       0.132480
                                                         0.232197       0.012437
                                                         0.076562       0.003241
                          1       7    5fx2y             7.066654       1.578393
                                                         3.428369      -0.612629
                                                         1.430064       0.254167
                                                         0.571611       0.296234
                                                         0.232197       0.027811
                                                         0.076562       0.007246
                          1       7    5fx2z             7.066654       1.578393
                                                         3.428369      -0.612629
                                                         1.430064       0.254167
                                                         0.571611       0.296234
                                                         0.232197       0.027811
                                                         0.076562       0.007246
                          1       7    5fxy2             7.066654       1.578393
                                                         3.428369      -0.612629
                                                         1.430064       0.254167
                                                         0.571611       0.296234
                                                         0.232197       0.027811
                                                         0.076562       0.007246
                          1       7    5fxyz             7.066654       2.733856
                                                         3.428369      -1.061105
                                                         1.430064       0.440230
                                                         0.571611       0.513092
                                                         0.232197       0.048170
                                                         0.076562       0.012551
                          1       7    5fxz2             7.066654       1.578393
                                                         3.428369      -0.612629
                                                         1.430064       0.254167
                                                         0.571611       0.296234
                                                         0.232197       0.027811
                                                         0.076562       0.007246
                          1       7    5fy3              7.066654       0.705879
                                                         3.428369      -0.273976
                                                         1.430064       0.113667
                                                         0.571611       0.132480
                                                         0.232197       0.012437
                                                         0.076562       0.003241
                          1       7    5fy2z             7.066654       1.578393
                                                         3.428369      -0.612629
                                                         1.430064       0.254167
                                                         0.571611       0.296234
                                                         0.232197       0.027811
                                                         0.076562       0.007246
                          1       7    5fyz2             7.066654       1.578393
                                                         3.428369      -0.612629
                                                         1.430064       0.254167
                                                         0.571611       0.296234
                                                         0.232197       0.027811
                                                         0.076562       0.007246
                          1       7    5fz3              7.066654       0.705879
                                                         3.428369      -0.273976
                                                         1.430064       0.113667
                                                         0.571611       0.132480
                                                         0.232197       0.012437
                                                         0.076562       0.003241

     GTH Potential information for                                   GTH-PBE-q13

       Description:                       Goedecker-Teter-Hutter pseudopotential
                                           Goedecker et al., PRB 54, 1703 (1996)
                                          Hartwigsen et al., PRB 58, 3641 (1998)
                                                      Krack, TCA 114, 145 (2005)

       Gaussian exponent of the core charge distribution:               2.082466
       Electronic configuration (s p d ...):                           2   1  10

       Parameters of the local part of the GTH pseudopotential:

                          rloc        C1          C2          C3          C4
                        0.490000

       Parameters of the non-local part of the GTH pseudopotential:

                   l      r(l)      h(i,j,l)

                   0    0.416777   10.475690   -4.921768    0.870706
                                   -4.921768    7.770178   -2.248152
                                    0.870706   -2.248152    1.784415
                   1    0.569627    1.777985    0.195860
                                    0.195860   -0.231744
                   2    0.238126  -16.248680

  3. Atomic kind: O                                     Number of atoms:       2

     Orbital Basis Set                                     DZVP-MOLOPT-SR-GTH-q6

       Number of orbital shell sets:                                           1
       Number of orbital shells:                                               5
       Number of primitive Cartesian functions:                                5
       Number of Cartesian basis functions:                                   14
       Number of spherical basis functions:                                   13
       Norm type:                                                              2

       Normalised Cartesian orbitals:

                        Set   Shell   Orbital            Exponent    Coefficient

                          1       1    2s               10.389228       0.396646
                                                         3.849621       0.208811
                                                         1.388401      -0.301641
                                                         0.496955      -0.274061
                                                         0.162492      -0.033677

                          1       2    3s               10.389228       0.303673
                                                         3.849621       0.240943
                                                         1.388401      -0.313066
                                                         0.496955      -0.043055
                                                         0.162492       0.213991

                          1       3    3px              10.389228      -1.530415
                                                         3.849621      -1.371928
                                                         1.388401      -0.761951
                                                         0.496955      -0.253695
                                                         0.162492      -0.035541
                          1       3    3py              10.389228      -1.530415
                                                         3.849621      -1.371928
                                                         1.388401      -0.761951
                                                         0.496955      -0.253695
                                                         0.162492      -0.035541
                          1       3    3pz              10.389228      -1.530415
                                                         3.849621      -1.371928
                                                         1.388401      -0.761951
                                                         0.496955      -0.253695
                                                         0.162492      -0.035541

                          1       4    4px              10.389228      -0.565392
                                                         3.849621      -0.038231
                                                         1.388401      -0.382373
                                                         0.496955       0.179070
                                                         0.162492       0.122714
                          1       4    4py              10.389228      -0.565392
                                                         3.849621      -0.038231
                                                         1.388401      -0.382373
                                                         0.496955       0.179070
                                                         0.162492       0.122714
                          1       4    4pz              10.389228      -0.565392
                                                         3.849621      -0.038231
                                                         1.388401      -0.382373
                                                         0.496955       0.179070
                                                         0.162492       0.122714

                          1       5    4dx2             10.389228       1.867377
                                                         3.849621       0.670994
                                                         1.388401       1.353441
                                                         0.496955       0.273538
                                                         0.162492       0.006620
                          1       5    4dxy             10.389228       3.234392
                                                         3.849621       1.162195
                                                         1.388401       2.344229
                                                         0.496955       0.473781
                                                         0.162492       0.011466
                          1       5    4dxz             10.389228       3.234392
                                                         3.849621       1.162195
                                                         1.388401       2.344229
                                                         0.496955       0.473781
                                                         0.162492       0.011466
                          1       5    4dy2             10.389228       1.867377
                                                         3.849621       0.670994
                                                         1.388401       1.353441
                                                         0.496955       0.273538
                                                         0.162492       0.006620
                          1       5    4dyz             10.389228       3.234392
                                                         3.849621       1.162195
                                                         1.388401       2.344229
                                                         0.496955       0.473781
                                                         0.162492       0.011466
                          1       5    4dz2             10.389228       1.867377
                                                         3.849621       0.670994
                                                         1.388401       1.353441
                                                         0.496955       0.273538
                                                         0.162492       0.006620

     GTH Potential information for                                    GTH-PBE-q6

       Description:                       Goedecker-Teter-Hutter pseudopotential
                                           Goedecker et al., PRB 54, 1703 (1996)
                                          Hartwigsen et al., PRB 58, 3641 (1998)
                                                      Krack, TCA 114, 145 (2005)

       Gaussian exponent of the core charge distribution:               8.360253
       Electronic configuration (s p d ...):                               2   4

       Parameters of the local part of the GTH pseudopotential:

                          rloc        C1          C2          C3          C4
                        0.244554  -16.667215    2.487311

       Parameters of the non-local part of the GTH pseudopotential:

                   l      r(l)      h(i,j,l)

                   0    0.220956   18.337458
                   1    0.211332

  4. Atomic kind: H                                     Number of atoms:       8

     Orbital Basis Set                                     DZVP-MOLOPT-SR-GTH-q1

       Number of orbital shell sets:                                           1
       Number of orbital shells:                                               3
       Number of primitive Cartesian functions:                                5
       Number of Cartesian basis functions:                                    5
       Number of spherical basis functions:                                    5
       Norm type:                                                              2

       Normalised Cartesian orbitals:

                        Set   Shell   Orbital            Exponent    Coefficient

                          1       1    2s               10.068468      -0.133023
                                                         2.680223      -0.177618
                                                         0.791502      -0.258419
                                                         0.239116      -0.107525
                                                         0.082193      -0.014019

                          1       2    3s               10.068468       0.344673
                                                         2.680223       1.819821
                                                         0.791502      -0.999069
                                                         0.239116       0.017430
                                                         0.082193       0.082660

                          1       3    3px              10.068468       0.155326
                                                         2.680223       0.367157
                                                         0.791502       0.311480
                                                         0.239116       0.080105
                                                         0.082193       0.033440
                          1       3    3py              10.068468       0.155326
                                                         2.680223       0.367157
                                                         0.791502       0.311480
                                                         0.239116       0.080105
                                                         0.082193       0.033440
                          1       3    3pz              10.068468       0.155326
                                                         2.680223       0.367157
                                                         0.791502       0.311480
                                                         0.239116       0.080105
                                                         0.082193       0.033440

     GTH Potential information for                                    GTH-PBE-q1

       Description:                       Goedecker-Teter-Hutter pseudopotential
                                           Goedecker et al., PRB 54, 1703 (1996)
                                          Hartwigsen et al., PRB 58, 3641 (1998)
                                                      Krack, TCA 114, 145 (2005)

       Gaussian exponent of the core charge distribution:              12.500000
       Electronic configuration (s p d ...):                                   1

       Parameters of the local part of the GTH pseudopotential:

                          rloc        C1          C2          C3          C4
                        0.200000   -4.178900    0.724463

  5. Atomic kind: C                                     Number of atoms:       2

     Orbital Basis Set                                     DZVP-MOLOPT-SR-GTH-q4

       Number of orbital shell sets:                                           1
       Number of orbital shells:                                               5
       Number of primitive Cartesian functions:                                5
       Number of Cartesian basis functions:                                   14
       Number of spherical basis functions:                                   13
       Norm type:                                                              2

       Normalised Cartesian orbitals:

                        Set   Shell   Orbital            Exponent    Coefficient

                          1       1    2s                5.605331       0.322515
                                                         2.113016       0.213043
                                                         0.769911      -0.209686
                                                         0.348157      -0.219794
                                                         0.128212      -0.022789

                          1       2    3s                5.605331       0.552234
                                                         2.113016       0.082072
                                                         0.769911       0.007843
                                                         0.348157       0.136893
                                                         0.128212       0.074283

                          1       3    3px               5.605331      -0.703879
                                                         2.113016      -0.642521
                                                         0.769911      -0.374851
                                                         0.348157      -0.139743
                                                         0.128212      -0.027849
                          1       3    3py               5.605331      -0.703879
                                                         2.113016      -0.642521
                                                         0.769911      -0.374851
                                                         0.348157      -0.139743
                                                         0.128212      -0.027849
                          1       3    3pz               5.605331      -0.703879
                                                         2.113016      -0.642521
                                                         0.769911      -0.374851
                                                         0.348157      -0.139743
                                                         0.128212      -0.027849

                          1       4    4px               5.605331      -0.480376
                                                         2.113016      -0.552894
                                                         0.769911      -0.316145
                                                         0.348157       0.210505
                                                         0.128212       0.076095
                          1       4    4py               5.605331      -0.480376
                                                         2.113016      -0.552894
                                                         0.769911      -0.316145
                                                         0.348157       0.210505
                                                         0.128212       0.076095
                          1       4    4pz               5.605331      -0.480376
                                                         2.113016      -0.552894
                                                         0.769911      -0.316145
                                                         0.348157       0.210505
                                                         0.128212       0.076095

                          1       5    4dx2              5.605331       0.640026
                                                         2.113016       0.274300
                                                         0.769911       0.446711
                                                         0.348157       0.028674
                                                         0.128212       0.029790
                          1       5    4dxy              5.605331       1.108557
                                                         2.113016       0.475102
                                                         0.769911       0.773726
                                                         0.348157       0.049666
                                                         0.128212       0.051599
                          1       5    4dxz              5.605331       1.108557
                                                         2.113016       0.475102
                                                         0.769911       0.773726
                                                         0.348157       0.049666
                                                         0.128212       0.051599
                          1       5    4dy2              5.605331       0.640026
                                                         2.113016       0.274300
                                                         0.769911       0.446711
                                                         0.348157       0.028674
                                                         0.128212       0.029790
                          1       5    4dyz              5.605331       1.108557
                                                         2.113016       0.475102
                                                         0.769911       0.773726
                                                         0.348157       0.049666
                                                         0.128212       0.051599
                          1       5    4dz2              5.605331       0.640026
                                                         2.113016       0.274300
                                                         0.769911       0.446711
                                                         0.348157       0.028674
                                                         0.128212       0.029790

     GTH Potential information for                                    GTH-PBE-q4

       Description:                       Goedecker-Teter-Hutter pseudopotential
                                           Goedecker et al., PRB 54, 1703 (1996)
                                          Hartwigsen et al., PRB 58, 3641 (1998)
                                                      Krack, TCA 114, 145 (2005)

       Gaussian exponent of the core charge distribution:               4.364419
       Electronic configuration (s p d ...):                               2   2

       Parameters of the local part of the GTH pseudopotential:

                          rloc        C1          C2          C3          C4
                        0.338471   -8.803674    1.339211

       Parameters of the non-local part of the GTH pseudopotential:

                   l      r(l)      h(i,j,l)

                   0    0.302576    9.622487
                   1    0.291507


 MOLECULE KIND INFORMATION


 All atoms are their own molecule, skipping detailed information


 TOTAL NUMBERS AND MAXIMUM NUMBERS

  Total number of            - Atomic kinds:                                   5
                             - Atoms:                                        212
                             - Shell sets:                                   212
                             - Shells:                                      1244
                             - Primitive Cartesian functions:               1160
                             - Cartesian basis functions:                   4496
                             - Spherical basis functions:                   3892

  Maximum angular momentum of- Orbital basis functions:                        3
                             - Local part of the GTH pseudopotential:          2
                             - Non-local part of the GTH pseudopotential:      4


 MODULE QUICKSTEP:  ATOMIC COORDINATES IN angstrom

  Atom  Kind  Element       X           Y           Z          Z(eff)       Mass

       1     1 N    7    0.004012    2.048120    2.454032      5.00      14.0067
       2     2 Ga  31   -0.005210    0.096451    2.802626     13.00      69.7230
       3     1 N    7   -0.006937    0.049342    4.964697      5.00      14.0067
       4     2 Ga  31    0.003593    1.885785    5.740736     13.00      69.7230
       5     1 N    7   -0.002081    1.890514    7.741315      5.00      14.0067
       6     2 Ga  31   -0.002247    0.047139    8.394216     13.00      69.7230
       7     1 N    7   -0.003861    0.044747   10.366637      5.00      14.0067
       8     2 Ga  31   -0.004279    1.883774   11.026321     13.00      69.7230
       9     1 N    7   -0.004422    1.864119   13.016269      5.00      14.0067
      10     2 Ga  31   -0.004142    0.045160   13.831419     13.00      69.7230
      11     1 N    7   -0.004618    0.044332   16.019984      5.00      14.0067
      12     2 Ga  31   -0.004423    2.092203   16.438900     13.00      69.7230
      13     2 Ga  31   -0.017734    3.711638    1.247990     13.00      69.7230
      14     1 N    7   -1.470705    4.624813    2.438351      5.00      14.0067
      15     2 Ga  31   -1.669120    2.791448    3.217941     13.00      69.7230
      16     1 N    7   -1.612974    2.832404    5.197872      5.00      14.0067
      17     2 Ga  31   -1.630329    4.697623    5.752192     13.00      69.7230
      18     1 N    7   -1.620063    4.695912    7.745350      5.00      14.0067
      19     2 Ga  31   -1.598461    2.835807    8.389582     13.00      69.7230
      20     1 N    7   -1.600922    2.837036   10.380987      5.00      14.0067
      21     2 Ga  31   -1.629027    4.694825   11.029381     13.00      69.7230
      22     1 N    7   -1.645264    4.705427   13.018119      5.00      14.0067
      23     2 Ga  31   -1.601572    2.835840   13.576953     13.00      69.7230
      24     1 N    7   -1.632730    2.818042   15.534058      5.00      14.0067
      25     2 Ga  31   -1.447068    4.590916   16.439416     13.00      69.7230
      26     1 N    7   -0.010029    3.754497   17.567783      5.00      14.0067
      27     1 N    7   -3.233687    7.583440    2.453195      5.00      14.0067
      28     2 Ga  31   -3.184822    5.581614    2.805878     13.00      69.7230
      29     1 N    7   -3.215434    5.610839    4.965707      5.00      14.0067
      30     2 Ga  31   -3.238293    7.433634    5.747803     13.00      69.7230
      31     1 N    7   -3.225181    7.462377    7.738051      5.00      14.0067
      32     2 Ga  31   -3.219290    5.615049    8.398791     13.00      69.7230
      33     1 N    7   -3.220354    5.616071   10.368798      5.00      14.0067
      34     2 Ga  31   -3.222246    7.453513   11.029727     13.00      69.7230
      35     1 N    7   -3.220700    7.434813   13.017829      5.00      14.0067
      36     2 Ga  31   -3.220582    5.614897   13.833145     13.00      69.7230
      37     1 N    7   -3.221027    5.615085   16.020491      5.00      14.0067
      38     2 Ga  31   -3.221015    7.663117   16.440050     13.00      69.7230
      39     2 Ga  31   -3.251550    9.348405    1.393457     13.00      69.7230
      40     1 N    7   -4.743343   10.184507    2.463115      5.00      14.0067
      41     2 Ga  31   -4.972518    8.318418    3.188817     13.00      69.7230
      42     1 N    7   -4.844418    8.388352    5.161050      5.00      14.0067
      43     2 Ga  31   -4.862340   10.264470    5.736587     13.00      69.7230
      44     1 N    7   -4.840234   10.256756    7.734089      5.00      14.0067
      45     2 Ga  31   -4.821300    8.407001    8.395573     13.00      69.7230
      46     1 N    7   -4.817771    8.406763   10.382705      5.00      14.0067
      47     2 Ga  31   -4.844602   10.266868   11.026620     13.00      69.7230
      48     1 N    7   -4.860630   10.275982   13.015932      5.00      14.0067
      49     2 Ga  31   -4.817756    8.407259   13.577918     13.00      69.7230
      50     1 N    7   -4.849018    8.388834   15.534711      5.00      14.0067
      51     2 Ga  31   -4.663529   10.161667   16.439617     13.00      69.7230
      52     1 N    7   -3.226861    9.325737   17.569282      5.00      14.0067
      53     1 N    7    3.205707    1.900913    2.556592      5.00      14.0067
      54     2 Ga  31    3.192852    0.158294    3.231742     13.00      69.7230
      55     1 N    7    3.207705    0.039795    5.193808      5.00      14.0067
      56     2 Ga  31    3.199554    1.907560    5.819867     13.00      69.7230
      57     1 N    7    3.209422    1.899920    7.794631      5.00      14.0067
      58     2 Ga  31    3.206089    0.033600    8.386568     13.00      69.7230
      59     1 N    7    3.209747    0.030357   10.377000      5.00      14.0067
      60     2 Ga  31    3.210531    1.899819   10.980839     13.00      69.7230
      61     1 N    7    3.212157    1.900695   12.947377      5.00      14.0067
      62     2 Ga  31    3.211699    0.032863   13.577375     13.00      69.7230
      63     1 N    7    3.213262    0.066684   15.533557      5.00      14.0067
      64     2 Ga  31    3.213031    1.902452   15.818370     13.00      69.7230
      65     1 N    7    1.493826    4.634689    2.356344      5.00      14.0067
      66     2 Ga  31    1.686188    2.811318    3.197741     13.00      69.7230
      67     1 N    7    1.607575    2.842396    5.180259      5.00      14.0067
      68     2 Ga  31    1.656128    4.707644    5.760711     13.00      69.7230
      69     1 N    7    1.607516    4.691102    7.761697      5.00      14.0067
      70     2 Ga  31    1.592749    2.835073    8.394042     13.00      69.7230
      71     1 N    7    1.592181    2.835043   10.384256      5.00      14.0067
      72     2 Ga  31    1.619695    4.694457   11.027452     13.00      69.7230
      73     1 N    7    1.635900    4.705152   13.017169      5.00      14.0067
      74     2 Ga  31    1.593738    2.835793   13.576213     13.00      69.7230
      75     1 N    7    1.623532    2.820226   15.532858      5.00      14.0067
      76     2 Ga  31    1.432403    4.587651   16.440835     13.00      69.7230
      77     1 N    7   -0.010744    7.467514    2.643161      5.00      14.0067
      78     2 Ga  31    0.029195    5.598177    3.250599     13.00      69.7230
      79     1 N    7    0.005796    5.626803    5.189640      5.00      14.0067
      80     2 Ga  31   -0.006027    7.458078    5.859102     13.00      69.7230
      81     1 N    7   -0.007127    7.470665    7.813188      5.00      14.0067
      82     2 Ga  31   -0.003713    5.597933    8.405707     13.00      69.7230
      83     1 N    7   -0.006141    5.602658   10.390376      5.00      14.0067
      84     2 Ga  31   -0.006796    7.472160   10.985960     13.00      69.7230
      85     1 N    7   -0.004905    7.472933   12.950637      5.00      14.0067
      86     2 Ga  31   -0.003981    5.602884   13.577310     13.00      69.7230
      87     1 N    7   -0.002791    5.637233   15.533714      5.00      14.0067
      88     2 Ga  31   -0.003172    7.472723   15.818875     13.00      69.7230
      89     1 N    7   -1.720263   10.184830    2.471222      5.00      14.0067
      90     2 Ga  31   -1.611817    8.377381    3.279462     13.00      69.7230
      91     1 N    7   -1.606378    8.388843    5.204114      5.00      14.0067
      92     2 Ga  31   -1.593133   10.276062    5.761400     13.00      69.7230
      93     1 N    7   -1.604359   10.259742    7.746901      5.00      14.0067
      94     2 Ga  31   -1.628582    8.405285    8.398366     13.00      69.7230
      95     1 N    7   -1.626598    8.406260   10.383148      5.00      14.0067
      96     2 Ga  31   -1.600728   10.266252   11.026874     13.00      69.7230
      97     1 N    7   -1.581190   10.275704   13.015612      5.00      14.0067
      98     2 Ga  31   -1.623265    8.407200   13.578397     13.00      69.7230
      99     1 N    7   -1.592719    8.391085   15.534333      5.00      14.0067
     100     2 Ga  31   -1.784291   10.158387   16.441806     13.00      69.7230
     101     1 N    7    6.434242    2.015221    2.503174      5.00      14.0067
     102     2 Ga  31    6.422964    0.049752    2.842931     13.00      69.7230
     103     1 N    7    6.425017    0.041366    4.979243      5.00      14.0067
     104     2 Ga  31    6.424271    1.877699    5.762600     13.00      69.7230
     105     1 N    7    6.427710    1.888148    7.752730      5.00      14.0067
     106     2 Ga  31    6.425469    0.045092    8.405384     13.00      69.7230
     107     1 N    7    6.426093    0.043691   10.373040      5.00      14.0067
     108     2 Ga  31    6.427010    1.884507   11.027403     13.00      69.7230
     109     1 N    7    6.428044    1.864497   13.016877      5.00      14.0067
     110     2 Ga  31    6.426936    0.044811   13.829120     13.00      69.7230
     111     1 N    7    6.425657    0.043433   16.021279      5.00      14.0067
     112     2 Ga  31    6.427508    2.084994   16.437376     13.00      69.7230
     113     2 Ga  31    6.455922    3.722504    1.471639     13.00      69.7230
     114     1 N    7    4.939837    4.595715    2.465824      5.00      14.0067
     115     2 Ga  31    4.705387    2.771138    3.255790     13.00      69.7230
     116     1 N    7    4.818912    2.829031    5.209996      5.00      14.0067
     117     2 Ga  31    4.775703    4.708956    5.763319     13.00      69.7230
     118     1 N    7    4.817062    4.688864    7.763503      5.00      14.0067
     119     2 Ga  31    4.826963    2.833516    8.395562     13.00      69.7230
     120     1 N    7    4.829990    2.834152   10.384856      5.00      14.0067
     121     2 Ga  31    4.803937    4.694692   11.026136     13.00      69.7230
     122     1 N    7    4.788167    4.704726   13.016759      5.00      14.0067
     123     2 Ga  31    4.830213    2.835788   13.576165     13.00      69.7230
     124     1 N    7    4.805574    2.821539   15.536216      5.00      14.0067
     125     2 Ga  31    4.978629    4.594512   16.437353     13.00      69.7230
     126     1 N    7    6.421816    3.754530   17.580156      5.00      14.0067
     127     1 N    7    3.191711    7.621166    2.477138      5.00      14.0067
     128     1 N    7    3.217204    5.620305    5.038492      5.00      14.0067
     129     2 Ga  31    3.216362    7.415408    5.773333     13.00      69.7230
     130     1 N    7    3.210226    7.470410    7.766666      5.00      14.0067
     131     2 Ga  31    3.212116    5.614154    8.399968     13.00      69.7230
     132     1 N    7    3.211637    5.615758   10.373544      5.00      14.0067
     133     2 Ga  31    3.211911    7.453739   11.028816     13.00      69.7230
     134     1 N    7    3.211665    7.435693   13.018384      5.00      14.0067
     135     2 Ga  31    3.211706    5.614643   13.828481     13.00      69.7230
     136     1 N    7    3.210010    5.614009   16.021556      5.00      14.0067
     137     2 Ga  31    3.211687    7.655258   16.437753     13.00      69.7230
     138     2 Ga  31    3.227015    9.365033    1.431132     13.00      69.7230
     139     1 N    7    1.700929   10.192842    2.483958      5.00      14.0067
     140     2 Ga  31    1.575644    8.381408    3.301429     13.00      69.7230
     141     1 N    7    1.589729    8.395170    5.219984      5.00      14.0067
     142     2 Ga  31    1.577397   10.277680    5.771650     13.00      69.7230
     143     1 N    7    1.592409   10.262463    7.755461      5.00      14.0067
     144     2 Ga  31    1.613797    8.407528    8.407402     13.00      69.7230
     145     1 N    7    1.612506    8.407961   10.390971      5.00      14.0067
     146     2 Ga  31    1.587802   10.267384   11.030565     13.00      69.7230
     147     1 N    7    1.571598   10.276294   13.018785      5.00      14.0067
     148     2 Ga  31    1.614371    8.406877   13.578023     13.00      69.7230
     149     1 N    7    1.589346    8.392146   15.537679      5.00      14.0067
     150     2 Ga  31    1.762699   10.165188   16.437793     13.00      69.7230
     151     1 N    7    3.206123    9.325588   17.580443      5.00      14.0067
     152     1 N    7    9.660830    1.909786    2.568822      5.00      14.0067
     153     2 Ga  31    9.653238    0.172433    3.249920     13.00      69.7230
     154     1 N    7    9.640900    0.043595    5.207783      5.00      14.0067
     155     2 Ga  31    9.655591    1.906390    5.834005     13.00      69.7230
     156     1 N    7    9.645412    1.901456    7.803880      5.00      14.0067
     157     2 Ga  31    9.645914    0.034907    8.396958     13.00      69.7230
     158     1 N    7    9.643468    0.031248   10.384351      5.00      14.0067
     159     2 Ga  31    9.644227    1.902311   10.980421     13.00      69.7230
     160     1 N    7    9.643380    1.901234   12.948321      5.00      14.0067
     161     2 Ga  31    9.644743    0.032524   13.577189     13.00      69.7230
     162     1 N    7    9.644521    0.061305   15.536172      5.00      14.0067
     163     2 Ga  31    9.642398    1.900697   15.815609     13.00      69.7230
     164     1 N    7    7.933535    4.622894    2.490004      5.00      14.0067
     165     2 Ga  31    8.154735    2.768694    3.262327     13.00      69.7230
     166     1 N    7    8.038906    2.826814    5.215684      5.00      14.0067
     167     2 Ga  31    8.062606    4.700887    5.756713     13.00      69.7230
     168     1 N    7    8.046503    4.693637    7.748012      5.00      14.0067
     169     2 Ga  31    8.026963    2.835487    8.393944     13.00      69.7230
     170     1 N    7    8.024103    2.836735   10.382734      5.00      14.0067
     171     2 Ga  31    8.051855    4.695532   11.027930     13.00      69.7230
     172     1 N    7    8.068783    4.705277   13.016856      5.00      14.0067
     173     2 Ga  31    8.025287    2.836548   13.576580     13.00      69.7230
     174     1 N    7    8.050451    2.821889   15.535626      5.00      14.0067
     175     2 Ga  31    7.872522    4.592310   16.437392     13.00      69.7230
     176     1 N    7    6.358294    7.433827    2.456902      5.00      14.0067
     177     2 Ga  31    6.415364    5.709794    3.259619     13.00      69.7230
     178     1 N    7    6.427789    5.618563    5.204037      5.00      14.0067
     179     2 Ga  31    6.424476    7.470008    5.840523     13.00      69.7230
     180     1 N    7    6.426365    7.471385    7.804283      5.00      14.0067
     181     2 Ga  31    6.428379    5.601039    8.400812     13.00      69.7230
     182     1 N    7    6.429352    5.603043   10.387769      5.00      14.0067
     183     2 Ga  31    6.427724    7.472097   10.984887     13.00      69.7230
     184     1 N    7    6.427447    7.471903   12.951464      5.00      14.0067
     185     2 Ga  31    6.428324    5.601628   13.576718     13.00      69.7230
     186     1 N    7    6.428318    5.631444   15.535779      5.00      14.0067
     187     2 Ga  31    6.426114    7.470780   15.814869     13.00      69.7230
     188     1 N    7    4.718263   10.199053    2.482055      5.00      14.0067
     189     2 Ga  31    4.900602    8.347215    3.262678     13.00      69.7230
     190     1 N    7    4.819430    8.400576    5.206775      5.00      14.0067
     191     2 Ga  31    4.848633   10.276578    5.757724     13.00      69.7230
     192     1 N    7    4.829710   10.263449    7.748473      5.00      14.0067
     193     2 Ga  31    4.809320    8.409592    8.401757     13.00      69.7230
     194     1 N    7    4.809576    8.408261   10.388185      5.00      14.0067
     195     2 Ga  31    4.836284   10.267711   11.027921     13.00      69.7230
     196     1 N    7    4.852268   10.276577   13.016827      5.00      14.0067
     197     2 Ga  31    4.808723    8.407920   13.577347     13.00      69.7230
     198     1 N    7    4.834358    8.392639   15.536289      5.00      14.0067
     199     2 Ga  31    4.656873   10.163026   16.437321     13.00      69.7230
     200     3 O    8    0.060737    3.676669   -0.571736      6.00      15.9994
     201     4 H    1   -0.003243    7.477355    1.616961      1.00       1.0079
     202     5 C    6    0.141032    2.377436   -1.176821      4.00      12.0107
     203     4 H    1    0.974625    1.775385   -0.777784      1.00       1.0079
     204     4 H    1   -0.789269    1.800452   -1.047810      1.00       1.0079
     205     4 H    1    0.308092    2.525761   -2.254089      1.00       1.0079
     206     2 Ga  31    3.218060    5.613078    2.384952     13.00      69.7230
     207     3 O    8    3.838242    6.123846    0.211782      6.00      15.9994
     208     4 H    1    3.675815    5.438078   -0.457449      1.00       1.0079
     209     5 C    6    5.211479    6.646767    0.054386      4.00      12.0107
     210     4 H    1    5.188015    7.457277   -0.688368      1.00       1.0079
     211     4 H    1    5.665533    7.023376    1.069352      1.00       1.0079
     212     4 H    1    5.870174    5.850360   -0.331830      1.00       1.0079




 SCF PARAMETERS         Density guess:                                    ATOMIC
                        --------------------------------------------------------
                        max_scf:                                              80
                        max_scf_history:                                       0
                        max_diis:                                              4
                        --------------------------------------------------------
                        eps_scf:                                        5.00E-06
                        eps_scf_history:                                0.00E+00
                        eps_diis:                                       1.00E-01
                        eps_eigval:                                     1.00E-05
                        --------------------------------------------------------
                        level_shift [a.u.]:                                 0.00
                        --------------------------------------------------------
                        Outer loop SCF in use 
                        No variables optimised in outer loop
                        eps_scf                                         5.00E-06
                        max_scf                                                4
                        No outer loop optimization
                        step_size                                       5.00E-01

 PW_GRID| Information for grid number                                          1
 PW_GRID| Grid distributed over                                    80 processors
 PW_GRID| Real space group dimensions                                    80    1
 PW_GRID| the grid is blocked:                                                NO
 PW_GRID| Cutoff [a.u.]                                                    600.0
 PW_GRID| spherical cutoff:                                                   NO
 PW_GRID|   Bounds   1           -144     143                Points:         288
 PW_GRID|   Bounds   2           -144     143                Points:         288
 PW_GRID|   Bounds   3           -337     337                Points:         675
 PW_GRID| Volume element (a.u.^3)  0.5630E-03     Volume (a.u.^3)     31519.8467
 PW_GRID| Grid span                                                    FULLSPACE
 PW_GRID|   Distribution                         Average         Max         Min
 PW_GRID|   G-Vectors                           699840.0      699840      699840
 PW_GRID|   G-Rays                                2430.0        2430        2430
 PW_GRID|   Real Space Points                   699840.0      777600      583200

 PW_GRID| Information for grid number                                          2
 PW_GRID| Grid distributed over                                    80 processors
 PW_GRID| Real space group dimensions                                    80    1
 PW_GRID| the grid is blocked:                                                NO
 PW_GRID| Cutoff [a.u.]                                                    200.0
 PW_GRID| spherical cutoff:                                                   NO
 PW_GRID|   Bounds   1            -80      79                Points:         160
 PW_GRID|   Bounds   2            -80      79                Points:         160
 PW_GRID|   Bounds   3           -200     199                Points:         400
 PW_GRID| Volume element (a.u.^3)  0.3078E-02     Volume (a.u.^3)     31519.8467
 PW_GRID| Grid span                                                    FULLSPACE
 PW_GRID|   Distribution                         Average         Max         Min
 PW_GRID|   G-Vectors                           128000.0      128160      127840
 PW_GRID|   G-Rays                                 800.0         801         799
 PW_GRID|   Real Space Points                   128000.0      128000      128000

 PW_GRID| Information for grid number                                          3
 PW_GRID| Grid distributed over                                    80 processors
 PW_GRID| Real space group dimensions                                    80    1
 PW_GRID| the grid is blocked:                                                NO
 PW_GRID| Cutoff [a.u.]                                                     66.7
 PW_GRID| spherical cutoff:                                                   NO
 PW_GRID|   Bounds   1            -48      47                Points:          96
 PW_GRID|   Bounds   2            -48      47                Points:          96
 PW_GRID|   Bounds   3           -112     112                Points:         225
 PW_GRID| Volume element (a.u.^3)  0.1520E-01     Volume (a.u.^3)     31519.8467
 PW_GRID| Grid span                                                    FULLSPACE
[...]
 flops   991 x    64 x    50         135778099200     100.0%      0.0%      0.0%
 flops    13 x    25 x    50         141287250000     100.0%      0.0%      0.0%
 flops    25 x    13 x    50         141432980000     100.0%      0.0%      0.0%
 flops   242 x    64 x   178         176615735296     100.0%      0.0%      0.0%
 flops   242 x    64 x   183         181576851456     100.0%      0.0%      0.0%
 flops   973 x    32 x    50         183303859200     100.0%      0.0%      0.0%
 flops   973 x    50 x    32         183303859200     100.0%      0.0%      0.0%
 flops   242 x    32 x    32         188064464896     100.0%      0.0%      0.0%
 flops   242 x    64 x   195         193483530240     100.0%      0.0%      0.0%
 flops    25 x    18 x    13         217405398600     100.0%      0.0%      0.0%
 flops    13 x    18 x    25         217405398600     100.0%      0.0%      0.0%
 flops   955 x    32 x   178         222113013760     100.0%      0.0%      0.0%
 flops   955 x    32 x   183         228352143360     100.0%      0.0%      0.0%
 flops   991 x    32 x   178         230485860352     100.0%      0.0%      0.0%
 flops   991 x    32 x   183         236960182272     100.0%      0.0%      0.0%
 flops   955 x    32 x   195         243326054400     100.0%      0.0%      0.0%
 flops   991 x    32 x   195         252498554880     100.0%      0.0%      0.0%
 flops   973 x    64 x    50         266623795200     100.0%      0.0%      0.0%
 flops   973 x    50 x    64         266623795200     100.0%      0.0%      0.0%
 flops    25 x    25 x    50         271437500000     100.0%      0.0%      0.0%
 flops   242 x    64 x    32         273548312576     100.0%      0.0%      0.0%
 flops   242 x    32 x    64         273548312576     100.0%      0.0%      0.0%
 flops     5 x    32 x    25         308123872000     100.0%      0.0%      0.0%
 flops    25 x    32 x     5         308123872000     100.0%      0.0%      0.0%
 flops   955 x    64 x   178         323073474560     100.0%      0.0%      0.0%
 flops   955 x    64 x   183         332148572160     100.0%      0.0%      0.0%
 flops   991 x    64 x   178         335252160512     100.0%      0.0%      0.0%
 flops   224 x    32 x   178         337175494656     100.0%      0.0%      0.0%
 flops   991 x    64 x   183         344669356032     100.0%      0.0%      0.0%
 flops   224 x    32 x   183         346646716416     100.0%      0.0%      0.0%
 flops   955 x    64 x   195         353928806400     100.0%      0.0%      0.0%
 flops   991 x    64 x   195         367270625280     100.0%      0.0%      0.0%
 flops   224 x    32 x   195         369377648640     100.0%      0.0%      0.0%
 flops   242 x    64 x    64         397888454656     100.0%      0.0%      0.0%
 flops    25 x    18 x    25         413325000000     100.0%      0.0%      0.0%
 flops   973 x    32 x   178         452598874112     100.0%      0.0%      0.0%
 flops   973 x    32 x   183         465312325632     100.0%      0.0%      0.0%
 flops   224 x    64 x   178         490437083136     100.0%      0.0%      0.0%
 flops   973 x    32 x   195         495824609280     100.0%      0.0%      0.0%
 flops    13 x    13 x    32         503001973760     100.0%      0.0%      0.0%
 flops   224 x    64 x   183         504213405696     100.0%      0.0%      0.0%
 flops   224 x    32 x    32         522228596736     100.0%      0.0%      0.0%
 flops   224 x    64 x   195         537276579840     100.0%      0.0%      0.0%
 flops   955 x    32 x    32         633293168640     100.0%      0.0%      0.0%
 flops   991 x    32 x    32         657166000128     100.0%      0.0%      0.0%
 flops   973 x    64 x   178         658325635072     100.0%      0.0%      0.0%
 flops   973 x    64 x   183         676817928192     100.0%      0.0%      0.0%
 flops   973 x    64 x   195         721199431680     100.0%      0.0%      0.0%
 flops    13 x    13 x    64         731639234560     100.0%      0.0%      0.0%
 flops   224 x    32 x    64         759605231616     100.0%      0.0%      0.0%
 flops   224 x    64 x    32         759605231616     100.0%      0.0%      0.0%
 flops   955 x    32 x    64         921153699840     100.0%      0.0%      0.0%
 flops   955 x    64 x    32         921153699840     100.0%      0.0%      0.0%
 flops   991 x    32 x    64         955877818368     100.0%      0.0%      0.0%
 flops   991 x    64 x    32         955877818368     100.0%      0.0%      0.0%
 flops    13 x    25 x    32         994662240000     100.0%      0.0%      0.0%
 flops    25 x    13 x    32         995688179200     100.0%      0.0%      0.0%
 flops   224 x    64 x    64        1104880336896     100.0%      0.0%      0.0%
 flops   973 x    32 x    32        1290459168768     100.0%      0.0%      0.0%
 flops   955 x    64 x    64        1339859927040     100.0%      0.0%      0.0%
 flops   991 x    64 x    64        1390367735808     100.0%      0.0%      0.0%
 flops    13 x    25 x    64        1446781440000     100.0%      0.0%      0.0%
 flops    25 x    13 x    64        1448273715200     100.0%      0.0%      0.0%
 flops   973 x    64 x    32        1877031518208     100.0%      0.0%      0.0%
 flops   973 x    32 x    64        1877031518208     100.0%      0.0%      0.0%
 flops    25 x    25 x    32        1910920000000     100.0%      0.0%      0.0%
 flops   973 x    64 x    64        2730227662848     100.0%      0.0%      0.0%
 flops    25 x    25 x    64        2779520000000     100.0%      0.0%      0.0%
 flops    13 x    32 x    13        5411995516928     100.0%      0.0%      0.0%
 flops    25 x    32 x    13       10821957619200     100.0%      0.0%      0.0%
 flops    13 x    32 x    25       10821957619200     100.0%      0.0%      0.0%
 flops    25 x    32 x    25       20574400000000     100.0%      0.0%      0.0%
 flops inhomo. stacks              33283505566752     100.0%      0.0%      0.0%
 flops total                       127.669490E+12     100.0%      0.0%      0.0%
 flops max/rank                      2.216201E+12     100.0%      0.0%      0.0%
 matmuls inhomo. stacks                   3281600     100.0%      0.0%      0.0%
 matmuls total                         2657318044     100.0%      0.0%      0.0%
 number of processed stacks              45958880     100.0%      0.0%      0.0%
 average stack size                                    57.8       0.0       0.0
 marketing flops                   136.416399E+12
 -------------------------------------------------------------------------------
 # multiplications                          11567
 max memory usage/rank               1.396183E+09
 # max total images/rank                        5
 # max 3D layers                                1
 # MPI messages exchanged               105491040
 MPI messages size (bytes):
  total size                        13.453062E+12
  min size                           0.000000E+00
  max size                           1.894792E+06
  average size                     127.528008E+03
 MPI breakdown and total messages size (bytes):
             size <=      128             1045760                        0
       128 < size <=     8192            13375164             109569343488
      8192 < size <=    32768            30820356             628721605504
     32768 < size <=   131072            47531920            3440772537664
    131072 < size <=  4194304            12717840            9279665015264
   4194304 < size <= 16777216                   0                        0
  16777216 < size                               0                        0
 -------------------------------------------------------------------------------

 *** WARNING in dbcsr/mm/dbcsr_mm.F:268 :: Using a non-square number of ***
 *** MPI ranks might lead to poor performance.                          ***
 *** Used ranks: 80                                                     ***
 *** Suggested: 81 169                                                  ***

 -------------------------------------------------------------------------------
 
 MEMORY| Estimated peak process memory [MiB]                                1359

 -------------------------------------------------------------------------------
 ----                             MULTIGRID INFO                            ----
 -------------------------------------------------------------------------------
 count for grid        1:        1129479          cutoff [a.u.]          600.00
 count for grid        2:        5206889          cutoff [a.u.]          200.00
 count for grid        3:        4386606          cutoff [a.u.]           66.67
 count for grid        4:        5708246          cutoff [a.u.]           22.22
 count for grid        5:        4793332          cutoff [a.u.]            7.41
 total gridlevel count  :       21224552

 -------------------------------------------------------------------------------
 -                                                                             -
 -                         MESSAGE PASSING PERFORMANCE                         -
 -                                                                             -
 -------------------------------------------------------------------------------

 ROUTINE             CALLS      AVE VOLUME [Bytes]
 MP_Group             1393
 MP_Bcast            15316                  25410.
 MP_Allreduce       102441                    307.
 MP_Sync               533
 MP_Alltoall         69518                5057946.
 MP_SendRecv          9480                   5934.
 MP_ISendRecv       298620                 133520.
 MP_Wait           2583094
 MP_comm_split         528
 MP_ISend          2970112                 120325.
 MP_IRecv          2971040                 120249.
 MP_Recv               551                 162816.
 MP_Memory         1280140
 -------------------------------------------------------------------------------


 -------------------------------------------------------------------------------
 -                                                                             -
 -                           R E F E R E N C E S                               -
 -                                                                             -
 -------------------------------------------------------------------------------
 
 CP2K version 7.0 (Development Version), the CP2K developers group (2018).
 CP2K is freely available from https://www.cp2k.org/ .

 Schuett, Ole; Messmer, Peter; Hutter, Juerg; VandeVondele, Joost. 
 Electronic Structure Calculations on Graphics Processing Units, John Wiley & Sons, Ltd, 173-190 (2016). 
 GPU-Accelerated Sparse Matrix-Matrix Multiplication for Linear Scaling Density Functional Theory.
 http://dx.doi.org/10.1002/9781118670712.ch8


 Borstnik, U; VandeVondele, J; Weber, V; Hutter, J. 
 PARALLEL COMPUTING, 40 (5-6), 47-58 (2014). 
 Sparse matrix multiplication: The distributed block-compressed sparse
 row library.
 http://dx.doi.org/10.1016/j.parco.2014.03.012


 Hutter, J; Iannuzzi, M; Schiffmann, F; VandeVondele, J. 
 WILEY INTERDISCIPLINARY REVIEWS-COMPUTATIONAL MOLECULAR SCIENCE, 4 (1), 15-25 (2014). 
 CP2K: atomistic simulations of condensed matter systems.
 http://dx.doi.org/10.1002/wcms.1159


 Grimme, S; Ehrlich, S; Goerigk, L. 
 JOURNAL OF COMPUTATIONAL CHEMISTRY, 32, 1456 (2011). 
 Effect of the damping function in dispersion corrected density functional theory.
 http://dx.doi.org/10.1002/jcc.21759


 Grimme, S; Antony, J; Ehrlich, S; Krieg, H. 
 JOURNAL OF CHEMICAL PHYSICS, 132 (15), 154104 (2010). 
 A consistent and accurate ab initio parametrization of density
 functional dispersion correction (DFT-D) for the 94 elements H-Pu.
 http://dx.doi.org/10.1063/1.3382344


 VandeVondele, J; Hutter, J. 
 JOURNAL OF CHEMICAL PHYSICS, 127 (11), 114105 (2007). 
 Gaussian basis sets for accurate calculations on molecular systems in
 gas and condensed phases.
 http://dx.doi.org/10.1063/1.2770708


 Krack, M. 
 THEORETICAL CHEMISTRY ACCOUNTS, 114 (1-3), 145-152 (2005). 
 Pseudopotentials for H to Kr optimized for gradient-corrected
 exchange-correlation functionals.
 http://dx.doi.org/10.1007/s00214-005-0655-y


 VandeVondele, J; Krack, M; Mohamed, F; Parrinello, M; Chassaing, T;
 Hutter, J. COMPUTER PHYSICS COMMUNICATIONS, 167 (2), 103-128 (2005). 
 QUICKSTEP: Fast and accurate density functional calculations using a
 mixed Gaussian and plane waves approach.
 http://dx.doi.org/10.1016/j.cpc.2004.12.014


 Frigo, M; Johnson, SG. 
 PROCEEDINGS OF THE IEEE, 93 (2), 216-231 (2005). 
 The design and implementation of FFTW3.
 http://dx.doi.org/10.1109/JPROC.2004.840301


 Kolafa, J. 
 JOURNAL OF COMPUTATIONAL CHEMISTRY, 25 (3), 335-342 (2004). 
 Time-reversible always stable predictor-corrector method for molecular dynamics of polarizable molecules.
 http://dx.doi.org/10.1002/jcc.10385


 VandeVondele, J; Hutter, J. 
 JOURNAL OF CHEMICAL PHYSICS, 118 (10), 4365-4369 (2003). 
 An efficient orbital transformation method for electronic structure
 calculations.
 http://dx.doi.org/10.1063/1.1543154


 Hartwigsen, C; Goedecker, S; Hutter, J. 
 PHYSICAL REVIEW B, 58 (7), 3641-3662 (1998). 
 Relativistic separable dual-space Gaussian pseudopotentials from H to Rn.
 http://dx.doi.org/10.1103/PhysRevB.58.3641


 Lippert, G; Hutter, J; Parrinello, M. 
 MOLECULAR PHYSICS, 92 (3), 477-487 (1997). 
 A hybrid Gaussian and plane wave density functional scheme.
 http://dx.doi.org/10.1080/002689797170220


 Perdew, JP; Burke, K; Ernzerhof, M. 
 PHYSICAL REVIEW LETTERS, 77 (18), 3865-3868 (1996). 
 Generalized gradient approximation made simple.
 http://dx.doi.org/10.1103/PhysRevLett.77.3865


 Goedecker, S; Teter, M; Hutter, J. 
 PHYSICAL REVIEW B, 54 (3), 1703-1710 (1996). 
 Separable dual-space Gaussian pseudopotentials.
 http://dx.doi.org/10.1103/PhysRevB.54.1703


 -------------------------------------------------------------------------------
 -                                                                             -
 -                                T I M I N G                                  -
 -                                                                             -
 -------------------------------------------------------------------------------
 SUBROUTINE                       CALLS  ASD         SELF TIME        TOTAL TIME
                                MAXIMUM       AVERAGE  MAXIMUM  AVERAGE  MAXIMUM
 CP2K                                 1  1.0    0.102    0.130 6080.351 6080.366
 cp_geo_opt                           1  2.0    0.002    0.002 6079.136 6079.148
 geoopt_bfgs                          1  3.0    0.032    0.064 6079.134 6079.147
 cp_eval_at                          31  4.0    0.008    0.010 6066.283 6066.299
 qs_forces                           30  5.0    0.031    0.068 5977.792 5977.805
 qs_energies                         31  6.0    0.064    0.132 5449.585 5449.656
 scf_env_do_scf                      31  7.0    0.010    0.051 5048.080 5048.105
 scf_env_do_scf_inner_loop          369  8.0    0.071    0.127 4391.727 4391.744
 rebuild_ks_matrix                  399  9.8    0.002    0.002 2648.074 2648.582
 qs_ks_build_kohn_sham_matrix       399 10.8    0.131    0.239 2648.072 2648.580
 qs_ks_update_qs_env                401  9.0    0.004    0.017 2098.620 2099.060
 qs_rho_update_rho                  400  9.1    0.004    0.004 2073.433 2074.549
 calculate_rho_elec                 800 10.1 1036.075 1056.128 2073.429 2074.545
 sum_up_and_integrate               230 11.6    3.434    3.894 1502.028 1502.739
 integrate_v_rspace                 460 12.6  857.457  890.280 1498.592 1499.649
 pw_transfer                      12792 13.3    1.358    1.642 1264.124 1271.781
 fft_wrap_pw1pw2                  11994 14.3    0.139    0.158 1257.794 1265.240
 fft_wrap_pw1pw2_600               6954 15.6   77.909   87.800 1169.148 1175.119
 rs_pw_transfer                    6454 12.9    0.084    0.100 1075.510 1089.541
 fft3d_ps                         11994 16.3  359.117  397.116 1076.171 1087.169
 density_rs2pw                      800 11.1    0.059    0.073  932.817  954.175
 qs_vxc_create                      399 11.8    0.014    0.028  884.721  884.926
 dbcsr_multiply_generic           11567 13.7    0.779    1.079  814.319  816.175
 mp_waitall_1                   2347782 16.6  733.327  769.390  733.327  769.390
 mp_alltoall_z22v                 11994 18.3  615.878  686.912  615.878  686.912
 qs_scf_new_mos                     369  9.0    0.003    0.005  680.950  681.647
 qs_scf_loop_do_ot                  369 10.0    0.015    0.038  680.947  681.643
 xc_vxc_pw_create                   230 12.6   40.873   46.324  674.154  674.283
 init_scf_loop                       32  8.0    0.007    0.021  655.407  655.426
 multiply_cannon                  11567 14.7    3.688    3.965  638.793  651.961
 ot_scf_mini                        369 11.0    0.057    0.146  624.558  624.945
 qs_ks_update_qs_env_forces          30  6.0    0.000    0.000  553.136  553.223
 mp_waitany                      235312 14.8  474.770  513.085  474.770  513.085
 potential_pw2rs                    460 13.6    0.361    0.410  503.501  504.657
 xc_rho_set_and_dset_create         399 13.8    7.066    7.535  473.426  481.443
 rs_pw_transfer_RS2PW_600           862 12.9  173.077  188.347  441.208  455.878
 multiply_cannon_metrocomm3      231340 15.7    0.627    0.685  386.573  437.523
 x_to_yz                           5203 17.9   56.703   66.050  401.667  426.376
 prepare_preconditioner              32  9.0    0.000    0.001  343.498  343.592
 yz_to_x                           4271 16.8   35.967   37.676  306.330  341.808
 ot_mini                            369 12.0    0.004    0.005  329.858  330.264
 rs_pw_transfer_PW2RS_600           552 14.9  124.044  134.575  314.444  322.924
 make_preconditioner                 64 10.0    0.004    0.007  315.117  315.179
 make_full_all                       64 11.0    0.027    0.069  287.463  287.595
 init_scf_run                        31  7.0    0.002    0.003  248.184  248.187
 scf_env_initial_rho_setup           31  8.0    0.002    0.004  248.182  248.186
 wfi_extrapolate                     31  9.0    0.017    0.068  241.571  241.589
 cp_fm_syevd                        528 13.4    0.005    0.007  215.544  215.837
 cp_fm_redistribute_end             528 14.4   66.086  209.727   67.470  210.920
 xc_exc_calc                        169 13.0    0.819    0.947  210.553  210.680
 qs_ot_get_derivative               400 13.0    0.006    0.018  205.819  206.242
 mp_alltoall_d11v                 15406 14.9  174.050  204.283  174.050  204.283
 cp_fm_syevd_base                   528 14.1  142.547  203.545  142.547  203.545
 multiply_cannon_metrocomm1      231340 15.7    0.726    0.782  137.475  194.920
 rs_distribute_matrix              1320 11.9    1.645    3.259  161.091  190.438
 apply_preconditioner_dbcsr         464 14.0    0.001    0.005  137.885  138.223
 apply_all                          464 15.0    0.054    0.085  137.884  138.222
 qs_ot_get_p                        802 11.8    0.012    0.050  124.133  126.238
 mp_sum_d                         15437 14.3   93.324  123.579   93.324  123.579
 -------------------------------------------------------------------------------

 The number of warnings for this run is : 1
 
 -------------------------------------------------------------------------------
  **** **** ******  **  PROGRAM ENDED AT                 2019-07-14 20:19:57.607
 ***** ** ***  *** **   PROGRAM RAN ON            blg9214.int.ets1.calculquebec.
 **    ****   ******    PROGRAM RAN BY                                       rzk
 ***** **    ** ** **   PROGRAM PROCESS ID                                208956
  **** **  *******  **  PROGRAM STOPPED IN /lustre04/scratch/rzk/rzk/GaN-carbene
                                           /443-adatoms-both-2x2/09-BondBreaking
                                           -CH/03-0501-CH-to-Nsur-PES/Phase02
