 DBCSR| Multiplication driver                                               BLAS
 DBCSR| Multrec recursion limit                                              512
 DBCSR| Multiplication stack size                                           1000
 DBCSR| Maximum elements for images                                    UNLIMITED
 DBCSR| Multiplicative factor virtual images                                   1
 DBCSR| Multiplication size stacks                                             3
 DBCSR| Number of 3D layers                                               SINGLE
 DBCSR| Use MPI memory allocation                                              T
 DBCSR| Use RMA algorithm                                                      F
 DBCSR| Use Communication thread                                               T
 DBCSR| Communication thread load                                             87


  **** **** ******  **  PROGRAM STARTED AT               2019-07-17 08:24:42.639
 ***** ** ***  *** **   PROGRAM STARTED ON        blg8417.int.ets1.calculquebec.
 **    ****   ******    PROGRAM STARTED BY                                   rzk
 ***** **    ** ** **   PROGRAM PROCESS ID                                362092
  **** **  *******  **  PROGRAM STARTED IN /lustre04/scratch/rzk/rzk/GaN-carbene
                                           /443-adatoms-both-2x2/09-BondBreaking
                                           -CH/03-0501-CH-to-Nsur-PES/Phase02

 CP2K| version string:                    CP2K version 7.0 (Development Version)
 CP2K| source code revision number:                                    svn:18619
 CP2K| cp2kflags: libint fftw3 libxc parallel mpi3 scalapack mkl                
 CP2K| is freely available from                            https://www.cp2k.org/
 CP2K| Program compiled at                          Sun Apr  7 00:48:11 EDT 2019
 CP2K| Program compiled on                      beluga2.int.ets1.calculquebec.ca
 CP2K| Program compiled for                    Beluga-Linux-x86-64-intel-openmpi
 CP2K| Data directory path    /home/rzk/projects/def-rzk/group/cp2k/cp2k-mcgill/
 CP2K| Input file name                                            TEST-1.restart
 
 GLOBAL| Force Environment number                                              1
 GLOBAL| Basis set file name                                        BASIS_MOLOPT
 GLOBAL| Potential file name                                      GTH_POTENTIALS
 GLOBAL| MM Potential file name                                     MM_POTENTIAL
 GLOBAL| Coordinate file name                                      __STD_INPUT__
 GLOBAL| Method name                                                        CP2K
 GLOBAL| Project name                                                       TEST
 GLOBAL| Preferred FFT library                                             FFTW3
 GLOBAL| Preferred diagonalization lib.                                       SL
 GLOBAL| Run type                                                        GEO_OPT
 GLOBAL| All-to-all communication in single precision                          F
 GLOBAL| FFTs using library dependent lengths                                  F
 GLOBAL| Global print level                                               MEDIUM
 GLOBAL| MPI I/O enabled                                                       T
 GLOBAL| Total number of message passing processes                            80
 GLOBAL| Number of threads for this process                                    1
 GLOBAL| This output is from process                                           0
 GLOBAL| CPU model name :  Intel(R) Xeon(R) Gold 6148 CPU @ 2.40GHz

 MEMORY| system memory details [Kb]
 MEMORY|                        rank 0           min           max       average
 MEMORY| MemTotal             97523924      97523924      97523924      97523924
 MEMORY| MemFree              77115148      72756140      77115148      74965629
 MEMORY| Buffers                     0             0            36            18
 MEMORY| Cached                7356872       7356872      11453172       9404992
 MEMORY| Slab                  2355728       2355728       2634960       2495342
 MEMORY| SReclaimable           696000        434784        696000        565392
 MEMORY| MemLikelyFree        85168020      84644132      85168020      84936031


 *** Fundamental physical constants (SI units) ***

 *** Literature: B. J. Mohr and B. N. Taylor,
 ***             CODATA recommended values of the fundamental physical
 ***             constants: 2006, Web Version 5.1
 ***             http://physics.nist.gov/constants

 Speed of light in vacuum [m/s]                             2.99792458000000E+08
 Magnetic constant or permeability of vacuum [N/A**2]       1.25663706143592E-06
 Electric constant or permittivity of vacuum [F/m]          8.85418781762039E-12
 Planck constant (h) [J*s]                                  6.62606896000000E-34
 Planck constant (h-bar) [J*s]                              1.05457162825177E-34
 Elementary charge [C]                                      1.60217648700000E-19
 Electron mass [kg]                                         9.10938215000000E-31
 Electron g factor [ ]                                     -2.00231930436220E+00
 Proton mass [kg]                                           1.67262163700000E-27
 Fine-structure constant                                    7.29735253760000E-03
 Rydberg constant [1/m]                                     1.09737315685270E+07
 Avogadro constant [1/mol]                                  6.02214179000000E+23
 Boltzmann constant [J/K]                                   1.38065040000000E-23
 Atomic mass unit [kg]                                      1.66053878200000E-27
 Bohr radius [m]                                            5.29177208590000E-11

 *** Conversion factors ***

 [u] -> [a.u.]                                              1.82288848426455E+03
 [Angstrom] -> [Bohr] = [a.u.]                              1.88972613288564E+00
 [a.u.] = [Bohr] -> [Angstrom]                              5.29177208590000E-01
 [a.u.] -> [s]                                              2.41888432650478E-17
 [a.u.] -> [fs]                                             2.41888432650478E-02
 [a.u.] -> [J]                                              4.35974393937059E-18
 [a.u.] -> [N]                                              8.23872205491840E-08
 [a.u.] -> [K]                                              3.15774647902944E+05
 [a.u.] -> [kJ/mol]                                         2.62549961709828E+03
 [a.u.] -> [kcal/mol]                                       6.27509468713739E+02
 [a.u.] -> [Pa]                                             2.94210107994716E+13
 [a.u.] -> [bar]                                            2.94210107994716E+08
 [a.u.] -> [atm]                                            2.90362800883016E+08
 [a.u.] -> [eV]                                             2.72113838565563E+01
 [a.u.] -> [Hz]                                             6.57968392072181E+15
 [a.u.] -> [1/cm] (wave numbers)                            2.19474631370540E+05
 [a.u./Bohr**2] -> [1/cm]                                   5.14048714338585E+03
 
          ----------------------------------------------------------------------
 COLVARS| COLVAR INPUT INDEX:        1
 COLVARS| BOND          >>> ATOMS:                                   176     211
          ----------------------------------------------------------------------

 CELL_TOP| Volume [angstrom^3]:                                         4586.323
 CELL_TOP| Vector a [angstrom    12.864     0.000     0.000    |a| =      12.864
 CELL_TOP| Vector b [angstrom    -6.432    11.141     0.000    |b| =      12.864
 CELL_TOP| Vector c [angstrom     0.000     0.000    32.000    |c| =      32.000
 CELL_TOP| Angle (b,c), alpha [degree]:                                   90.000
 CELL_TOP| Angle (a,c), beta  [degree]:                                   90.000
 CELL_TOP| Angle (a,b), gamma [degree]:                                  120.000
 CELL_TOP| Numerically orthorhombic:                                          NO
 RESTRAINT| Active restraint on COLLECTIVE section Nr.     1. K [a.u.]= 2.000000
 
 GENERATE|  Preliminary Number of Bonds generated:                             0
 GENERATE|  Achieved consistency in connectivity generation.

 CELL| Volume [angstrom^3]:                                             4586.323
 CELL| Vector a [angstrom]:      12.864     0.000     0.000    |a| =      12.864
 CELL| Vector b [angstrom]:      -6.432    11.141     0.000    |b| =      12.864
 CELL| Vector c [angstrom]:       0.000     0.000    32.000    |c| =      32.000
 CELL| Angle (b,c), alpha [degree]:                                       90.000
 CELL| Angle (a,c), beta  [degree]:                                       90.000
 CELL| Angle (a,b), gamma [degree]:                                      120.000
 CELL| Numerically orthorhombic:                                              NO

 CELL_REF| Volume [angstrom^3]:                                         4670.759
 CELL_REF| Vector a [angstrom    12.982     0.000     0.000    |a| =      12.982
 CELL_REF| Vector b [angstrom    -6.491    11.243     0.000    |b| =      12.982
 CELL_REF| Vector c [angstrom     0.000     0.000    32.000    |c| =      32.000
 CELL_REF| Angle (b,c), alpha [degree]:                                   90.000
 CELL_REF| Angle (a,c), beta  [degree]:                                   90.000
 CELL_REF| Angle (a,b), gamma [degree]:                                  120.000
 CELL_REF| Numerically orthorhombic:                                          NO

 *******************************************************************************
 *******************************************************************************
 **                                                                           **
 **     #####                         ##              ##                      **
 **    ##   ##            ##          ##              ##                      **
 **   ##     ##                       ##            ######                    **
 **   ##     ##  ##   ##  ##   #####  ##  ##   ####   ##    #####    #####    **
 **   ##     ##  ##   ##  ##  ##      ## ##   ##      ##   ##   ##  ##   ##   **
 **   ##  ## ##  ##   ##  ##  ##      ####     ###    ##   ######   ######    **
 **    ##  ###   ##   ##  ##  ##      ## ##      ##   ##   ##       ##        **
 **     #######   #####   ##   #####  ##  ##  ####    ##    #####   ##        **
 **           ##                                                    ##        **
 **                                                                           **
 **                                                ... make the atoms dance   **
 **                                                                           **
 **            Copyright (C) by CP2K developers group (2000 - 2018)           **
 **                                                                           **
 *******************************************************************************

 DFT| Spin unrestricted (spin-polarized) Kohn-Sham calculation               UKS
 DFT| Multiplicity                                                             1
 DFT| Number of spin states                                                    2
 DFT| Charge                                                                   0
 DFT| Self-interaction correction (SIC)                                       NO
 DFT| Cutoffs: density                                              1.000000E-10
 DFT|          gradient                                             1.000000E-10
 DFT|          tau                                                  1.000000E-10
 DFT|          cutoff_smoothing_range                               0.000000E+00
 DFT| XC density smoothing                                                  NONE
 DFT| XC derivatives                                                          PW
 FUNCTIONAL| ROUTINE=NEW
 FUNCTIONAL| PBE:
 FUNCTIONAL| J.P.Perdew, K.Burke, M.Ernzerhof, Phys. Rev. Letter, vol. 77, n 18,
 FUNCTIONAL|  pp. 3865-3868, (1996){spin polarized}                             
 vdW POTENTIAL|                                                   Pair Potential
 vdW POTENTIAL|          DFT-D3 (Version 3.1)
 vdW POTENTIAL|          Potential Form: S. Grimme et al, JCP 132: 154104 (2010)
 vdW POTENTIAL|          Zero Damping
 vdW POTENTIAL|          Cutoff Radius [Bohr]:                             18.90
 vdW POTENTIAL|          s6 Scaling Factor:                               1.0000
 vdW POTENTIAL|          sr6 Scaling Factor:                              1.2170
 vdW POTENTIAL|          s8 Scaling Factor:                               0.7220
 vdW POTENTIAL|          Cutoff for CN calculation:                   0.1000E-05

 QS| Method:                                                                 GPW
 QS| Density plane wave grid type                        NON-SPHERICAL FULLSPACE
 QS| Number of grid levels:                                                    5
 QS| Density cutoff [a.u.]:                                                600.0
 QS| Multi grid cutoff [a.u.]: 1) grid level                               600.0
 QS|                           2) grid level                               200.0
 QS|                           3) grid level                                66.7
 QS|                           4) grid level                                22.2
 QS|                           5) grid level                                 7.4
 QS| Grid level progression factor:                                          3.0
 QS| Relative density cutoff [a.u.]:                                        20.0
 QS| Consistent realspace mapping and integration 
 QS| Interaction thresholds: eps_pgf_orb:                                1.0E-07
 QS|                         eps_filter_matrix:                          0.0E+00
 QS|                         eps_core_charge:                            1.0E-16
 QS|                         eps_rho_gspace:                             1.0E-14
 QS|                         eps_rho_rspace:                             1.0E-14
 QS|                         eps_gvg_rspace:                             1.0E-07
 QS|                         eps_ppl:                                    1.0E-02
 QS|                         eps_ppnl:                                   1.0E-09


 ATOMIC KIND INFORMATION

  1. Atomic kind: N                                     Number of atoms:     100

     Orbital Basis Set                                        DZVP-MOLOPT-SR-GTH

       Number of orbital shell sets:                                           1
       Number of orbital shells:                                               5
       Number of primitive Cartesian functions:                                5
       Number of Cartesian basis functions:                                   14
       Number of spherical basis functions:                                   13
       Norm type:                                                              2

       Normalised Cartesian orbitals:

                        Set   Shell   Orbital            Exponent    Coefficient

                          1       1    2s                7.341988       0.360561
                                                         2.542637       0.139177
                                                         0.888575      -0.289383
                                                         0.333802      -0.182244
                                                         0.112012      -0.019197

                          1       2    3s                7.341988       0.282000
                                                         2.542637       0.177875
                                                         0.888575      -0.278381
                                                         0.333802       0.008577
                                                         0.112012       0.154176

                          1       3    3px               7.341988      -1.188719
                                                         2.542637      -0.973969
                                                         0.888575      -0.501079
                                                         0.333802      -0.144894
                                                         0.112012      -0.013986
                          1       3    3py               7.341988      -1.188719
                                                         2.542637      -0.973969
                                                         0.888575      -0.501079
                                                         0.333802      -0.144894
                                                         0.112012      -0.013986
                          1       3    3pz               7.341988      -1.188719
                                                         2.542637      -0.973969
                                                         0.888575      -0.501079
                                                         0.333802      -0.144894
                                                         0.112012      -0.013986

                          1       4    4px               7.341988      -0.094798
                                                         2.542637       0.050069
                                                         0.888575      -0.114797
                                                         0.333802       0.144793
                                                         0.112012       0.066710
                          1       4    4py               7.341988      -0.094798
                                                         2.542637       0.050069
                                                         0.888575      -0.114797
                                                         0.333802       0.144793
                                                         0.112012       0.066710
                          1       4    4pz               7.341988      -0.094798
                                                         2.542637       0.050069
                                                         0.888575      -0.114797
                                                         0.333802       0.144793
                                                         0.112012       0.066710

                          1       5    4dx2              7.341988       1.354688
                                                         2.542637       0.690378
                                                         0.888575       0.855359
                                                         0.333802       0.091746
                                                         0.112012       0.001253
                          1       5    4dxy              7.341988       2.346389
                                                         2.542637       1.195770
                                                         0.888575       1.481524
                                                         0.333802       0.158910
                                                         0.112012       0.002169
                          1       5    4dxz              7.341988       2.346389
                                                         2.542637       1.195770
                                                         0.888575       1.481524
                                                         0.333802       0.158910
                                                         0.112012       0.002169
                          1       5    4dy2              7.341988       1.354688
                                                         2.542637       0.690378
                                                         0.888575       0.855359
                                                         0.333802       0.091746
                                                         0.112012       0.001253
                          1       5    4dyz              7.341988       2.346389
                                                         2.542637       1.195770
                                                         0.888575       1.481524
                                                         0.333802       0.158910
                                                         0.112012       0.002169
                          1       5    4dz2              7.341988       1.354688
                                                         2.542637       0.690378
                                                         0.888575       0.855359
                                                         0.333802       0.091746
                                                         0.112012       0.001253

     GTH Potential information for                                    GTH-PBE-q5

       Description:                       Goedecker-Teter-Hutter pseudopotential
                                           Goedecker et al., PRB 54, 1703 (1996)
                                          Hartwigsen et al., PRB 58, 3641 (1998)
                                                      Krack, TCA 114, 145 (2005)

       Gaussian exponent of the core charge distribution:               6.208322
       Electronic configuration (s p d ...):                               2   3

       Parameters of the local part of the GTH pseudopotential:

                          rloc        C1          C2          C3          C4
                        0.283791  -12.415226    1.868096

       Parameters of the non-local part of the GTH pseudopotential:

                   l      r(l)      h(i,j,l)

                   0    0.255405   13.630263
                   1    0.245495

  2. Atomic kind: Ga                                    Number of atoms:     100

     Orbital Basis Set                                        DZVP-MOLOPT-SR-GTH

       Number of orbital shell sets:                                           1
       Number of orbital shells:                                               7
       Number of primitive Cartesian functions:                                6
       Number of Cartesian basis functions:                                   30
       Number of spherical basis functions:                                   25
       Norm type:                                                              2

       Normalised Cartesian orbitals:

                        Set   Shell   Orbital            Exponent    Coefficient

                          1       1    2s                7.066654       0.013136
                                                         3.428369      -0.094392
                                                         1.430064       0.265435
                                                         0.571611       0.056465
                                                         0.232197      -0.192187
                                                         0.076562      -0.044987

                          1       2    3s                7.066654      -0.098564
                                                         3.428369       0.010390
                                                         1.430064       0.351249
                                                         0.571611       0.182615
                                                         0.232197      -0.425358
                                                         0.076562       0.190349

                          1       3    3px               7.066654       0.002364
                                                         3.428369       0.019222
                                                         1.430064       0.250132
                                                         0.571611      -0.058486
                                                         0.232197      -0.159451
                                                         0.076562      -0.020696
                          1       3    3py               7.066654       0.002364
                                                         3.428369       0.019222
                                                         1.430064       0.250132
                                                         0.571611      -0.058486
                                                         0.232197      -0.159451
                                                         0.076562      -0.020696
                          1       3    3pz               7.066654       0.002364
                                                         3.428369       0.019222
                                                         1.430064       0.250132
                                                         0.571611      -0.058486
                                                         0.232197      -0.159451
                                                         0.076562      -0.020696

                          1       4    4px               7.066654       0.492448
                                                         3.428369      -0.614736
                                                         1.430064      -0.191654
                                                         0.571611       0.037801
                                                         0.232197       0.302315
                                                         0.076562      -0.071336
                          1       4    4py               7.066654       0.492448
                                                         3.428369      -0.614736
                                                         1.430064      -0.191654
                                                         0.571611       0.037801
                                                         0.232197       0.302315
                                                         0.076562      -0.071336
                          1       4    4pz               7.066654       0.492448
                                                         3.428369      -0.614736
                                                         1.430064      -0.191654
                                                         0.571611       0.037801
                                                         0.232197       0.302315
                                                         0.076562      -0.071336

                          1       5    4dx2              7.066654     -15.264855
                                                         3.428369      -5.345726
                                                         1.430064      -1.022732
                                                         0.571611      -0.123148
                                                         0.232197      -0.006983
                                                         0.076562      -0.000022
                          1       5    4dxy              7.066654     -26.439504
                                                         3.428369      -9.259069
                                                         1.430064      -1.771423
                                                         0.571611      -0.213299
                                                         0.232197      -0.012094
                                                         0.076562      -0.000037
                          1       5    4dxz              7.066654     -26.439504
                                                         3.428369      -9.259069
                                                         1.430064      -1.771423
                                                         0.571611      -0.213299
                                                         0.232197      -0.012094
                                                         0.076562      -0.000037
                          1       5    4dy2              7.066654     -15.264855
                                                         3.428369      -5.345726
                                                         1.430064      -1.022732
                                                         0.571611      -0.123148
                                                         0.232197      -0.006983
                                                         0.076562      -0.000022
                          1       5    4dyz              7.066654     -26.439504
                                                         3.428369      -9.259069
                                                         1.430064      -1.771423
                                                         0.571611      -0.213299
                                                         0.232197      -0.012094
                                                         0.076562      -0.000037
                          1       5    4dz2              7.066654     -15.264855
                                                         3.428369      -5.345726
                                                         1.430064      -1.022732
                                                         0.571611      -0.123148
                                                         0.232197      -0.006983
                                                         0.076562      -0.000022

                          1       6    5dx2              7.066654      -5.739265
                                                         3.428369      -2.129289
                                                         1.430064      -0.700423
                                                         0.571611       0.161606
                                                         0.232197       0.043513
                                                         0.076562       0.011205
                          1       6    5dxy              7.066654      -9.940698
                                                         3.428369      -3.688037
                                                         1.430064      -1.213168
                                                         0.571611       0.279909
                                                         0.232197       0.075368
                                                         0.076562       0.019407
                          1       6    5dxz              7.066654      -9.940698
                                                         3.428369      -3.688037
                                                         1.430064      -1.213168
                                                         0.571611       0.279909
                                                         0.232197       0.075368
                                                         0.076562       0.019407
                          1       6    5dy2              7.066654      -5.739265
                                                         3.428369      -2.129289
                                                         1.430064      -0.700423
                                                         0.571611       0.161606
                                                         0.232197       0.043513
                                                         0.076562       0.011205
                          1       6    5dyz              7.066654      -9.940698
                                                         3.428369      -3.688037
                                                         1.430064      -1.213168
                                                         0.571611       0.279909
                                                         0.232197       0.075368
                                                         0.076562       0.019407
                          1       6    5dz2              7.066654      -5.739265
                                                         3.428369      -2.129289
                                                         1.430064      -0.700423
                                                         0.571611       0.161606
                                                         0.232197       0.043513
                                                         0.076562       0.011205

                          1       7    5fx3              7.066654       0.705879
                                                         3.428369      -0.273976
                                                         1.430064       0.113667
                                                         0.571611       0.132480
                                                         0.232197       0.012437
                                                         0.076562       0.003241
                          1       7    5fx2y             7.066654       1.578393
                                                         3.428369      -0.612629
                                                         1.430064       0.254167
                                                         0.571611       0.296234
                                                         0.232197       0.027811
                                                         0.076562       0.007246
                          1       7    5fx2z             7.066654       1.578393
                                                         3.428369      -0.612629
                                                         1.430064       0.254167
                                                         0.571611       0.296234
                                                         0.232197       0.027811
                                                         0.076562       0.007246
                          1       7    5fxy2             7.066654       1.578393
                                                         3.428369      -0.612629
                                                         1.430064       0.254167
                                                         0.571611       0.296234
                                                         0.232197       0.027811
                                                         0.076562       0.007246
                          1       7    5fxyz             7.066654       2.733856
                                                         3.428369      -1.061105
                                                         1.430064       0.440230
                                                         0.571611       0.513092
                                                         0.232197       0.048170
                                                         0.076562       0.012551
                          1       7    5fxz2             7.066654       1.578393
                                                         3.428369      -0.612629
                                                         1.430064       0.254167
                                                         0.571611       0.296234
                                                         0.232197       0.027811
                                                         0.076562       0.007246
                          1       7    5fy3              7.066654       0.705879
                                                         3.428369      -0.273976
                                                         1.430064       0.113667
                                                         0.571611       0.132480
                                                         0.232197       0.012437
                                                         0.076562       0.003241
                          1       7    5fy2z             7.066654       1.578393
                                                         3.428369      -0.612629
                                                         1.430064       0.254167
                                                         0.571611       0.296234
                                                         0.232197       0.027811
                                                         0.076562       0.007246
                          1       7    5fyz2             7.066654       1.578393
                                                         3.428369      -0.612629
                                                         1.430064       0.254167
                                                         0.571611       0.296234
                                                         0.232197       0.027811
                                                         0.076562       0.007246
                          1       7    5fz3              7.066654       0.705879
                                                         3.428369      -0.273976
                                                         1.430064       0.113667
                                                         0.571611       0.132480
                                                         0.232197       0.012437
                                                         0.076562       0.003241

     GTH Potential information for                                   GTH-PBE-q13

       Description:                       Goedecker-Teter-Hutter pseudopotential
                                           Goedecker et al., PRB 54, 1703 (1996)
                                          Hartwigsen et al., PRB 58, 3641 (1998)
                                                      Krack, TCA 114, 145 (2005)

       Gaussian exponent of the core charge distribution:               2.082466
       Electronic configuration (s p d ...):                           2   1  10

       Parameters of the local part of the GTH pseudopotential:

                          rloc        C1          C2          C3          C4
                        0.490000

       Parameters of the non-local part of the GTH pseudopotential:

                   l      r(l)      h(i,j,l)

                   0    0.416777   10.475690   -4.921768    0.870706
                                   -4.921768    7.770178   -2.248152
                                    0.870706   -2.248152    1.784415
                   1    0.569627    1.777985    0.195860
                                    0.195860   -0.231744
                   2    0.238126  -16.248680

  3. Atomic kind: O                                     Number of atoms:       2

     Orbital Basis Set                                     DZVP-MOLOPT-SR-GTH-q6

       Number of orbital shell sets:                                           1
       Number of orbital shells:                                               5
       Number of primitive Cartesian functions:                                5
       Number of Cartesian basis functions:                                   14
       Number of spherical basis functions:                                   13
       Norm type:                                                              2

       Normalised Cartesian orbitals:

                        Set   Shell   Orbital            Exponent    Coefficient

                          1       1    2s               10.389228       0.396646
                                                         3.849621       0.208811
                                                         1.388401      -0.301641
                                                         0.496955      -0.274061
                                                         0.162492      -0.033677

                          1       2    3s               10.389228       0.303673
                                                         3.849621       0.240943
                                                         1.388401      -0.313066
                                                         0.496955      -0.043055
                                                         0.162492       0.213991

                          1       3    3px              10.389228      -1.530415
                                                         3.849621      -1.371928
                                                         1.388401      -0.761951
                                                         0.496955      -0.253695
                                                         0.162492      -0.035541
                          1       3    3py              10.389228      -1.530415
                                                         3.849621      -1.371928
                                                         1.388401      -0.761951
                                                         0.496955      -0.253695
                                                         0.162492      -0.035541
                          1       3    3pz              10.389228      -1.530415
                                                         3.849621      -1.371928
                                                         1.388401      -0.761951
                                                         0.496955      -0.253695
                                                         0.162492      -0.035541

                          1       4    4px              10.389228      -0.565392
                                                         3.849621      -0.038231
                                                         1.388401      -0.382373
                                                         0.496955       0.179070
                                                         0.162492       0.122714
                          1       4    4py              10.389228      -0.565392
                                                         3.849621      -0.038231
                                                         1.388401      -0.382373
                                                         0.496955       0.179070
                                                         0.162492       0.122714
                          1       4    4pz              10.389228      -0.565392
                                                         3.849621      -0.038231
                                                         1.388401      -0.382373
                                                         0.496955       0.179070
                                                         0.162492       0.122714

                          1       5    4dx2             10.389228       1.867377
                                                         3.849621       0.670994
                                                         1.388401       1.353441
                                                         0.496955       0.273538
                                                         0.162492       0.006620
                          1       5    4dxy             10.389228       3.234392
                                                         3.849621       1.162195
                                                         1.388401       2.344229
                                                         0.496955       0.473781
                                                         0.162492       0.011466
                          1       5    4dxz             10.389228       3.234392
                                                         3.849621       1.162195
                                                         1.388401       2.344229
                                                         0.496955       0.473781
                                                         0.162492       0.011466
                          1       5    4dy2             10.389228       1.867377
                                                         3.849621       0.670994
                                                         1.388401       1.353441
                                                         0.496955       0.273538
                                                         0.162492       0.006620
                          1       5    4dyz             10.389228       3.234392
                                                         3.849621       1.162195
                                                         1.388401       2.344229
                                                         0.496955       0.473781
                                                         0.162492       0.011466
                          1       5    4dz2             10.389228       1.867377
                                                         3.849621       0.670994
                                                         1.388401       1.353441
                                                         0.496955       0.273538
                                                         0.162492       0.006620

     GTH Potential information for                                    GTH-PBE-q6

       Description:                       Goedecker-Teter-Hutter pseudopotential
                                           Goedecker et al., PRB 54, 1703 (1996)
                                          Hartwigsen et al., PRB 58, 3641 (1998)
                                                      Krack, TCA 114, 145 (2005)

       Gaussian exponent of the core charge distribution:               8.360253
       Electronic configuration (s p d ...):                               2   4

       Parameters of the local part of the GTH pseudopotential:

                          rloc        C1          C2          C3          C4
                        0.244554  -16.667215    2.487311

       Parameters of the non-local part of the GTH pseudopotential:

                   l      r(l)      h(i,j,l)

                   0    0.220956   18.337458
                   1    0.211332

  4. Atomic kind: H                                     Number of atoms:       8

     Orbital Basis Set                                     DZVP-MOLOPT-SR-GTH-q1

       Number of orbital shell sets:                                           1
       Number of orbital shells:                                               3
       Number of primitive Cartesian functions:                                5
       Number of Cartesian basis functions:                                    5
       Number of spherical basis functions:                                    5
       Norm type:                                                              2

       Normalised Cartesian orbitals:

                        Set   Shell   Orbital            Exponent    Coefficient

                          1       1    2s               10.068468      -0.133023
                                                         2.680223      -0.177618
                                                         0.791502      -0.258419
                                                         0.239116      -0.107525
                                                         0.082193      -0.014019

                          1       2    3s               10.068468       0.344673
                                                         2.680223       1.819821
                                                         0.791502      -0.999069
                                                         0.239116       0.017430
                                                         0.082193       0.082660

                          1       3    3px              10.068468       0.155326
                                                         2.680223       0.367157
                                                         0.791502       0.311480
                                                         0.239116       0.080105
                                                         0.082193       0.033440
                          1       3    3py              10.068468       0.155326
                                                         2.680223       0.367157
                                                         0.791502       0.311480
                                                         0.239116       0.080105
                                                         0.082193       0.033440
                          1       3    3pz              10.068468       0.155326
                                                         2.680223       0.367157
                                                         0.791502       0.311480
                                                         0.239116       0.080105
                                                         0.082193       0.033440

     GTH Potential information for                                    GTH-PBE-q1

       Description:                       Goedecker-Teter-Hutter pseudopotential
                                           Goedecker et al., PRB 54, 1703 (1996)
                                          Hartwigsen et al., PRB 58, 3641 (1998)
                                                      Krack, TCA 114, 145 (2005)

       Gaussian exponent of the core charge distribution:              12.500000
       Electronic configuration (s p d ...):                                   1

       Parameters of the local part of the GTH pseudopotential:

                          rloc        C1          C2          C3          C4
                        0.200000   -4.178900    0.724463

  5. Atomic kind: C                                     Number of atoms:       2

     Orbital Basis Set                                     DZVP-MOLOPT-SR-GTH-q4

       Number of orbital shell sets:                                           1
       Number of orbital shells:                                               5
       Number of primitive Cartesian functions:                                5
       Number of Cartesian basis functions:                                   14
       Number of spherical basis functions:                                   13
       Norm type:                                                              2

       Normalised Cartesian orbitals:

                        Set   Shell   Orbital            Exponent    Coefficient

                          1       1    2s                5.605331       0.322515
                                                         2.113016       0.213043
                                                         0.769911      -0.209686
                                                         0.348157      -0.219794
                                                         0.128212      -0.022789

                          1       2    3s                5.605331       0.552234
                                                         2.113016       0.082072
                                                         0.769911       0.007843
                                                         0.348157       0.136893
                                                         0.128212       0.074283

                          1       3    3px               5.605331      -0.703879
                                                         2.113016      -0.642521
                                                         0.769911      -0.374851
                                                         0.348157      -0.139743
                                                         0.128212      -0.027849
                          1       3    3py               5.605331      -0.703879
                                                         2.113016      -0.642521
                                                         0.769911      -0.374851
                                                         0.348157      -0.139743
                                                         0.128212      -0.027849
                          1       3    3pz               5.605331      -0.703879
                                                         2.113016      -0.642521
                                                         0.769911      -0.374851
                                                         0.348157      -0.139743
                                                         0.128212      -0.027849

                          1       4    4px               5.605331      -0.480376
                                                         2.113016      -0.552894
                                                         0.769911      -0.316145
                                                         0.348157       0.210505
                                                         0.128212       0.076095
                          1       4    4py               5.605331      -0.480376
                                                         2.113016      -0.552894
                                                         0.769911      -0.316145
                                                         0.348157       0.210505
                                                         0.128212       0.076095
                          1       4    4pz               5.605331      -0.480376
                                                         2.113016      -0.552894
                                                         0.769911      -0.316145
                                                         0.348157       0.210505
                                                         0.128212       0.076095

                          1       5    4dx2              5.605331       0.640026
                                                         2.113016       0.274300
                                                         0.769911       0.446711
                                                         0.348157       0.028674
                                                         0.128212       0.029790
                          1       5    4dxy              5.605331       1.108557
                                                         2.113016       0.475102
                                                         0.769911       0.773726
                                                         0.348157       0.049666
                                                         0.128212       0.051599
                          1       5    4dxz              5.605331       1.108557
                                                         2.113016       0.475102
                                                         0.769911       0.773726
                                                         0.348157       0.049666
                                                         0.128212       0.051599
                          1       5    4dy2              5.605331       0.640026
                                                         2.113016       0.274300
                                                         0.769911       0.446711
                                                         0.348157       0.028674
                                                         0.128212       0.029790
                          1       5    4dyz              5.605331       1.108557
                                                         2.113016       0.475102
                                                         0.769911       0.773726
                                                         0.348157       0.049666
                                                         0.128212       0.051599
                          1       5    4dz2              5.605331       0.640026
                                                         2.113016       0.274300
                                                         0.769911       0.446711
                                                         0.348157       0.028674
                                                         0.128212       0.029790

     GTH Potential information for                                    GTH-PBE-q4

       Description:                       Goedecker-Teter-Hutter pseudopotential
                                           Goedecker et al., PRB 54, 1703 (1996)
                                          Hartwigsen et al., PRB 58, 3641 (1998)
                                                      Krack, TCA 114, 145 (2005)

       Gaussian exponent of the core charge distribution:               4.364419
       Electronic configuration (s p d ...):                               2   2

       Parameters of the local part of the GTH pseudopotential:

                          rloc        C1          C2          C3          C4
                        0.338471   -8.803674    1.339211

       Parameters of the non-local part of the GTH pseudopotential:

                   l      r(l)      h(i,j,l)

                   0    0.302576    9.622487
                   1    0.291507


 MOLECULE KIND INFORMATION


 All atoms are their own molecule, skipping detailed information


 TOTAL NUMBERS AND MAXIMUM NUMBERS

  Total number of            - Atomic kinds:                                   5
                             - Atoms:                                        212
                             - Shell sets:                                   212
                             - Shells:                                      1244
                             - Primitive Cartesian functions:               1160
                             - Cartesian basis functions:                   4496
                             - Spherical basis functions:                   3892

  Maximum angular momentum of- Orbital basis functions:                        3
                             - Local part of the GTH pseudopotential:          2
                             - Non-local part of the GTH pseudopotential:      4


 MODULE QUICKSTEP:  ATOMIC COORDINATES IN angstrom

  Atom  Kind  Element       X           Y           Z          Z(eff)       Mass

       1     1 N    7   -0.028803    2.102490    2.466305      5.00      14.0067
       2     2 Ga  31   -0.043877    0.149928    2.811256     13.00      69.7230
       3     1 N    7   -0.021085    0.104541    4.985211      5.00      14.0067
       4     2 Ga  31   -0.027616    1.937814    5.747085     13.00      69.7230
       5     1 N    7   -0.030722    1.951886    7.751542      5.00      14.0067
       6     2 Ga  31   -0.028482    0.108557    8.402500     13.00      69.7230
       7     1 N    7   -0.027231    0.106042   10.377055      5.00      14.0067
       8     2 Ga  31   -0.024774    1.945994   11.027875     13.00      69.7230
       9     1 N    7   -0.025757    1.927144   13.020857      5.00      14.0067
      10     2 Ga  31   -0.019171    0.109426   13.819700     13.00      69.7230
      11     1 N    7   -0.018787    0.111017   16.026775      5.00      14.0067
      12     2 Ga  31   -0.024339    2.161166   16.446099     13.00      69.7230
      13     2 Ga  31    0.041243    3.829428    1.308345     13.00      69.7230
      14     1 N    7   -1.491260    4.687304    2.493204      5.00      14.0067
      15     2 Ga  31   -1.696531    2.856673    3.207905     13.00      69.7230
      16     1 N    7   -1.652107    2.882380    5.184550      5.00      14.0067
      17     2 Ga  31   -1.654885    4.741248    5.796983     13.00      69.7230
      18     1 N    7   -1.642203    4.747037    7.779130      5.00      14.0067
      19     2 Ga  31   -1.626918    2.888077    8.405921     13.00      69.7230
      20     1 N    7   -1.624753    2.895497   10.396286      5.00      14.0067
      21     2 Ga  31   -1.654299    4.754720   11.035055     13.00      69.7230
      22     1 N    7   -1.668633    4.766648   13.027837      5.00      14.0067
      23     2 Ga  31   -1.623652    2.896817   13.580506     13.00      69.7230
      24     1 N    7   -1.649779    2.875814   15.541459      5.00      14.0067
      25     2 Ga  31   -1.475243    4.656423   16.446151     13.00      69.7230
      26     1 N    7   -0.035425    3.823317   17.585556      5.00      14.0067
      27     1 N    7   -3.224967    7.667258    2.524791      5.00      14.0067
      28     2 Ga  31   -3.117523    5.681127    2.987691     13.00      69.7230
      29     1 N    7   -3.211980    5.695839    5.048456      5.00      14.0067
      30     2 Ga  31   -3.241871    7.505471    5.811477     13.00      69.7230
      31     1 N    7   -3.242707    7.527086    7.784030      5.00      14.0067
      32     2 Ga  31   -3.253405    5.667947    8.403163     13.00      69.7230
      33     1 N    7   -3.246091    5.674481   10.376996      5.00      14.0067
      34     2 Ga  31   -3.248562    7.512514   11.034658     13.00      69.7230
      35     1 N    7   -3.244769    7.495523   13.027103      5.00      14.0067
      36     2 Ga  31   -3.246533    5.675207   13.839104     13.00      69.7230
      37     1 N    7   -3.244741    5.676393   16.029586      5.00      14.0067
      38     2 Ga  31   -3.242918    7.722199   16.450531     13.00      69.7230
      39     2 Ga  31   -3.226813    9.418769    1.498413     13.00      69.7230
      40     1 N    7   -4.744775   10.249122    2.492850      5.00      14.0067
      41     2 Ga  31   -4.898856    8.434187    3.304212     13.00      69.7230
      42     1 N    7   -4.858564    8.451114    5.225839      5.00      14.0067
      43     2 Ga  31   -4.880877   10.342359    5.772159     13.00      69.7230
      44     1 N    7   -4.861669   10.321130    7.761717      5.00      14.0067
      45     2 Ga  31   -4.853734    8.464010    8.398764     13.00      69.7230
      46     1 N    7   -4.844647    8.466204   10.389704      5.00      14.0067
      47     2 Ga  31   -4.865918   10.327032   11.026566     13.00      69.7230
      48     1 N    7   -4.881224   10.336133   13.019513      5.00      14.0067
      49     2 Ga  31   -4.840762    8.468641   13.582481     13.00      69.7230
      50     1 N    7   -4.872782    8.456889   15.542204      5.00      14.0067
      51     2 Ga  31   -4.675701   10.220784   16.450374     13.00      69.7230
      52     1 N    7   -3.244062    9.382977   17.592155      5.00      14.0067
      53     1 N    7    3.181469    1.961926    2.561024      5.00      14.0067
      54     2 Ga  31    3.198399    0.247011    3.261523     13.00      69.7230
      55     1 N    7    3.192228    0.097317    5.219716      5.00      14.0067
      56     2 Ga  31    3.216942    1.987630    5.790176     13.00      69.7230
      57     1 N    7    3.195732    1.964304    7.784274      5.00      14.0067
      58     2 Ga  31    3.185796    0.105466    8.398116     13.00      69.7230
      59     1 N    7    3.186892    0.095483   10.390429      5.00      14.0067
      60     2 Ga  31    3.192097    1.965872   10.979739     13.00      69.7230
      61     1 N    7    3.190449    1.964156   12.951136      5.00      14.0067
      62     2 Ga  31    3.189066    0.096598   13.579268     13.00      69.7230
      63     1 N    7    3.188609    0.126636   15.538098      5.00      14.0067
      64     2 Ga  31    3.191158    1.964229   15.817538     13.00      69.7230
      65     1 N    7    1.444147    4.691351    2.497867      5.00      14.0067
      66     2 Ga  31    1.671632    2.848008    3.232528     13.00      69.7230
      67     1 N    7    1.582202    2.892529    5.213393      5.00      14.0067
      68     2 Ga  31    1.611671    4.748822    5.794645     13.00      69.7230
      69     1 N    7    1.589811    4.752065    7.779472      5.00      14.0067
      70     2 Ga  31    1.577223    2.887220    8.387925     13.00      69.7230
      71     1 N    7    1.570949    2.893999   10.384743      5.00      14.0067
      72     2 Ga  31    1.601087    4.752134   11.024853     13.00      69.7230
      73     1 N    7    1.614421    4.765071   13.019314      5.00      14.0067
      74     2 Ga  31    1.572952    2.896873   13.578633     13.00      69.7230
      75     1 N    7    1.598198    2.882200   15.538080      5.00      14.0067
      76     2 Ga  31    1.411585    4.647702   16.447179     13.00      69.7230
      77     1 N    7   -0.021013    7.517493    2.695803      5.00      14.0067
      78     2 Ga  31   -0.022157    5.655419    3.329109     13.00      69.7230
      79     1 N    7   -0.026516    5.688980    5.261527      5.00      14.0067
      80     2 Ga  31   -0.016340    7.528747    5.897999     13.00      69.7230
      81     1 N    7   -0.026631    7.533662    7.851517      5.00      14.0067
      82     2 Ga  31   -0.025363    5.658079    8.422532     13.00      69.7230
      83     1 N    7   -0.027811    5.662576   10.408241      5.00      14.0067
      84     2 Ga  31   -0.026722    7.531508   11.000755     13.00      69.7230
      85     1 N    7   -0.024615    7.534338   12.969599      5.00      14.0067
      86     2 Ga  31   -0.025280    5.660497   13.581903     13.00      69.7230
      87     1 N    7   -0.020210    5.697259   15.542152      5.00      14.0067
      88     2 Ga  31   -0.027883    7.533028   15.818125     13.00      69.7230
      89     1 N    7   -1.728824   10.239848    2.517707      5.00      14.0067
      90     2 Ga  31   -1.588704    8.453757    3.340617     13.00      69.7230
      91     1 N    7   -1.620594    8.454483    5.258555      5.00      14.0067
      92     2 Ga  31   -1.609918   10.341986    5.808751     13.00      69.7230
      93     1 N    7   -1.629940   10.319763    7.788838      5.00      14.0067
      94     2 Ga  31   -1.646986    8.470036    8.431913     13.00      69.7230
      95     1 N    7   -1.647118    8.467271   10.413847      5.00      14.0067
      96     2 Ga  31   -1.621156   10.333349   11.030581     13.00      69.7230
      97     1 N    7   -1.604293   10.338677   13.022790      5.00      14.0067
      98     2 Ga  31   -1.648371    8.470457   13.582891     13.00      69.7230
      99     1 N    7   -1.613608    8.456516   15.542435      5.00      14.0067
     100     2 Ga  31   -1.809388   10.221267   16.450181     13.00      69.7230
     101     1 N    7    6.446761    1.964049    2.493053      5.00      14.0067
     102     2 Ga  31    6.427263    0.117475    2.913461     13.00      69.7230
     103     1 N    7    6.401783    0.074873    5.053955      5.00      14.0067
     104     2 Ga  31    6.395124    1.950340    5.707371     13.00      69.7230
     105     1 N    7    6.406069    1.955724    7.729878      5.00      14.0067
     106     2 Ga  31    6.406738    0.119785    8.402484     13.00      69.7230
     107     1 N    7    6.405781    0.109876   10.378879      5.00      14.0067
     108     2 Ga  31    6.403828    1.952740   11.020258     13.00      69.7230
     109     1 N    7    6.404975    1.929688   13.015207      5.00      14.0067
     110     2 Ga  31    6.397646    0.114532   13.822652     13.00      69.7230
     111     1 N    7    6.397040    0.113591   16.027455      5.00      14.0067
     112     2 Ga  31    6.403992    2.173990   16.462241     13.00      69.7230
     113     2 Ga  31    8.948317    1.639000    0.590895     13.00      69.7230
     114     1 N    7    4.712571    4.731276    2.496959      5.00      14.0067
     115     2 Ga  31    4.803399    2.810746    3.030060     13.00      69.7230
     116     1 N    7    4.804120    2.895083    5.108190      5.00      14.0067
     117     2 Ga  31    4.801821    4.753482    5.674465     13.00      69.7230
     118     1 N    7    4.797111    4.756406    7.707189      5.00      14.0067
     119     2 Ga  31    4.811328    2.902932    8.368317     13.00      69.7230
     120     1 N    7    4.807915    2.899889   10.372222      5.00      14.0067
     121     2 Ga  31    4.785402    4.753060   11.022623     13.00      69.7230
     122     1 N    7    4.768060    4.765060   13.016197      5.00      14.0067
     123     2 Ga  31    4.808568    2.897761   13.580609     13.00      69.7230
     124     1 N    7    4.780317    2.882149   15.537520      5.00      14.0067
     125     2 Ga  31    4.979204    4.641875   16.462154     13.00      69.7230
     126     1 N    7    6.409816    3.822795   17.612475      5.00      14.0067
     127     1 N    7    3.165818    7.660731    2.490796      5.00      14.0067
     128     1 N    7    3.164963    5.689410    5.025789      5.00      14.0067
     129     2 Ga  31    3.190078    7.501841    5.786989     13.00      69.7230
     130     1 N    7    3.189164    7.526256    7.771255      5.00      14.0067
     131     2 Ga  31    3.204909    5.668346    8.392571     13.00      69.7230
     132     1 N    7    3.194109    5.674656   10.371381      5.00      14.0067
     133     2 Ga  31    3.194678    7.511314   11.028412     13.00      69.7230
     134     1 N    7    3.191403    7.494458   13.026766      5.00      14.0067
     135     2 Ga  31    3.192584    5.666331   13.821259     13.00      69.7230
     136     1 N    7    3.191006    5.666599   16.027581      5.00      14.0067
     137     2 Ga  31    3.190423    7.675844   16.402617     13.00      69.7230
     138     2 Ga  31    3.160900    9.426430    1.217149     13.00      69.7230
     139     1 N    7    1.674774   10.254568    2.510962      5.00      14.0067
     140     2 Ga  31    1.581331    8.470601    3.292720     13.00      69.7230
     141     1 N    7    1.569049    8.455353    5.235955      5.00      14.0067
     142     2 Ga  31    1.554941   10.335251    5.797475     13.00      69.7230
     143     1 N    7    1.577020   10.320052    7.782491      5.00      14.0067
     144     2 Ga  31    1.596942    8.468753    8.425381     13.00      69.7230
     145     1 N    7    1.593635    8.467623   10.411396      5.00      14.0067
     146     2 Ga  31    1.565155   10.332242   11.031583     13.00      69.7230
     147     1 N    7    1.548229   10.339255   13.029218      5.00      14.0067
     148     2 Ga  31    1.594889    8.469123   13.576047     13.00      69.7230
     149     1 N    7    1.573800    8.457080   15.549976      5.00      14.0067
     150     2 Ga  31    1.703623   10.249617   16.401559     13.00      69.7230
     151     1 N    7    3.185776    9.390062   17.525611      5.00      14.0067
     152     1 N    7    9.593489    1.938607    2.524282      5.00      14.0067
     153     2 Ga  31    9.619739    0.150687    3.269381     13.00      69.7230
     154     1 N    7    9.620591    0.112651    5.219892      5.00      14.0067
     155     2 Ga  31    9.608142    1.977004    5.827674     13.00      69.7230
     156     1 N    7    9.618620    1.964743    7.804596      5.00      14.0067
     157     2 Ga  31    9.625002    0.099116    8.401853     13.00      69.7230
     158     1 N    7    9.623361    0.093938   10.395141      5.00      14.0067
     159     2 Ga  31    9.617054    1.965212   10.983638     13.00      69.7230
     160     1 N    7    9.620305    1.961700   12.956800      5.00      14.0067
     161     2 Ga  31    9.622264    0.095167   13.574174     13.00      69.7230
     162     1 N    7    9.623868    0.117043   15.548001      5.00      14.0067
     163     2 Ga  31    9.620451    1.966115   15.820074     13.00      69.7230
     164     1 N    7    8.136617    4.718626    2.498180      5.00      14.0067
     165     2 Ga  31    7.983759    2.858147    3.179216     13.00      69.7230
     166     1 N    7    8.025121    2.899927    5.163612      5.00      14.0067
     167     2 Ga  31    8.008109    4.772821    5.706092     13.00      69.7230
     168     1 N    7    8.015943    4.759827    7.721333      5.00      14.0067
     169     2 Ga  31    7.996272    2.902623    8.376015     13.00      69.7230
     170     1 N    7    8.002034    2.900705   10.377471      5.00      14.0067
     171     2 Ga  31    8.025375    4.755037   11.027691     13.00      69.7230
     172     1 N    7    8.044340    4.766519   13.021166      5.00      14.0067
     173     2 Ga  31    8.000313    2.898655   13.582302     13.00      69.7230
     174     1 N    7    8.030384    2.877441   15.539809      5.00      14.0067
     175     2 Ga  31    7.839420    4.648237   16.462287     13.00      69.7230
     176     1 N    7    6.384157    7.591117    2.607774      5.00      14.0067
     177     2 Ga  31    6.405977    5.647863    2.903684     13.00      69.7230
     178     1 N    7    6.410140    5.679152    5.022620      5.00      14.0067
     179     2 Ga  31    6.392669    7.477549    5.796630     13.00      69.7230
     180     1 N    7    6.403815    7.521494    7.778821      5.00      14.0067
     181     2 Ga  31    6.401828    5.657849    8.383609     13.00      69.7230
     182     1 N    7    6.405348    5.663268   10.380120      5.00      14.0067
     183     2 Ga  31    6.404385    7.528915   10.985510     13.00      69.7230
     184     1 N    7    6.403505    7.533774   12.956941      5.00      14.0067
     185     2 Ga  31    6.405172    5.662422   13.582717     13.00      69.7230
     186     1 N    7    6.401126    5.698802   15.539867      5.00      14.0067
     187     2 Ga  31    6.407509    7.531326   15.821547     13.00      69.7230
     188     1 N    7    4.696399   10.278969    2.486414      5.00      14.0067
     189     2 Ga  31    4.784703    8.470252    3.254235     13.00      69.7230
     190     1 N    7    4.801732    8.455706    5.202000      5.00      14.0067
     191     2 Ga  31    4.831554   10.335928    5.762697     13.00      69.7230
     192     1 N    7    4.807259   10.321424    7.756484      5.00      14.0067
     193     2 Ga  31    4.795150    8.463802    8.392684     13.00      69.7230
     194     1 N    7    4.789633    8.467369   10.387586      5.00      14.0067
     195     2 Ga  31    4.814090   10.326693   11.027295     13.00      69.7230
     196     1 N    7    4.830387   10.336903   13.025336      5.00      14.0067
     197     2 Ga  31    4.787964    8.467560   13.575371     13.00      69.7230
     198     1 N    7    4.807400    8.458142   15.548515      5.00      14.0067
     199     2 Ga  31    4.671611   10.246234   16.402180     13.00      69.7230
     200     3 O    8    0.015376    3.868646   -0.504535      6.00      15.9994
     201     4 H    1   -0.033110    7.504090    1.668988      1.00       1.0079
     202     5 C    6   -0.704563    2.821115   -1.162850      4.00      12.0107
     203     4 H    1   -0.390954    1.817699   -0.829863      1.00       1.0079
     204     4 H    1   -1.798379    2.906360   -1.017962      1.00       1.0079
     205     4 H    1   -0.503729    2.905303   -2.241214      1.00       1.0079
     206     2 Ga  31    3.087108    5.706745    2.938304     13.00      69.7230
     207     3 O    8    6.775994    5.490558    0.779772      6.00      15.9994
     208     4 H    1    4.817649    4.707938    1.470684      1.00       1.0079
     209     5 C    6    7.928696    4.812970    0.997609      4.00      12.0107
     210     4 H    1    8.824489    5.283185    0.528128      1.00       1.0079
     211     4 H    1    6.422746    7.628644    1.606200      1.00       1.0079
     212     4 H    1    7.902373    3.752834    0.573447      1.00       1.0079




 SCF PARAMETERS         Density guess:                                    ATOMIC
                        --------------------------------------------------------
                        max_scf:                                              80
                        max_scf_history:                                       0
                        max_diis:                                              4
                        --------------------------------------------------------
                        eps_scf:                                        5.00E-06
                        eps_scf_history:                                0.00E+00
                        eps_diis:                                       1.00E-01
                        eps_eigval:                                     1.00E-05
                        --------------------------------------------------------
                        level_shift [a.u.]:                                 0.00
                        --------------------------------------------------------
                        Outer loop SCF in use 
                        No variables optimised in outer loop
                        eps_scf                                         5.00E-06
                        max_scf                                                4
                        No outer loop optimization
                        step_size                                       5.00E-01

 PW_GRID| Information for grid number                                          1
 PW_GRID| Grid distributed over                                    80 processors
 PW_GRID| Real space group dimensions                                    80    1
 PW_GRID| the grid is blocked:                                                NO
 PW_GRID| Cutoff [a.u.]                                                    600.0
 PW_GRID| spherical cutoff:                                                   NO
 PW_GRID|   Bounds   1           -144     143                Points:         288
 PW_GRID|   Bounds   2           -144     143                Points:         288
 PW_GRID|   Bounds   3           -337     337                Points:         675
 PW_GRID| Volume element (a.u.^3)  0.5630E-03     Volume (a.u.^3)     31519.8467
 PW_GRID| Grid span                                                    FULLSPACE
 PW_GRID|   Distribution                         Average         Max         Min
 PW_GRID|   G-Vectors                           699840.0      699840      699840
 PW_GRID|   G-Rays                                2430.0        2430        2430
 PW_GRID|   Real Space Points                   699840.0      777600      583200

 PW_GRID| Information for grid number                                          2
 PW_GRID| Grid distributed over                                    80 processors
 PW_GRID| Real space group dimensions                                    80    1
 PW_GRID| the grid is blocked:                                                NO
 PW_GRID| Cutoff [a.u.]                                                    200.0
 PW_GRID| spherical cutoff:                                                   NO
 PW_GRID|   Bounds   1            -80      79                Points:         160
 PW_GRID|   Bounds   2            -80      79                Points:         160
 PW_GRID|   Bounds   3           -200     199                Points:         400
 PW_GRID| Volume element (a.u.^3)  0.3078E-02     Volume (a.u.^3)     31519.8467
 PW_GRID| Grid span                                                    FULLSPACE
 PW_GRID|   Distribution                         Average         Max         Min
 PW_GRID|   G-Vectors                           128000.0      128160      127840
 PW_GRID|   G-Rays                                 800.0         801         799
 PW_GRID|   Real Space Points                   128000.0      128000      128000

 PW_GRID| Information for grid number                                          3
 PW_GRID| Grid distributed over                                    80 processors
 PW_GRID| Real space group dimensions                                    80    1
 PW_GRID| the grid is blocked:                                                NO
 PW_GRID| Cutoff [a.u.]                                                     66.7
 PW_GRID| spherical cutoff:                                                   NO
 PW_GRID|   Bounds   1            -48      47                Points:          96
 PW_GRID|   Bounds   2            -48      47                Points:          96
 PW_GRID|   Bounds   3           -112     112                Points:         225
 PW_GRID| Volume element (a.u.^3)  0.1520E-01     Volume (a.u.^3)     31519.8467
 PW_GRID| Grid span                                                    FULLSPACE
[...]
 flops   991 x    64 x    50         100463616000     100.0%      0.0%      0.0%
 flops    13 x    25 x    50         100854390000     100.0%      0.0%      0.0%
 flops    25 x    13 x    50         101206495000     100.0%      0.0%      0.0%
 flops   242 x    64 x   178         128977125376     100.0%      0.0%      0.0%
 flops   242 x    64 x   183         132600078336     100.0%      0.0%      0.0%
 flops   973 x    32 x    50         135628416000     100.0%      0.0%      0.0%
 flops   973 x    50 x    32         135628416000     100.0%      0.0%      0.0%
 flops   242 x    64 x   195         141295165440     100.0%      0.0%      0.0%
 flops    25 x    18 x    13         141926136300     100.0%      0.0%      0.0%
 flops    13 x    18 x    25         141926136300     100.0%      0.0%      0.0%
 flops   242 x    32 x    32         146925363200     100.0%      0.0%      0.0%
 flops   955 x    32 x   178         156053539840     100.0%      0.0%      0.0%
 flops   955 x    32 x   183         160437066240     100.0%      0.0%      0.0%
 flops   991 x    32 x   178         161936186368     100.0%      0.0%      0.0%
 flops   991 x    32 x   183         166484955648     100.0%      0.0%      0.0%
 flops   955 x    32 x   195         170957529600     100.0%      0.0%      0.0%
 flops   991 x    32 x   195         177402001920     100.0%      0.0%      0.0%
 flops    25 x    25 x    50         193793750000     100.0%      0.0%      0.0%
 flops   973 x    64 x    50         197277696000     100.0%      0.0%      0.0%
 flops   973 x    50 x    64         197277696000     100.0%      0.0%      0.0%
 flops     5 x    32 x    25         201371520000     100.0%      0.0%      0.0%
 flops    25 x    32 x     5         201371520000     100.0%      0.0%      0.0%
 flops   242 x    64 x    32         213709619200     100.0%      0.0%      0.0%
 flops   242 x    32 x    64         213709619200     100.0%      0.0%      0.0%
 flops   955 x    64 x   178         226986967040     100.0%      0.0%      0.0%
 flops   955 x    64 x   183         233363005440     100.0%      0.0%      0.0%
 flops   991 x    64 x   178         235543543808     100.0%      0.0%      0.0%
 flops   991 x    64 x   183         242159935488     100.0%      0.0%      0.0%
 flops   224 x    32 x   178         246229057536     100.0%      0.0%      0.0%
 flops   955 x    64 x   195         248665497600     100.0%      0.0%      0.0%
 flops   224 x    32 x   183         253145604096     100.0%      0.0%      0.0%
 flops   991 x    64 x   195         258039275520     100.0%      0.0%      0.0%
 flops    25 x    18 x    25         269550000000     100.0%      0.0%      0.0%
 flops   224 x    32 x   195         269745315840     100.0%      0.0%      0.0%
 flops   242 x    64 x    64         310850355200     100.0%      0.0%      0.0%
 flops   973 x    32 x   178         317989726208     100.0%      0.0%      0.0%
 flops   973 x    32 x   183         326922021888     100.0%      0.0%      0.0%
 flops   973 x    32 x   195         348359531520     100.0%      0.0%      0.0%
 flops   224 x    64 x   178         358151356416     100.0%      0.0%      0.0%
 flops    13 x    13 x    32         360097520640     100.0%      0.0%      0.0%
 flops   224 x    64 x   183         368211787776     100.0%      0.0%      0.0%
 flops   224 x    64 x   195         392356823040     100.0%      0.0%      0.0%
 flops   224 x    32 x    32         407991091200     100.0%      0.0%      0.0%
 flops   973 x    64 x   178         462530510848     100.0%      0.0%      0.0%
 flops   955 x    32 x    32         468580147200     100.0%      0.0%      0.0%
 flops   973 x    64 x   183         475522940928     100.0%      0.0%      0.0%
 flops   991 x    32 x    32         486243901440     100.0%      0.0%      0.0%
 flops   973 x    64 x   195         506704773120     100.0%      0.0%      0.0%
 flops    13 x    13 x    64         523778211840     100.0%      0.0%      0.0%
 flops   224 x    32 x    64         593441587200     100.0%      0.0%      0.0%
 flops   224 x    64 x    32         593441587200     100.0%      0.0%      0.0%
 flops   955 x    32 x    64         681571123200     100.0%      0.0%      0.0%
 flops   955 x    64 x    32         681571123200     100.0%      0.0%      0.0%
 flops   991 x    32 x    64         707263856640     100.0%      0.0%      0.0%
 flops   991 x    64 x    32         707263856640     100.0%      0.0%      0.0%
 flops    13 x    25 x    32         710014905600     100.0%      0.0%      0.0%
 flops    25 x    13 x    32         712493724800     100.0%      0.0%      0.0%
 flops   224 x    64 x    64         863187763200     100.0%      0.0%      0.0%
 flops   973 x    32 x    32         954824048640     100.0%      0.0%      0.0%
 flops   955 x    64 x    64         991376179200     100.0%      0.0%      0.0%
 flops   991 x    64 x    64        1028747427840     100.0%      0.0%      0.0%
 flops    13 x    25 x    64        1032748953600     100.0%      0.0%      0.0%
 flops    25 x    13 x    64        1036354508800     100.0%      0.0%      0.0%
 flops    25 x    25 x    32        1364308000000     100.0%      0.0%      0.0%
 flops   973 x    64 x    32        1388834979840     100.0%      0.0%      0.0%
 flops   973 x    32 x    64        1388834979840     100.0%      0.0%      0.0%
 flops    25 x    25 x    64        1984448000000     100.0%      0.0%      0.0%
 flops   973 x    64 x    64        2020123607040     100.0%      0.0%      0.0%
 flops    13 x    32 x    13        3539082939392     100.0%      0.0%      0.0%
 flops    25 x    32 x    13        7064767673600     100.0%      0.0%      0.0%
 flops    13 x    32 x    25        7064767673600     100.0%      0.0%      0.0%
 flops    25 x    32 x    25       13417600000000     100.0%      0.0%      0.0%
 flops inhomo. stacks              23694369271776     100.0%      0.0%      0.0%
 flops total                        88.815543E+12     100.0%      0.0%      0.0%
 flops max/rank                      1.541785E+12     100.0%      0.0%      0.0%
 matmuls inhomo. stacks                   2367680     100.0%      0.0%      0.0%
 matmuls total                         1761674954     100.0%      0.0%      0.0%
 number of processed stacks              31932736     100.0%      0.0%      0.0%
 average stack size                                    55.2       0.0       0.0
 marketing flops                    94.790012E+12
 -------------------------------------------------------------------------------
 # multiplications                           8424
 max memory usage/rank               1.382494E+09
 # max total images/rank                        5
 # max 3D layers                                1
 # MPI messages exchanged                76826880
 MPI messages size (bytes):
  total size                         9.393973E+12
  min size                           0.000000E+00
  max size                           1.894792E+06
  average size                     122.274562E+03
 MPI breakdown and total messages size (bytes):
             size <=      128              555560                        0
       128 < size <=     8192            10191676              83490209792
      8192 < size <=    32768            23489244             479181892096
     32768 < size <=   131072            33561600            2433920198976
    131072 < size <=  4194304             9028800            6398453837168
   4194304 < size <= 16777216                   0                        0
  16777216 < size                               0                        0
 -------------------------------------------------------------------------------

 *** WARNING in dbcsr/mm/dbcsr_mm.F:268 :: Using a non-square number of ***
 *** MPI ranks might lead to poor performance.                          ***
 *** Used ranks: 80                                                     ***
 *** Suggested: 81 169                                                  ***

 -------------------------------------------------------------------------------
 
 MEMORY| Estimated peak process memory [MiB]                                1344

 -------------------------------------------------------------------------------
 ----                             MULTIGRID INFO                            ----
 -------------------------------------------------------------------------------
 count for grid        1:        1099892          cutoff [a.u.]          600.00
 count for grid        2:        3932492          cutoff [a.u.]          200.00
 count for grid        3:        3113758          cutoff [a.u.]           66.67
 count for grid        4:        3545473          cutoff [a.u.]           22.22
 count for grid        5:        2689212          cutoff [a.u.]            7.41
 total gridlevel count  :       14380827

 -------------------------------------------------------------------------------
 -                                                                             -
 -                         MESSAGE PASSING PERFORMANCE                         -
 -                                                                             -
 -------------------------------------------------------------------------------

 ROUTINE             CALLS      AVE VOLUME [Bytes]
 MP_Group              862
 MP_Bcast            13667                  28142.
 MP_Allreduce        80344                    328.
 MP_Sync               422
 MP_Alltoall         47312                5321198.
 MP_SendRecv          4740                   5926.
 MP_ISendRecv       214722                 133520.
 MP_Wait           1873209
 MP_comm_split         417
 MP_ISend          2159048                 115764.
 MP_IRecv          2159700                 115670.
 MP_Recv               266                 162816.
 MP_Memory          938126
 -------------------------------------------------------------------------------


 -------------------------------------------------------------------------------
 -                                                                             -
 -                           R E F E R E N C E S                               -
 -                                                                             -
 -------------------------------------------------------------------------------
 
 CP2K version 7.0 (Development Version), the CP2K developers group (2018).
 CP2K is freely available from https://www.cp2k.org/ .

 Schuett, Ole; Messmer, Peter; Hutter, Juerg; VandeVondele, Joost. 
 Electronic Structure Calculations on Graphics Processing Units, John Wiley & Sons, Ltd, 173-190 (2016). 
 GPU-Accelerated Sparse Matrix-Matrix Multiplication for Linear Scaling Density Functional Theory.
 http://dx.doi.org/10.1002/9781118670712.ch8


 Borstnik, U; VandeVondele, J; Weber, V; Hutter, J. 
 PARALLEL COMPUTING, 40 (5-6), 47-58 (2014). 
 Sparse matrix multiplication: The distributed block-compressed sparse
 row library.
 http://dx.doi.org/10.1016/j.parco.2014.03.012


 Hutter, J; Iannuzzi, M; Schiffmann, F; VandeVondele, J. 
 WILEY INTERDISCIPLINARY REVIEWS-COMPUTATIONAL MOLECULAR SCIENCE, 4 (1), 15-25 (2014). 
 CP2K: atomistic simulations of condensed matter systems.
 http://dx.doi.org/10.1002/wcms.1159


 Grimme, S; Ehrlich, S; Goerigk, L. 
 JOURNAL OF COMPUTATIONAL CHEMISTRY, 32, 1456 (2011). 
 Effect of the damping function in dispersion corrected density functional theory.
 http://dx.doi.org/10.1002/jcc.21759


 Grimme, S; Antony, J; Ehrlich, S; Krieg, H. 
 JOURNAL OF CHEMICAL PHYSICS, 132 (15), 154104 (2010). 
 A consistent and accurate ab initio parametrization of density
 functional dispersion correction (DFT-D) for the 94 elements H-Pu.
 http://dx.doi.org/10.1063/1.3382344


 VandeVondele, J; Hutter, J. 
 JOURNAL OF CHEMICAL PHYSICS, 127 (11), 114105 (2007). 
 Gaussian basis sets for accurate calculations on molecular systems in
 gas and condensed phases.
 http://dx.doi.org/10.1063/1.2770708


 Krack, M. 
 THEORETICAL CHEMISTRY ACCOUNTS, 114 (1-3), 145-152 (2005). 
 Pseudopotentials for H to Kr optimized for gradient-corrected
 exchange-correlation functionals.
 http://dx.doi.org/10.1007/s00214-005-0655-y


 VandeVondele, J; Krack, M; Mohamed, F; Parrinello, M; Chassaing, T;
 Hutter, J. COMPUTER PHYSICS COMMUNICATIONS, 167 (2), 103-128 (2005). 
 QUICKSTEP: Fast and accurate density functional calculations using a
 mixed Gaussian and plane waves approach.
 http://dx.doi.org/10.1016/j.cpc.2004.12.014


 Frigo, M; Johnson, SG. 
 PROCEEDINGS OF THE IEEE, 93 (2), 216-231 (2005). 
 The design and implementation of FFTW3.
 http://dx.doi.org/10.1109/JPROC.2004.840301


 Kolafa, J. 
 JOURNAL OF COMPUTATIONAL CHEMISTRY, 25 (3), 335-342 (2004). 
 Time-reversible always stable predictor-corrector method for molecular dynamics of polarizable molecules.
 http://dx.doi.org/10.1002/jcc.10385


 VandeVondele, J; Hutter, J. 
 JOURNAL OF CHEMICAL PHYSICS, 118 (10), 4365-4369 (2003). 
 An efficient orbital transformation method for electronic structure
 calculations.
 http://dx.doi.org/10.1063/1.1543154


 Hartwigsen, C; Goedecker, S; Hutter, J. 
 PHYSICAL REVIEW B, 58 (7), 3641-3662 (1998). 
 Relativistic separable dual-space Gaussian pseudopotentials from H to Rn.
 http://dx.doi.org/10.1103/PhysRevB.58.3641


 Lippert, G; Hutter, J; Parrinello, M. 
 MOLECULAR PHYSICS, 92 (3), 477-487 (1997). 
 A hybrid Gaussian and plane wave density functional scheme.
 http://dx.doi.org/10.1080/002689797170220


 Perdew, JP; Burke, K; Ernzerhof, M. 
 PHYSICAL REVIEW LETTERS, 77 (18), 3865-3868 (1996). 
 Generalized gradient approximation made simple.
 http://dx.doi.org/10.1103/PhysRevLett.77.3865


 Goedecker, S; Teter, M; Hutter, J. 
 PHYSICAL REVIEW B, 54 (3), 1703-1710 (1996). 
 Separable dual-space Gaussian pseudopotentials.
 http://dx.doi.org/10.1103/PhysRevB.54.1703


 -------------------------------------------------------------------------------
 -                                                                             -
 -                                T I M I N G                                  -
 -                                                                             -
 -------------------------------------------------------------------------------
 SUBROUTINE                       CALLS  ASD         SELF TIME        TOTAL TIME
                                MAXIMUM       AVERAGE  MAXIMUM  AVERAGE  MAXIMUM
 CP2K                                 1  1.0    0.202    0.275 4497.196 4497.242
 cp_geo_opt                           1  2.0    0.014    0.032 4495.668 4495.687
 geoopt_bfgs                          1  3.0    0.116    0.154 4495.654 4495.663
 cp_eval_at                          16  4.0    0.008    0.022 4486.617 4486.649
 qs_forces                           15  5.0    0.017    0.046 4402.908 4402.922
 qs_energies                         16  5.9    0.017    0.043 4166.155 4166.216
 scf_env_do_scf                      16  6.9    0.010    0.036 3946.413 3946.423
 scf_env_do_scf_inner_loop          276  8.0    0.030    0.055 3547.725 3547.743
 rebuild_ks_matrix                  291  9.8    0.002    0.012 1958.532 1958.862
 qs_ks_build_kohn_sham_matrix       291 10.8    0.110    0.234 1958.530 1958.860
 qs_ks_update_qs_env                293  9.0    0.005    0.024 1673.565 1673.892
 qs_rho_update_rho                  292  9.0    0.021    0.037 1602.626 1603.442
 calculate_rho_elec                 584 10.0  759.841  774.246 1602.605 1603.405
 sum_up_and_integrate               161 11.7    2.894    3.338 1041.618 1042.151
 integrate_v_rspace                 322 12.7  557.969  582.964 1038.722 1039.702
 pw_transfer                       9198 13.3    1.150    1.738 1023.167 1027.652
 fft_wrap_pw1pw2                   8616 14.4    0.118    0.212 1017.619 1022.209
 fft_wrap_pw1pw2_600               4992 15.6   71.587   80.431  951.884  955.063
 fft3d_ps                          8616 16.4  307.950  338.869  852.803  863.273
 rs_pw_transfer                    4609 12.9    0.064    0.073  832.442  843.632
 density_rs2pw                      584 11.0    0.048    0.064  754.935  770.513
 qs_vxc_create                      291 11.8    0.013    0.027  714.936  715.136
 dbcsr_multiply_generic            8424 13.7    0.582    0.837  605.535  606.990
 mp_waitall_1                   1706801 16.7  536.584  558.249  536.584  558.249
 qs_scf_new_mos                     276  9.0    0.016    0.034  534.425  534.831
 qs_scf_loop_do_ot                  276 10.0    0.024    0.064  534.408  534.828
 xc_vxc_pw_create                   161 12.7   28.308   32.342  529.433  529.555
 mp_alltoall_z22v                  8616 18.4  458.906  517.259  458.906  517.259
 ot_scf_mini                        276 11.0    0.071    0.150  487.291  487.608
 multiply_cannon                   8424 14.7    2.691    2.887  461.960  474.892
 xc_rho_set_and_dset_create         291 13.8    5.551    6.047  394.283  401.044
 init_scf_loop                       17  7.9    0.006    0.016  398.173  398.192
 potential_pw2rs                    322 13.7    0.265    0.305  388.763  389.814
 mp_waitany                      166408 14.9  333.466  369.505  333.466  369.505
 rs_pw_transfer_RS2PW_600           616 12.9  154.293  173.344  346.328  358.651
 x_to_yz                           3748 18.0   50.194   57.702  311.948  332.960
 multiply_cannon_metrocomm3      168480 15.7    0.463    0.507  269.375  304.790
 qs_ks_update_qs_env_forces          15  6.0    0.000    0.000  287.589  287.652
 yz_to_x                           3056 16.8   29.644   32.242  226.344  257.332
 ot_mini                            276 12.0    0.003    0.014  250.942  251.303
 rs_pw_transfer_PW2RS_600           369 15.2  103.337  115.710  236.913  246.787
 prepare_preconditioner              17  8.9    0.000    0.001  215.683  215.735
 make_preconditioner                 34  9.9    0.003    0.016  199.086  199.119
 xc_exc_calc                        130 13.0    0.632    0.733  185.490  185.602
 make_full_all                       34 10.9    0.016    0.048  182.615  182.746
 qs_ot_get_derivative               292 13.0    0.004    0.007  158.328  158.611
 cp_fm_syevd                        417 13.9    0.004    0.005  144.820  145.340
 cp_fm_redistribute_end             417 14.9   48.066  139.648   48.942  140.443
 mp_alltoall_d11v                  9754 15.2  117.456  138.137  117.456  138.137
 multiply_cannon_metrocomm1      168480 15.7    0.535    0.595  103.483  136.780
 cp_fm_syevd_base                   417 14.6   90.952  135.343   90.952  135.343
 init_scf_run                        16  6.9    0.002    0.003  135.333  135.336
 scf_env_initial_rho_setup           16  7.9    0.003    0.004  135.330  135.334
 rs_distribute_matrix               936 11.9    1.392    2.853  109.606  129.799
 wfi_extrapolate                     16  8.9    0.016    0.058  127.730  127.747
 qs_ot_get_p                        586 11.9    0.009    0.037  102.485  103.871
 apply_preconditioner_dbcsr         326 14.0    0.001    0.002  101.612  101.832
 apply_all                          326 15.0    0.038    0.064  101.611  101.831
 ot_new_cg_direction                146 13.0    0.008    0.046   90.794   90.825
 -------------------------------------------------------------------------------

 The number of warnings for this run is : 1
 
 -------------------------------------------------------------------------------
  **** **** ******  **  PROGRAM ENDED AT                 2019-07-17 09:39:55.903
 ***** ** ***  *** **   PROGRAM RAN ON            blg8417.int.ets1.calculquebec.
 **    ****   ******    PROGRAM RAN BY                                       rzk
 ***** **    ** ** **   PROGRAM PROCESS ID                                362092
  **** **  *******  **  PROGRAM STOPPED IN /lustre04/scratch/rzk/rzk/GaN-carbene
                                           /443-adatoms-both-2x2/09-BondBreaking
                                           -CH/03-0501-CH-to-Nsur-PES/Phase02
