 DBCSR| Multiplication driver                                               BLAS
 DBCSR| Multrec recursion limit                                              512
 DBCSR| Multiplication stack size                                           1000
 DBCSR| Maximum elements for images                                    UNLIMITED
 DBCSR| Multiplicative factor virtual images                                   1
 DBCSR| Multiplication size stacks                                             3
 DBCSR| Number of 3D layers                                               SINGLE
 DBCSR| Use MPI memory allocation                                              T
 DBCSR| Use RMA algorithm                                                      F
 DBCSR| Use Communication thread                                               T
 DBCSR| Communication thread load                                             87


  **** **** ******  **  PROGRAM STARTED AT               2019-07-14 16:45:25.633
 ***** ** ***  *** **   PROGRAM STARTED ON        blg9251.int.ets1.calculquebec.
 **    ****   ******    PROGRAM STARTED BY                                   rzk
 ***** **    ** ** **   PROGRAM PROCESS ID                                213273
  **** **  *******  **  PROGRAM STARTED IN /lustre04/scratch/rzk/rzk/GaN-carbene
                                           /443-adatoms-both-2x2/09-BondBreaking
                                           -CH/03-0501-CH-to-Nsur-PES/Phase02

 CP2K| version string:                    CP2K version 7.0 (Development Version)
 CP2K| source code revision number:                                    svn:18619
 CP2K| cp2kflags: libint fftw3 libxc parallel mpi3 scalapack mkl                
 CP2K| is freely available from                            https://www.cp2k.org/
 CP2K| Program compiled at                          Sun Apr  7 00:48:11 EDT 2019
 CP2K| Program compiled on                      beluga2.int.ets1.calculquebec.ca
 CP2K| Program compiled for                    Beluga-Linux-x86-64-intel-openmpi
 CP2K| Data directory path    /home/rzk/projects/def-rzk/group/cp2k/cp2k-mcgill/
 CP2K| Input file name                                            TEST-1.restart
 
 GLOBAL| Force Environment number                                              1
 GLOBAL| Basis set file name                                        BASIS_MOLOPT
 GLOBAL| Potential file name                                      GTH_POTENTIALS
 GLOBAL| MM Potential file name                                     MM_POTENTIAL
 GLOBAL| Coordinate file name                                      __STD_INPUT__
 GLOBAL| Method name                                                        CP2K
 GLOBAL| Project name                                                       TEST
 GLOBAL| Preferred FFT library                                             FFTW3
 GLOBAL| Preferred diagonalization lib.                                       SL
 GLOBAL| Run type                                                        GEO_OPT
 GLOBAL| All-to-all communication in single precision                          F
 GLOBAL| FFTs using library dependent lengths                                  F
 GLOBAL| Global print level                                               MEDIUM
 GLOBAL| MPI I/O enabled                                                       T
 GLOBAL| Total number of message passing processes                            80
 GLOBAL| Number of threads for this process                                    1
 GLOBAL| This output is from process                                           0
 GLOBAL| CPU model name :  Intel(R) Xeon(R) Gold 6148 CPU @ 2.40GHz

 MEMORY| system memory details [Kb]
 MEMORY|                        rank 0           min           max       average
 MEMORY| MemTotal            196614296     196614296     196614300     196614298
 MEMORY| MemFree             181378356     181374016     182504888     181893671
 MEMORY| Buffers                     0             0             0             0
 MEMORY| Cached                1431536       1322136       1431536       1376836
 MEMORY| Slab                  1823628       1196692       1823628       1510160
 MEMORY| SReclaimable           161424        155424        161424        158424
 MEMORY| MemLikelyFree       182971316     182966976     183982448     183428931


 *** Fundamental physical constants (SI units) ***

 *** Literature: B. J. Mohr and B. N. Taylor,
 ***             CODATA recommended values of the fundamental physical
 ***             constants: 2006, Web Version 5.1
 ***             http://physics.nist.gov/constants

 Speed of light in vacuum [m/s]                             2.99792458000000E+08
 Magnetic constant or permeability of vacuum [N/A**2]       1.25663706143592E-06
 Electric constant or permittivity of vacuum [F/m]          8.85418781762039E-12
 Planck constant (h) [J*s]                                  6.62606896000000E-34
 Planck constant (h-bar) [J*s]                              1.05457162825177E-34
 Elementary charge [C]                                      1.60217648700000E-19
 Electron mass [kg]                                         9.10938215000000E-31
 Electron g factor [ ]                                     -2.00231930436220E+00
 Proton mass [kg]                                           1.67262163700000E-27
 Fine-structure constant                                    7.29735253760000E-03
 Rydberg constant [1/m]                                     1.09737315685270E+07
 Avogadro constant [1/mol]                                  6.02214179000000E+23
 Boltzmann constant [J/K]                                   1.38065040000000E-23
 Atomic mass unit [kg]                                      1.66053878200000E-27
 Bohr radius [m]                                            5.29177208590000E-11

 *** Conversion factors ***

 [u] -> [a.u.]                                              1.82288848426455E+03
 [Angstrom] -> [Bohr] = [a.u.]                              1.88972613288564E+00
 [a.u.] = [Bohr] -> [Angstrom]                              5.29177208590000E-01
 [a.u.] -> [s]                                              2.41888432650478E-17
 [a.u.] -> [fs]                                             2.41888432650478E-02
 [a.u.] -> [J]                                              4.35974393937059E-18
 [a.u.] -> [N]                                              8.23872205491840E-08
 [a.u.] -> [K]                                              3.15774647902944E+05
 [a.u.] -> [kJ/mol]                                         2.62549961709828E+03
 [a.u.] -> [kcal/mol]                                       6.27509468713739E+02
 [a.u.] -> [Pa]                                             2.94210107994716E+13
 [a.u.] -> [bar]                                            2.94210107994716E+08
 [a.u.] -> [atm]                                            2.90362800883016E+08
 [a.u.] -> [eV]                                             2.72113838565563E+01
 [a.u.] -> [Hz]                                             6.57968392072181E+15
 [a.u.] -> [1/cm] (wave numbers)                            2.19474631370540E+05
 [a.u./Bohr**2] -> [1/cm]                                   5.14048714338585E+03
 
          ----------------------------------------------------------------------
 COLVARS| COLVAR INPUT INDEX:        1
 COLVARS| BOND          >>> ATOMS:                                   176     211
          ----------------------------------------------------------------------

 CELL_TOP| Volume [angstrom^3]:                                         4586.323
 CELL_TOP| Vector a [angstrom    12.864     0.000     0.000    |a| =      12.864
 CELL_TOP| Vector b [angstrom    -6.432    11.141     0.000    |b| =      12.864
 CELL_TOP| Vector c [angstrom     0.000     0.000    32.000    |c| =      32.000
 CELL_TOP| Angle (b,c), alpha [degree]:                                   90.000
 CELL_TOP| Angle (a,c), beta  [degree]:                                   90.000
 CELL_TOP| Angle (a,b), gamma [degree]:                                  120.000
 CELL_TOP| Numerically orthorhombic:                                          NO
 RESTRAINT| Active restraint on COLLECTIVE section Nr.     1. K [a.u.]= 2.000000
 
 GENERATE|  Preliminary Number of Bonds generated:                             0
 GENERATE|  Achieved consistency in connectivity generation.

 CELL| Volume [angstrom^3]:                                             4586.323
 CELL| Vector a [angstrom]:      12.864     0.000     0.000    |a| =      12.864
 CELL| Vector b [angstrom]:      -6.432    11.141     0.000    |b| =      12.864
 CELL| Vector c [angstrom]:       0.000     0.000    32.000    |c| =      32.000
 CELL| Angle (b,c), alpha [degree]:                                       90.000
 CELL| Angle (a,c), beta  [degree]:                                       90.000
 CELL| Angle (a,b), gamma [degree]:                                      120.000
 CELL| Numerically orthorhombic:                                              NO

 CELL_REF| Volume [angstrom^3]:                                         4670.759
 CELL_REF| Vector a [angstrom    12.982     0.000     0.000    |a| =      12.982
 CELL_REF| Vector b [angstrom    -6.491    11.243     0.000    |b| =      12.982
 CELL_REF| Vector c [angstrom     0.000     0.000    32.000    |c| =      32.000
 CELL_REF| Angle (b,c), alpha [degree]:                                   90.000
 CELL_REF| Angle (a,c), beta  [degree]:                                   90.000
 CELL_REF| Angle (a,b), gamma [degree]:                                  120.000
 CELL_REF| Numerically orthorhombic:                                          NO

 *******************************************************************************
 *******************************************************************************
 **                                                                           **
 **     #####                         ##              ##                      **
 **    ##   ##            ##          ##              ##                      **
 **   ##     ##                       ##            ######                    **
 **   ##     ##  ##   ##  ##   #####  ##  ##   ####   ##    #####    #####    **
 **   ##     ##  ##   ##  ##  ##      ## ##   ##      ##   ##   ##  ##   ##   **
 **   ##  ## ##  ##   ##  ##  ##      ####     ###    ##   ######   ######    **
 **    ##  ###   ##   ##  ##  ##      ## ##      ##   ##   ##       ##        **
 **     #######   #####   ##   #####  ##  ##  ####    ##    #####   ##        **
 **           ##                                                    ##        **
 **                                                                           **
 **                                                ... make the atoms dance   **
 **                                                                           **
 **            Copyright (C) by CP2K developers group (2000 - 2018)           **
 **                                                                           **
 *******************************************************************************

 DFT| Spin unrestricted (spin-polarized) Kohn-Sham calculation               UKS
 DFT| Multiplicity                                                             1
 DFT| Number of spin states                                                    2
 DFT| Charge                                                                   0
 DFT| Self-interaction correction (SIC)                                       NO
 DFT| Cutoffs: density                                              1.000000E-10
 DFT|          gradient                                             1.000000E-10
 DFT|          tau                                                  1.000000E-10
 DFT|          cutoff_smoothing_range                               0.000000E+00
 DFT| XC density smoothing                                                  NONE
 DFT| XC derivatives                                                          PW
 FUNCTIONAL| ROUTINE=NEW
 FUNCTIONAL| PBE:
 FUNCTIONAL| J.P.Perdew, K.Burke, M.Ernzerhof, Phys. Rev. Letter, vol. 77, n 18,
 FUNCTIONAL|  pp. 3865-3868, (1996){spin polarized}                             
 vdW POTENTIAL|                                                   Pair Potential
 vdW POTENTIAL|          DFT-D3 (Version 3.1)
 vdW POTENTIAL|          Potential Form: S. Grimme et al, JCP 132: 154104 (2010)
 vdW POTENTIAL|          Zero Damping
 vdW POTENTIAL|          Cutoff Radius [Bohr]:                             18.90
 vdW POTENTIAL|          s6 Scaling Factor:                               1.0000
 vdW POTENTIAL|          sr6 Scaling Factor:                              1.2170
 vdW POTENTIAL|          s8 Scaling Factor:                               0.7220
 vdW POTENTIAL|          Cutoff for CN calculation:                   0.1000E-05

 QS| Method:                                                                 GPW
 QS| Density plane wave grid type                        NON-SPHERICAL FULLSPACE
 QS| Number of grid levels:                                                    5
 QS| Density cutoff [a.u.]:                                                600.0
 QS| Multi grid cutoff [a.u.]: 1) grid level                               600.0
 QS|                           2) grid level                               200.0
 QS|                           3) grid level                                66.7
 QS|                           4) grid level                                22.2
 QS|                           5) grid level                                 7.4
 QS| Grid level progression factor:                                          3.0
 QS| Relative density cutoff [a.u.]:                                        20.0
 QS| Consistent realspace mapping and integration 
 QS| Interaction thresholds: eps_pgf_orb:                                1.0E-07
 QS|                         eps_filter_matrix:                          0.0E+00
 QS|                         eps_core_charge:                            1.0E-16
 QS|                         eps_rho_gspace:                             1.0E-14
 QS|                         eps_rho_rspace:                             1.0E-14
 QS|                         eps_gvg_rspace:                             1.0E-07
 QS|                         eps_ppl:                                    1.0E-02
 QS|                         eps_ppnl:                                   1.0E-09


 ATOMIC KIND INFORMATION

  1. Atomic kind: N                                     Number of atoms:     100

     Orbital Basis Set                                        DZVP-MOLOPT-SR-GTH

       Number of orbital shell sets:                                           1
       Number of orbital shells:                                               5
       Number of primitive Cartesian functions:                                5
       Number of Cartesian basis functions:                                   14
       Number of spherical basis functions:                                   13
       Norm type:                                                              2

       Normalised Cartesian orbitals:

                        Set   Shell   Orbital            Exponent    Coefficient

                          1       1    2s                7.341988       0.360561
                                                         2.542637       0.139177
                                                         0.888575      -0.289383
                                                         0.333802      -0.182244
                                                         0.112012      -0.019197

                          1       2    3s                7.341988       0.282000
                                                         2.542637       0.177875
                                                         0.888575      -0.278381
                                                         0.333802       0.008577
                                                         0.112012       0.154176

                          1       3    3px               7.341988      -1.188719
                                                         2.542637      -0.973969
                                                         0.888575      -0.501079
                                                         0.333802      -0.144894
                                                         0.112012      -0.013986
                          1       3    3py               7.341988      -1.188719
                                                         2.542637      -0.973969
                                                         0.888575      -0.501079
                                                         0.333802      -0.144894
                                                         0.112012      -0.013986
                          1       3    3pz               7.341988      -1.188719
                                                         2.542637      -0.973969
                                                         0.888575      -0.501079
                                                         0.333802      -0.144894
                                                         0.112012      -0.013986

                          1       4    4px               7.341988      -0.094798
                                                         2.542637       0.050069
                                                         0.888575      -0.114797
                                                         0.333802       0.144793
                                                         0.112012       0.066710
                          1       4    4py               7.341988      -0.094798
                                                         2.542637       0.050069
                                                         0.888575      -0.114797
                                                         0.333802       0.144793
                                                         0.112012       0.066710
                          1       4    4pz               7.341988      -0.094798
                                                         2.542637       0.050069
                                                         0.888575      -0.114797
                                                         0.333802       0.144793
                                                         0.112012       0.066710

                          1       5    4dx2              7.341988       1.354688
                                                         2.542637       0.690378
                                                         0.888575       0.855359
                                                         0.333802       0.091746
                                                         0.112012       0.001253
                          1       5    4dxy              7.341988       2.346389
                                                         2.542637       1.195770
                                                         0.888575       1.481524
                                                         0.333802       0.158910
                                                         0.112012       0.002169
                          1       5    4dxz              7.341988       2.346389
                                                         2.542637       1.195770
                                                         0.888575       1.481524
                                                         0.333802       0.158910
                                                         0.112012       0.002169
                          1       5    4dy2              7.341988       1.354688
                                                         2.542637       0.690378
                                                         0.888575       0.855359
                                                         0.333802       0.091746
                                                         0.112012       0.001253
                          1       5    4dyz              7.341988       2.346389
                                                         2.542637       1.195770
                                                         0.888575       1.481524
                                                         0.333802       0.158910
                                                         0.112012       0.002169
                          1       5    4dz2              7.341988       1.354688
                                                         2.542637       0.690378
                                                         0.888575       0.855359
                                                         0.333802       0.091746
                                                         0.112012       0.001253

     GTH Potential information for                                    GTH-PBE-q5

       Description:                       Goedecker-Teter-Hutter pseudopotential
                                           Goedecker et al., PRB 54, 1703 (1996)
                                          Hartwigsen et al., PRB 58, 3641 (1998)
                                                      Krack, TCA 114, 145 (2005)

       Gaussian exponent of the core charge distribution:               6.208322
       Electronic configuration (s p d ...):                               2   3

       Parameters of the local part of the GTH pseudopotential:

                          rloc        C1          C2          C3          C4
                        0.283791  -12.415226    1.868096

       Parameters of the non-local part of the GTH pseudopotential:

                   l      r(l)      h(i,j,l)

                   0    0.255405   13.630263
                   1    0.245495

  2. Atomic kind: Ga                                    Number of atoms:     100

     Orbital Basis Set                                        DZVP-MOLOPT-SR-GTH

       Number of orbital shell sets:                                           1
       Number of orbital shells:                                               7
       Number of primitive Cartesian functions:                                6
       Number of Cartesian basis functions:                                   30
       Number of spherical basis functions:                                   25
       Norm type:                                                              2

       Normalised Cartesian orbitals:

                        Set   Shell   Orbital            Exponent    Coefficient

                          1       1    2s                7.066654       0.013136
                                                         3.428369      -0.094392
                                                         1.430064       0.265435
                                                         0.571611       0.056465
                                                         0.232197      -0.192187
                                                         0.076562      -0.044987

                          1       2    3s                7.066654      -0.098564
                                                         3.428369       0.010390
                                                         1.430064       0.351249
                                                         0.571611       0.182615
                                                         0.232197      -0.425358
                                                         0.076562       0.190349

                          1       3    3px               7.066654       0.002364
                                                         3.428369       0.019222
                                                         1.430064       0.250132
                                                         0.571611      -0.058486
                                                         0.232197      -0.159451
                                                         0.076562      -0.020696
                          1       3    3py               7.066654       0.002364
                                                         3.428369       0.019222
                                                         1.430064       0.250132
                                                         0.571611      -0.058486
                                                         0.232197      -0.159451
                                                         0.076562      -0.020696
                          1       3    3pz               7.066654       0.002364
                                                         3.428369       0.019222
                                                         1.430064       0.250132
                                                         0.571611      -0.058486
                                                         0.232197      -0.159451
                                                         0.076562      -0.020696

                          1       4    4px               7.066654       0.492448
                                                         3.428369      -0.614736
                                                         1.430064      -0.191654
                                                         0.571611       0.037801
                                                         0.232197       0.302315
                                                         0.076562      -0.071336
                          1       4    4py               7.066654       0.492448
                                                         3.428369      -0.614736
                                                         1.430064      -0.191654
                                                         0.571611       0.037801
                                                         0.232197       0.302315
                                                         0.076562      -0.071336
                          1       4    4pz               7.066654       0.492448
                                                         3.428369      -0.614736
                                                         1.430064      -0.191654
                                                         0.571611       0.037801
                                                         0.232197       0.302315
                                                         0.076562      -0.071336

                          1       5    4dx2              7.066654     -15.264855
                                                         3.428369      -5.345726
                                                         1.430064      -1.022732
                                                         0.571611      -0.123148
                                                         0.232197      -0.006983
                                                         0.076562      -0.000022
                          1       5    4dxy              7.066654     -26.439504
                                                         3.428369      -9.259069
                                                         1.430064      -1.771423
                                                         0.571611      -0.213299
                                                         0.232197      -0.012094
                                                         0.076562      -0.000037
                          1       5    4dxz              7.066654     -26.439504
                                                         3.428369      -9.259069
                                                         1.430064      -1.771423
                                                         0.571611      -0.213299
                                                         0.232197      -0.012094
                                                         0.076562      -0.000037
                          1       5    4dy2              7.066654     -15.264855
                                                         3.428369      -5.345726
                                                         1.430064      -1.022732
                                                         0.571611      -0.123148
                                                         0.232197      -0.006983
                                                         0.076562      -0.000022
                          1       5    4dyz              7.066654     -26.439504
                                                         3.428369      -9.259069
                                                         1.430064      -1.771423
                                                         0.571611      -0.213299
                                                         0.232197      -0.012094
                                                         0.076562      -0.000037
                          1       5    4dz2              7.066654     -15.264855
                                                         3.428369      -5.345726
                                                         1.430064      -1.022732
                                                         0.571611      -0.123148
                                                         0.232197      -0.006983
                                                         0.076562      -0.000022

                          1       6    5dx2              7.066654      -5.739265
                                                         3.428369      -2.129289
                                                         1.430064      -0.700423
                                                         0.571611       0.161606
                                                         0.232197       0.043513
                                                         0.076562       0.011205
                          1       6    5dxy              7.066654      -9.940698
                                                         3.428369      -3.688037
                                                         1.430064      -1.213168
                                                         0.571611       0.279909
                                                         0.232197       0.075368
                                                         0.076562       0.019407
                          1       6    5dxz              7.066654      -9.940698
                                                         3.428369      -3.688037
                                                         1.430064      -1.213168
                                                         0.571611       0.279909
                                                         0.232197       0.075368
                                                         0.076562       0.019407
                          1       6    5dy2              7.066654      -5.739265
                                                         3.428369      -2.129289
                                                         1.430064      -0.700423
                                                         0.571611       0.161606
                                                         0.232197       0.043513
                                                         0.076562       0.011205
                          1       6    5dyz              7.066654      -9.940698
                                                         3.428369      -3.688037
                                                         1.430064      -1.213168
                                                         0.571611       0.279909
                                                         0.232197       0.075368
                                                         0.076562       0.019407
                          1       6    5dz2              7.066654      -5.739265
                                                         3.428369      -2.129289
                                                         1.430064      -0.700423
                                                         0.571611       0.161606
                                                         0.232197       0.043513
                                                         0.076562       0.011205

                          1       7    5fx3              7.066654       0.705879
                                                         3.428369      -0.273976
                                                         1.430064       0.113667
                                                         0.571611       0.132480
                                                         0.232197       0.012437
                                                         0.076562       0.003241
                          1       7    5fx2y             7.066654       1.578393
                                                         3.428369      -0.612629
                                                         1.430064       0.254167
                                                         0.571611       0.296234
                                                         0.232197       0.027811
                                                         0.076562       0.007246
                          1       7    5fx2z             7.066654       1.578393
                                                         3.428369      -0.612629
                                                         1.430064       0.254167
                                                         0.571611       0.296234
                                                         0.232197       0.027811
                                                         0.076562       0.007246
                          1       7    5fxy2             7.066654       1.578393
                                                         3.428369      -0.612629
                                                         1.430064       0.254167
                                                         0.571611       0.296234
                                                         0.232197       0.027811
                                                         0.076562       0.007246
                          1       7    5fxyz             7.066654       2.733856
                                                         3.428369      -1.061105
                                                         1.430064       0.440230
                                                         0.571611       0.513092
                                                         0.232197       0.048170
                                                         0.076562       0.012551
                          1       7    5fxz2             7.066654       1.578393
                                                         3.428369      -0.612629
                                                         1.430064       0.254167
                                                         0.571611       0.296234
                                                         0.232197       0.027811
                                                         0.076562       0.007246
                          1       7    5fy3              7.066654       0.705879
                                                         3.428369      -0.273976
                                                         1.430064       0.113667
                                                         0.571611       0.132480
                                                         0.232197       0.012437
                                                         0.076562       0.003241
                          1       7    5fy2z             7.066654       1.578393
                                                         3.428369      -0.612629
                                                         1.430064       0.254167
                                                         0.571611       0.296234
                                                         0.232197       0.027811
                                                         0.076562       0.007246
                          1       7    5fyz2             7.066654       1.578393
                                                         3.428369      -0.612629
                                                         1.430064       0.254167
                                                         0.571611       0.296234
                                                         0.232197       0.027811
                                                         0.076562       0.007246
                          1       7    5fz3              7.066654       0.705879
                                                         3.428369      -0.273976
                                                         1.430064       0.113667
                                                         0.571611       0.132480
                                                         0.232197       0.012437
                                                         0.076562       0.003241

     GTH Potential information for                                   GTH-PBE-q13

       Description:                       Goedecker-Teter-Hutter pseudopotential
                                           Goedecker et al., PRB 54, 1703 (1996)
                                          Hartwigsen et al., PRB 58, 3641 (1998)
                                                      Krack, TCA 114, 145 (2005)

       Gaussian exponent of the core charge distribution:               2.082466
       Electronic configuration (s p d ...):                           2   1  10

       Parameters of the local part of the GTH pseudopotential:

                          rloc        C1          C2          C3          C4
                        0.490000

       Parameters of the non-local part of the GTH pseudopotential:

                   l      r(l)      h(i,j,l)

                   0    0.416777   10.475690   -4.921768    0.870706
                                   -4.921768    7.770178   -2.248152
                                    0.870706   -2.248152    1.784415
                   1    0.569627    1.777985    0.195860
                                    0.195860   -0.231744
                   2    0.238126  -16.248680

  3. Atomic kind: O                                     Number of atoms:       2

     Orbital Basis Set                                     DZVP-MOLOPT-SR-GTH-q6

       Number of orbital shell sets:                                           1
       Number of orbital shells:                                               5
       Number of primitive Cartesian functions:                                5
       Number of Cartesian basis functions:                                   14
       Number of spherical basis functions:                                   13
       Norm type:                                                              2

       Normalised Cartesian orbitals:

                        Set   Shell   Orbital            Exponent    Coefficient

                          1       1    2s               10.389228       0.396646
                                                         3.849621       0.208811
                                                         1.388401      -0.301641
                                                         0.496955      -0.274061
                                                         0.162492      -0.033677

                          1       2    3s               10.389228       0.303673
                                                         3.849621       0.240943
                                                         1.388401      -0.313066
                                                         0.496955      -0.043055
                                                         0.162492       0.213991

                          1       3    3px              10.389228      -1.530415
                                                         3.849621      -1.371928
                                                         1.388401      -0.761951
                                                         0.496955      -0.253695
                                                         0.162492      -0.035541
                          1       3    3py              10.389228      -1.530415
                                                         3.849621      -1.371928
                                                         1.388401      -0.761951
                                                         0.496955      -0.253695
                                                         0.162492      -0.035541
                          1       3    3pz              10.389228      -1.530415
                                                         3.849621      -1.371928
                                                         1.388401      -0.761951
                                                         0.496955      -0.253695
                                                         0.162492      -0.035541

                          1       4    4px              10.389228      -0.565392
                                                         3.849621      -0.038231
                                                         1.388401      -0.382373
                                                         0.496955       0.179070
                                                         0.162492       0.122714
                          1       4    4py              10.389228      -0.565392
                                                         3.849621      -0.038231
                                                         1.388401      -0.382373
                                                         0.496955       0.179070
                                                         0.162492       0.122714
                          1       4    4pz              10.389228      -0.565392
                                                         3.849621      -0.038231
                                                         1.388401      -0.382373
                                                         0.496955       0.179070
                                                         0.162492       0.122714

                          1       5    4dx2             10.389228       1.867377
                                                         3.849621       0.670994
                                                         1.388401       1.353441
                                                         0.496955       0.273538
                                                         0.162492       0.006620
                          1       5    4dxy             10.389228       3.234392
                                                         3.849621       1.162195
                                                         1.388401       2.344229
                                                         0.496955       0.473781
                                                         0.162492       0.011466
                          1       5    4dxz             10.389228       3.234392
                                                         3.849621       1.162195
                                                         1.388401       2.344229
                                                         0.496955       0.473781
                                                         0.162492       0.011466
                          1       5    4dy2             10.389228       1.867377
                                                         3.849621       0.670994
                                                         1.388401       1.353441
                                                         0.496955       0.273538
                                                         0.162492       0.006620
                          1       5    4dyz             10.389228       3.234392
                                                         3.849621       1.162195
                                                         1.388401       2.344229
                                                         0.496955       0.473781
                                                         0.162492       0.011466
                          1       5    4dz2             10.389228       1.867377
                                                         3.849621       0.670994
                                                         1.388401       1.353441
                                                         0.496955       0.273538
                                                         0.162492       0.006620

     GTH Potential information for                                    GTH-PBE-q6

       Description:                       Goedecker-Teter-Hutter pseudopotential
                                           Goedecker et al., PRB 54, 1703 (1996)
                                          Hartwigsen et al., PRB 58, 3641 (1998)
                                                      Krack, TCA 114, 145 (2005)

       Gaussian exponent of the core charge distribution:               8.360253
       Electronic configuration (s p d ...):                               2   4

       Parameters of the local part of the GTH pseudopotential:

                          rloc        C1          C2          C3          C4
                        0.244554  -16.667215    2.487311

       Parameters of the non-local part of the GTH pseudopotential:

                   l      r(l)      h(i,j,l)

                   0    0.220956   18.337458
                   1    0.211332

  4. Atomic kind: H                                     Number of atoms:       8

     Orbital Basis Set                                     DZVP-MOLOPT-SR-GTH-q1

       Number of orbital shell sets:                                           1
       Number of orbital shells:                                               3
       Number of primitive Cartesian functions:                                5
       Number of Cartesian basis functions:                                    5
       Number of spherical basis functions:                                    5
       Norm type:                                                              2

       Normalised Cartesian orbitals:

                        Set   Shell   Orbital            Exponent    Coefficient

                          1       1    2s               10.068468      -0.133023
                                                         2.680223      -0.177618
                                                         0.791502      -0.258419
                                                         0.239116      -0.107525
                                                         0.082193      -0.014019

                          1       2    3s               10.068468       0.344673
                                                         2.680223       1.819821
                                                         0.791502      -0.999069
                                                         0.239116       0.017430
                                                         0.082193       0.082660

                          1       3    3px              10.068468       0.155326
                                                         2.680223       0.367157
                                                         0.791502       0.311480
                                                         0.239116       0.080105
                                                         0.082193       0.033440
                          1       3    3py              10.068468       0.155326
                                                         2.680223       0.367157
                                                         0.791502       0.311480
                                                         0.239116       0.080105
                                                         0.082193       0.033440
                          1       3    3pz              10.068468       0.155326
                                                         2.680223       0.367157
                                                         0.791502       0.311480
                                                         0.239116       0.080105
                                                         0.082193       0.033440

     GTH Potential information for                                    GTH-PBE-q1

       Description:                       Goedecker-Teter-Hutter pseudopotential
                                           Goedecker et al., PRB 54, 1703 (1996)
                                          Hartwigsen et al., PRB 58, 3641 (1998)
                                                      Krack, TCA 114, 145 (2005)

       Gaussian exponent of the core charge distribution:              12.500000
       Electronic configuration (s p d ...):                                   1

       Parameters of the local part of the GTH pseudopotential:

                          rloc        C1          C2          C3          C4
                        0.200000   -4.178900    0.724463

  5. Atomic kind: C                                     Number of atoms:       2

     Orbital Basis Set                                     DZVP-MOLOPT-SR-GTH-q4

       Number of orbital shell sets:                                           1
       Number of orbital shells:                                               5
       Number of primitive Cartesian functions:                                5
       Number of Cartesian basis functions:                                   14
       Number of spherical basis functions:                                   13
       Norm type:                                                              2

       Normalised Cartesian orbitals:

                        Set   Shell   Orbital            Exponent    Coefficient

                          1       1    2s                5.605331       0.322515
                                                         2.113016       0.213043
                                                         0.769911      -0.209686
                                                         0.348157      -0.219794
                                                         0.128212      -0.022789

                          1       2    3s                5.605331       0.552234
                                                         2.113016       0.082072
                                                         0.769911       0.007843
                                                         0.348157       0.136893
                                                         0.128212       0.074283

                          1       3    3px               5.605331      -0.703879
                                                         2.113016      -0.642521
                                                         0.769911      -0.374851
                                                         0.348157      -0.139743
                                                         0.128212      -0.027849
                          1       3    3py               5.605331      -0.703879
                                                         2.113016      -0.642521
                                                         0.769911      -0.374851
                                                         0.348157      -0.139743
                                                         0.128212      -0.027849
                          1       3    3pz               5.605331      -0.703879
                                                         2.113016      -0.642521
                                                         0.769911      -0.374851
                                                         0.348157      -0.139743
                                                         0.128212      -0.027849

                          1       4    4px               5.605331      -0.480376
                                                         2.113016      -0.552894
                                                         0.769911      -0.316145
                                                         0.348157       0.210505
                                                         0.128212       0.076095
                          1       4    4py               5.605331      -0.480376
                                                         2.113016      -0.552894
                                                         0.769911      -0.316145
                                                         0.348157       0.210505
                                                         0.128212       0.076095
                          1       4    4pz               5.605331      -0.480376
                                                         2.113016      -0.552894
                                                         0.769911      -0.316145
                                                         0.348157       0.210505
                                                         0.128212       0.076095

                          1       5    4dx2              5.605331       0.640026
                                                         2.113016       0.274300
                                                         0.769911       0.446711
                                                         0.348157       0.028674
                                                         0.128212       0.029790
                          1       5    4dxy              5.605331       1.108557
                                                         2.113016       0.475102
                                                         0.769911       0.773726
                                                         0.348157       0.049666
                                                         0.128212       0.051599
                          1       5    4dxz              5.605331       1.108557
                                                         2.113016       0.475102
                                                         0.769911       0.773726
                                                         0.348157       0.049666
                                                         0.128212       0.051599
                          1       5    4dy2              5.605331       0.640026
                                                         2.113016       0.274300
                                                         0.769911       0.446711
                                                         0.348157       0.028674
                                                         0.128212       0.029790
                          1       5    4dyz              5.605331       1.108557
                                                         2.113016       0.475102
                                                         0.769911       0.773726
                                                         0.348157       0.049666
                                                         0.128212       0.051599
                          1       5    4dz2              5.605331       0.640026
                                                         2.113016       0.274300
                                                         0.769911       0.446711
                                                         0.348157       0.028674
                                                         0.128212       0.029790

     GTH Potential information for                                    GTH-PBE-q4

       Description:                       Goedecker-Teter-Hutter pseudopotential
                                           Goedecker et al., PRB 54, 1703 (1996)
                                          Hartwigsen et al., PRB 58, 3641 (1998)
                                                      Krack, TCA 114, 145 (2005)

       Gaussian exponent of the core charge distribution:               4.364419
       Electronic configuration (s p d ...):                               2   2

       Parameters of the local part of the GTH pseudopotential:

                          rloc        C1          C2          C3          C4
                        0.338471   -8.803674    1.339211

       Parameters of the non-local part of the GTH pseudopotential:

                   l      r(l)      h(i,j,l)

                   0    0.302576    9.622487
                   1    0.291507


 MOLECULE KIND INFORMATION


 All atoms are their own molecule, skipping detailed information


 TOTAL NUMBERS AND MAXIMUM NUMBERS

  Total number of            - Atomic kinds:                                   5
                             - Atoms:                                        212
                             - Shell sets:                                   212
                             - Shells:                                      1244
                             - Primitive Cartesian functions:               1160
                             - Cartesian basis functions:                   4496
                             - Spherical basis functions:                   3892

  Maximum angular momentum of- Orbital basis functions:                        3
                             - Local part of the GTH pseudopotential:          2
                             - Non-local part of the GTH pseudopotential:      4


 MODULE QUICKSTEP:  ATOMIC COORDINATES IN angstrom

  Atom  Kind  Element       X           Y           Z          Z(eff)       Mass

       1     1 N    7    0.003283    2.046999    2.454343      5.00      14.0067
       2     2 Ga  31   -0.005615    0.095846    2.802421     13.00      69.7230
       3     1 N    7   -0.006386    0.049381    4.965867      5.00      14.0067
       4     2 Ga  31    0.003108    1.884952    5.742763     13.00      69.7230
       5     1 N    7   -0.001412    1.890909    7.743214      5.00      14.0067
       6     2 Ga  31   -0.001413    0.047366    8.395730     13.00      69.7230
       7     1 N    7   -0.002685    0.045439   10.368111      5.00      14.0067
       8     2 Ga  31   -0.002893    1.884819   11.026313     13.00      69.7230
       9     1 N    7   -0.003726    1.865207   13.016674      5.00      14.0067
      10     2 Ga  31   -0.002970    0.045812   13.829706     13.00      69.7230
      11     1 N    7   -0.002125    0.044485   16.022011      5.00      14.0067
      12     2 Ga  31   -0.003991    2.085742   16.438309     13.00      69.7230
      13     2 Ga  31   -0.011161    3.715231    1.253274     13.00      69.7230
      14     1 N    7   -1.472293    4.624827    2.438216      5.00      14.0067
      15     2 Ga  31   -1.669670    2.791126    3.217216     13.00      69.7230
      16     1 N    7   -1.612427    2.832427    5.198232      5.00      14.0067
      17     2 Ga  31   -1.631379    4.697105    5.754277     13.00      69.7230
      18     1 N    7   -1.619301    4.695965    7.747319      5.00      14.0067
      19     2 Ga  31   -1.597858    2.835977    8.390781     13.00      69.7230
      20     1 N    7   -1.599335    2.837900   10.381742      5.00      14.0067
      21     2 Ga  31   -1.627670    4.695508   11.029591     13.00      69.7230
      22     1 N    7   -1.644521    4.706049   13.018314      5.00      14.0067
      23     2 Ga  31   -1.600487    2.837199   13.577711     13.00      69.7230
      24     1 N    7   -1.626451    2.822721   15.536507      5.00      14.0067
      25     2 Ga  31   -1.448863    4.592933   16.438455     13.00      69.7230
      26     1 N    7    0.001741    3.755189   17.581328      5.00      14.0067
      27     1 N    7   -3.232550    7.583600    2.454864      5.00      14.0067
      28     2 Ga  31   -3.186129    5.581295    2.804880     13.00      69.7230
      29     1 N    7   -3.215235    5.610784    4.966704      5.00      14.0067
      30     2 Ga  31   -3.237636    7.433468    5.749057     13.00      69.7230
      31     1 N    7   -3.223582    7.462586    7.739727      5.00      14.0067
      32     2 Ga  31   -3.218678    5.615348    8.400446     13.00      69.7230
      33     1 N    7   -3.219239    5.616709   10.370439      5.00      14.0067
      34     2 Ga  31   -3.220963    7.454147   11.031234     13.00      69.7230
      35     1 N    7   -3.220360    7.435344   13.019176      5.00      14.0067
      36     2 Ga  31   -3.219576    5.615671   13.834615     13.00      69.7230
      37     1 N    7   -3.219798    5.615937   16.021663      5.00      14.0067
      38     2 Ga  31   -3.220309    7.664492   16.441384     13.00      69.7230
      39     2 Ga  31   -3.252308    9.347531    1.398416     13.00      69.7230
      40     1 N    7   -4.742693   10.184571    2.465404      5.00      14.0067
      41     2 Ga  31   -4.973737    8.317134    3.190231     13.00      69.7230
      42     1 N    7   -4.843413    8.388474    5.162850      5.00      14.0067
      43     2 Ga  31   -4.861943   10.264451    5.738028     13.00      69.7230
      44     1 N    7   -4.839217   10.257486    7.735825      5.00      14.0067
      45     2 Ga  31   -4.819891    8.407427    8.396693     13.00      69.7230
      46     1 N    7   -4.815744    8.407629   10.383294      5.00      14.0067
      47     2 Ga  31   -4.843114   10.267426   11.027092     13.00      69.7230
      48     1 N    7   -4.860119   10.276707   13.016201      5.00      14.0067
      49     2 Ga  31   -4.817978    8.407979   13.578700     13.00      69.7230
      50     1 N    7   -4.848245    8.392107   15.534653      5.00      14.0067
      51     2 Ga  31   -4.656709   10.159300   16.442729     13.00      69.7230
      52     1 N    7   -3.214790    9.326810   17.570204      5.00      14.0067
      53     1 N    7    3.205106    1.900812    2.559324      5.00      14.0067
      54     2 Ga  31    3.193237    0.158448    3.234357     13.00      69.7230
      55     1 N    7    3.208609    0.039504    5.196267      5.00      14.0067
      56     2 Ga  31    3.200582    1.906603    5.822987     13.00      69.7230
      57     1 N    7    3.210800    1.900048    7.797321      5.00      14.0067
      58     2 Ga  31    3.207405    0.033691    8.388774     13.00      69.7230
      59     1 N    7    3.211483    0.031063   10.379022      5.00      14.0067
      60     2 Ga  31    3.212146    1.900875   10.981694     13.00      69.7230
      61     1 N    7    3.211674    1.901795   12.948221      5.00      14.0067
      62     2 Ga  31    3.211630    0.033864   13.578297     13.00      69.7230
      63     1 N    7    3.210181    0.067791   15.534289      5.00      14.0067
      64     2 Ga  31    3.210605    1.903461   15.819133     13.00      69.7230
      65     1 N    7    1.490249    4.632273    2.373947      5.00      14.0067
      66     2 Ga  31    1.684046    2.807453    3.202728     13.00      69.7230
      67     1 N    7    1.608085    2.840579    5.184716      5.00      14.0067
      68     2 Ga  31    1.655434    4.706872    5.759461     13.00      69.7230
      69     1 N    7    1.609605    4.692054    7.760387      5.00      14.0067
      70     2 Ga  31    1.594011    2.835627    8.394281     13.00      69.7230
      71     1 N    7    1.593603    2.836157   10.384765      5.00      14.0067
      72     2 Ga  31    1.621050    4.695105   11.028527     13.00      69.7230
      73     1 N    7    1.636671    4.705827   13.018606      5.00      14.0067
      74     2 Ga  31    1.593647    2.836642   13.577269     13.00      69.7230
      75     1 N    7    1.617959    2.822296   15.537139      5.00      14.0067
      76     2 Ga  31    1.444721    4.595117   16.438311     13.00      69.7230
      77     1 N    7   -0.009638    7.466860    2.646560      5.00      14.0067
      78     2 Ga  31    0.024036    5.597933    3.255977     13.00      69.7230
      79     1 N    7    0.004643    5.627406    5.194381      5.00      14.0067
      80     2 Ga  31   -0.006015    7.458907    5.861799     13.00      69.7230
      81     1 N    7   -0.006033    7.471316    7.815692      5.00      14.0067
      82     2 Ga  31   -0.002420    5.598303    8.405754     13.00      69.7230
      83     1 N    7   -0.004432    5.603206   10.391066      5.00      14.0067
      84     2 Ga  31   -0.004532    7.472506   10.987455     13.00      69.7230
      85     1 N    7   -0.003744    7.472810   12.953434      5.00      14.0067
      86     2 Ga  31   -0.003913    5.602235   13.578166     13.00      69.7230
      87     1 N    7   -0.004643    5.632212   15.537024      5.00      14.0067
      88     2 Ga  31   -0.002458    7.471587   15.815651     13.00      69.7230
      89     1 N    7   -1.720084   10.184513    2.472645      5.00      14.0067
      90     2 Ga  31   -1.610429    8.377039    3.281359     13.00      69.7230
      91     1 N    7   -1.605663    8.389037    5.205981      5.00      14.0067
      92     2 Ga  31   -1.592053   10.276151    5.763225     13.00      69.7230
      93     1 N    7   -1.603095   10.259913    7.748982      5.00      14.0067
      94     2 Ga  31   -1.627409    8.405765    8.400832     13.00      69.7230
      95     1 N    7   -1.624636    8.406901   10.386093      5.00      14.0067
      96     2 Ga  31   -1.598955   10.267261   11.029603     13.00      69.7230
      97     1 N    7   -1.580226   10.276931   13.018190      5.00      14.0067
      98     2 Ga  31   -1.623485    8.408127   13.579459     13.00      69.7230
      99     1 N    7   -1.591846    8.389632   15.536039      5.00      14.0067
     100     2 Ga  31   -1.778054   10.162524   16.440927     13.00      69.7230
     101     1 N    7    6.433826    2.014629    2.504475      5.00      14.0067
     102     2 Ga  31    6.423166    0.050157    2.843006     13.00      69.7230
     103     1 N    7    6.425624    0.041439    4.981115      5.00      14.0067
     104     2 Ga  31    6.425326    1.877593    5.764012     13.00      69.7230
     105     1 N    7    6.429076    1.888721    7.754410      5.00      14.0067
     106     2 Ga  31    6.426610    0.045677    8.407172     13.00      69.7230
     107     1 N    7    6.427354    0.044463   10.374707      5.00      14.0067
     108     2 Ga  31    6.428410    1.885084   11.029732     13.00      69.7230
     109     1 N    7    6.428735    1.865106   13.018715      5.00      14.0067
     110     2 Ga  31    6.428385    0.045974   13.833541     13.00      69.7230
     111     1 N    7    6.428141    0.045340   16.020846      5.00      14.0067
     112     2 Ga  31    6.428101    2.093533   16.439750     13.00      69.7230
     113     2 Ga  31    6.452587    3.723631    1.473868     13.00      69.7230
     114     1 N    7    4.939586    4.595724    2.475014      5.00      14.0067
     115     2 Ga  31    4.706210    2.769582    3.257899     13.00      69.7230
     116     1 N    7    4.819115    2.828122    5.212494      5.00      14.0067
     117     2 Ga  31    4.777354    4.708704    5.760984     13.00      69.7230
     118     1 N    7    4.816764    4.689882    7.761658      5.00      14.0067
     119     2 Ga  31    4.828376    2.834467    8.396469     13.00      69.7230
     120     1 N    7    4.831636    2.835158   10.385898      5.00      14.0067
     121     2 Ga  31    4.805346    4.695466   11.027580     13.00      69.7230
     122     1 N    7    4.788591    4.706036   13.017493      5.00      14.0067
     123     2 Ga  31    4.830187    2.836764   13.577210     13.00      69.7230
     124     1 N    7    4.800039    2.821241   15.533689      5.00      14.0067
     125     2 Ga  31    4.991493    4.588576   16.441746     13.00      69.7230
     126     1 N    7    6.433678    3.755709   17.568771      5.00      14.0067
     127     1 N    7    3.192975    7.622695    2.488494      5.00      14.0067
     128     1 N    7    3.216963    5.619952    5.024748      5.00      14.0067
     129     2 Ga  31    3.217389    7.416509    5.770622     13.00      69.7230
     130     1 N    7    3.211227    7.469328    7.764563      5.00      14.0067
     131     2 Ga  31    3.213252    5.614612    8.401387     13.00      69.7230
     132     1 N    7    3.212845    5.616424   10.374532      5.00      14.0067
     133     2 Ga  31    3.213426    7.454502   11.029875     13.00      69.7230
     134     1 N    7    3.212710    7.436256   13.019217      5.00      14.0067
     135     2 Ga  31    3.213289    5.615531   13.829985     13.00      69.7230
     136     1 N    7    3.213792    5.614729   16.022430      5.00      14.0067
     137     2 Ga  31    3.212000    7.656401   16.438590     13.00      69.7230
     138     2 Ga  31    3.227079    9.362671    1.434458     13.00      69.7230
     139     1 N    7    1.700204   10.193799    2.485408      5.00      14.0067
     140     2 Ga  31    1.575128    8.384213    3.304267     13.00      69.7230
     141     1 N    7    1.589421    8.395638    5.222929      5.00      14.0067
     142     2 Ga  31    1.578093   10.278534    5.773469     13.00      69.7230
     143     1 N    7    1.593709   10.262972    7.757283      5.00      14.0067
     144     2 Ga  31    1.615489    8.407807    8.407721     13.00      69.7230
     145     1 N    7    1.614266    8.408651   10.391853      5.00      14.0067
     146     2 Ga  31    1.589013   10.268293   11.031853     13.00      69.7230
     147     1 N    7    1.572241   10.277341   13.019547      5.00      14.0067
     148     2 Ga  31    1.615666    8.408310   13.578687     13.00      69.7230
     149     1 N    7    1.589348    8.393269   15.537244      5.00      14.0067
     150     2 Ga  31    1.767159   10.163753   16.438108     13.00      69.7230
     151     1 N    7    3.217706    9.326411   17.580442      5.00      14.0067
     152     1 N    7    9.660125    1.909749    2.569612      5.00      14.0067
     153     2 Ga  31    9.653178    0.172546    3.250286     13.00      69.7230
     154     1 N    7    9.641348    0.043714    5.208678      5.00      14.0067
     155     2 Ga  31    9.655863    1.906596    5.834185     13.00      69.7230
     156     1 N    7    9.646332    1.901887    7.804627      5.00      14.0067
     157     2 Ga  31    9.647038    0.035651    8.398301     13.00      69.7230
     158     1 N    7    9.644734    0.032131   10.385705      5.00      14.0067
     159     2 Ga  31    9.646449    1.903016   10.981977     13.00      69.7230
     160     1 N    7    9.645828    1.902106   12.949665      5.00      14.0067
     161     2 Ga  31    9.644976    0.033233   13.578004     13.00      69.7230
     162     1 N    7    9.643992    0.062137   15.536720      5.00      14.0067
     163     2 Ga  31    9.646160    1.901434   15.815979     13.00      69.7230
     164     1 N    7    7.933574    4.622554    2.490360      5.00      14.0067
     165     2 Ga  31    8.154057    2.769024    3.262140     13.00      69.7230
     166     1 N    7    8.039161    2.826884    5.216200      5.00      14.0067
     167     2 Ga  31    8.062932    4.700818    5.757406     13.00      69.7230
     168     1 N    7    8.047531    4.693570    7.749309      5.00      14.0067
     169     2 Ga  31    8.028236    2.835824    8.396011     13.00      69.7230
     170     1 N    7    8.025936    2.837087   10.385094      5.00      14.0067
     171     2 Ga  31    8.052966    4.696162   11.029888     13.00      69.7230
     172     1 N    7    8.069727    4.706550   13.018775      5.00      14.0067
     173     2 Ga  31    8.026215    2.837099   13.577970     13.00      69.7230
     174     1 N    7    8.056881    2.818976   15.535079      5.00      14.0067
     175     2 Ga  31    7.870632    4.591839   16.440462     13.00      69.7230
     176     1 N    7    6.360011    7.434741    2.459926      5.00      14.0067
     177     2 Ga  31    6.416763    5.712210    3.258525     13.00      69.7230
     178     1 N    7    6.428670    5.618775    5.205353      5.00      14.0067
     179     2 Ga  31    6.425522    7.469932    5.841941     13.00      69.7230
     180     1 N    7    6.427670    7.471671    7.805907      5.00      14.0067
     181     2 Ga  31    6.429132    5.601102    8.401216     13.00      69.7230
     182     1 N    7    6.430509    5.603229   10.388222      5.00      14.0067
     183     2 Ga  31    6.429424    7.472833   10.984592     13.00      69.7230
     184     1 N    7    6.428338    7.473508   12.950054      5.00      14.0067
     185     2 Ga  31    6.428441    5.603841   13.577860     13.00      69.7230
     186     1 N    7    6.426621    5.638244   15.534288      5.00      14.0067
     187     2 Ga  31    6.426728    7.473798   15.819182     13.00      69.7230
     188     1 N    7    4.718336   10.200091    2.483674      5.00      14.0067
     189     2 Ga  31    4.904409    8.348041    3.262801     13.00      69.7230
     190     1 N    7    4.820903    8.401052    5.208783      5.00      14.0067
     191     2 Ga  31    4.849195   10.276882    5.758497     13.00      69.7230
     192     1 N    7    4.830506   10.264081    7.749723      5.00      14.0067
     193     2 Ga  31    4.810219    8.409693    8.401566     13.00      69.7230
     194     1 N    7    4.810492    8.408811   10.388143      5.00      14.0067
     195     2 Ga  31    4.837250   10.268080   11.028476     13.00      69.7230
     196     1 N    7    4.853087   10.277205   13.017789      5.00      14.0067
     197     2 Ga  31    4.809837    8.408185   13.578261     13.00      69.7230
     198     1 N    7    4.834266    8.393224   15.537830      5.00      14.0067
     199     2 Ga  31    4.660788   10.165998   16.438581     13.00      69.7230
     200     3 O    8    0.095647    3.689091   -0.565851      6.00      15.9994
     201     4 H    1   -0.001222    7.475264    1.620297      1.00       1.0079
     202     5 C    6    0.178145    2.391763   -1.174990      4.00      12.0107
     203     4 H    1    0.998102    1.781380   -0.760471      1.00       1.0079
     204     4 H    1   -0.759434    1.822194   -1.067950      1.00       1.0079
     205     4 H    1    0.369261    2.542640   -2.247914      1.00       1.0079
     206     2 Ga  31    3.211537    5.610255    2.436062     13.00      69.7230
     207     3 O    8    3.752396    6.085707    0.232760      6.00      15.9994
     208     4 H    1    3.563265    5.386661   -0.415845      1.00       1.0079
     209     5 C    6    5.119187    6.594078    0.029818      4.00      12.0107
     210     4 H    1    5.085787    7.393908   -0.723753      1.00       1.0079
     211     4 H    1    5.583007    6.980580    1.013552      1.00       1.0079
     212     4 H    1    5.766824    5.788083   -0.353848      1.00       1.0079




 SCF PARAMETERS         Density guess:                                    ATOMIC
                        --------------------------------------------------------
                        max_scf:                                              80
                        max_scf_history:                                       0
                        max_diis:                                              4
                        --------------------------------------------------------
                        eps_scf:                                        5.00E-06
                        eps_scf_history:                                0.00E+00
                        eps_diis:                                       1.00E-01
                        eps_eigval:                                     1.00E-05
                        --------------------------------------------------------
                        level_shift [a.u.]:                                 0.00
                        --------------------------------------------------------
                        Outer loop SCF in use 
                        No variables optimised in outer loop
                        eps_scf                                         5.00E-06
                        max_scf                                                4
                        No outer loop optimization
                        step_size                                       5.00E-01

 PW_GRID| Information for grid number                                          1
 PW_GRID| Grid distributed over                                    80 processors
 PW_GRID| Real space group dimensions                                    80    1
 PW_GRID| the grid is blocked:                                                NO
 PW_GRID| Cutoff [a.u.]                                                    600.0
 PW_GRID| spherical cutoff:                                                   NO
 PW_GRID|   Bounds   1           -144     143                Points:         288
 PW_GRID|   Bounds   2           -144     143                Points:         288
 PW_GRID|   Bounds   3           -337     337                Points:         675
 PW_GRID| Volume element (a.u.^3)  0.5630E-03     Volume (a.u.^3)     31519.8467
 PW_GRID| Grid span                                                    FULLSPACE
 PW_GRID|   Distribution                         Average         Max         Min
 PW_GRID|   G-Vectors                           699840.0      699840      699840
 PW_GRID|   G-Rays                                2430.0        2430        2430
 PW_GRID|   Real Space Points                   699840.0      777600      583200

 PW_GRID| Information for grid number                                          2
 PW_GRID| Grid distributed over                                    80 processors
 PW_GRID| Real space group dimensions                                    80    1
 PW_GRID| the grid is blocked:                                                NO
 PW_GRID| Cutoff [a.u.]                                                    200.0
 PW_GRID| spherical cutoff:                                                   NO
 PW_GRID|   Bounds   1            -80      79                Points:         160
 PW_GRID|   Bounds   2            -80      79                Points:         160
 PW_GRID|   Bounds   3           -200     199                Points:         400
 PW_GRID| Volume element (a.u.^3)  0.3078E-02     Volume (a.u.^3)     31519.8467
 PW_GRID| Grid span                                                    FULLSPACE
 PW_GRID|   Distribution                         Average         Max         Min
 PW_GRID|   G-Vectors                           128000.0      128160      127840
 PW_GRID|   G-Rays                                 800.0         801         799
 PW_GRID|   Real Space Points                   128000.0      128000      128000

 PW_GRID| Information for grid number                                          3
 PW_GRID| Grid distributed over                                    80 processors
 PW_GRID| Real space group dimensions                                    80    1
 PW_GRID| the grid is blocked:                                                NO
 PW_GRID| Cutoff [a.u.]                                                     66.7
 PW_GRID| spherical cutoff:                                                   NO
 PW_GRID|   Bounds   1            -48      47                Points:          96
 PW_GRID|   Bounds   2            -48      47                Points:          96
 PW_GRID|   Bounds   3           -112     112                Points:         225
 PW_GRID| Volume element (a.u.^3)  0.1520E-01     Volume (a.u.^3)     31519.8467
 PW_GRID| Grid span                                                    FULLSPACE
[...]
 flops   991 x    64 x    50         145621504000     100.0%      0.0%      0.0%
 flops    13 x    25 x    50         152501440000     100.0%      0.0%      0.0%
 flops    25 x    13 x    50         152632155000     100.0%      0.0%      0.0%
 flops   242 x    64 x   178         189848682496     100.0%      0.0%      0.0%
 flops   242 x    32 x    32         189923520512     100.0%      0.0%      0.0%
 flops   242 x    64 x   183         195181510656     100.0%      0.0%      0.0%
 flops   973 x    32 x    50         196592704000     100.0%      0.0%      0.0%
 flops   973 x    50 x    32         196592704000     100.0%      0.0%      0.0%
 flops   242 x    64 x   195         207980298240     100.0%      0.0%      0.0%
 flops    25 x    18 x    13         238042572300     100.0%      0.0%      0.0%
 flops    13 x    18 x    25         238042572300     100.0%      0.0%      0.0%
 flops   955 x    32 x   178         240303303680     100.0%      0.0%      0.0%
 flops   955 x    32 x   183         247053396480     100.0%      0.0%      0.0%
 flops   991 x    32 x   178         249361857536     100.0%      0.0%      0.0%
 flops   991 x    32 x   183         256366404096     100.0%      0.0%      0.0%
 flops   955 x    32 x   195         263253619200     100.0%      0.0%      0.0%
 flops   991 x    32 x   195         273177315840     100.0%      0.0%      0.0%
 flops   242 x    64 x    32         276252393472     100.0%      0.0%      0.0%
 flops   242 x    32 x    64         276252393472     100.0%      0.0%      0.0%
 flops   973 x    64 x    50         285953024000     100.0%      0.0%      0.0%
 flops   973 x    50 x    64         285953024000     100.0%      0.0%      0.0%
 flops    25 x    25 x    50         292900000000     100.0%      0.0%      0.0%
 flops     5 x    32 x    25         337106560000     100.0%      0.0%      0.0%
 flops    25 x    32 x     5         337106560000     100.0%      0.0%      0.0%
 flops   955 x    64 x   178         349532078080     100.0%      0.0%      0.0%
 flops   955 x    64 x   183         359350394880     100.0%      0.0%      0.0%
 flops   224 x    32 x   178         362438393856     100.0%      0.0%      0.0%
 flops   991 x    64 x   178         362708156416     100.0%      0.0%      0.0%
 flops   224 x    32 x   183         372619247616     100.0%      0.0%      0.0%
 flops   991 x    64 x   183         372896587776     100.0%      0.0%      0.0%
 flops   955 x    64 x   195         382914355200     100.0%      0.0%      0.0%
 flops   224 x    32 x   195         397053296640     100.0%      0.0%      0.0%
 flops   991 x    64 x   195         397348823040     100.0%      0.0%      0.0%
 flops   242 x    64 x    64         401821663232     100.0%      0.0%      0.0%
 flops    25 x    18 x    25         452475000000     100.0%      0.0%      0.0%
 flops   973 x    32 x   178         489665161216     100.0%      0.0%      0.0%
 flops   973 x    32 x   183         503419800576     100.0%      0.0%      0.0%
 flops   224 x    64 x   178         527183118336     100.0%      0.0%      0.0%
 flops   224 x    32 x    32         527390932992     100.0%      0.0%      0.0%
 flops   973 x    32 x   195         536430935040     100.0%      0.0%      0.0%
 flops   224 x    64 x   183         541991632896     100.0%      0.0%      0.0%
 flops    13 x    13 x    32         542775412608     100.0%      0.0%      0.0%
 flops   224 x    64 x   195         577532067840     100.0%      0.0%      0.0%
 flops   955 x    32 x    32         679204556800     100.0%      0.0%      0.0%
 flops   991 x    32 x    32         704808079360     100.0%      0.0%      0.0%
 flops   973 x    64 x   178         712240234496     100.0%      0.0%      0.0%
 flops   973 x    64 x   183         732246982656     100.0%      0.0%      0.0%
 flops   224 x    32 x    64         767114084352     100.0%      0.0%      0.0%
 flops   224 x    64 x    32         767114084352     100.0%      0.0%      0.0%
 flops   973 x    64 x   195         780263178240     100.0%      0.0%      0.0%
 flops    13 x    13 x    64         789491509248     100.0%      0.0%      0.0%
 flops   955 x    32 x    64         987933900800     100.0%      0.0%      0.0%
 flops   955 x    64 x    32         987933900800     100.0%      0.0%      0.0%
 flops   991 x    32 x    64        1025175388160     100.0%      0.0%      0.0%
 flops   991 x    64 x    32        1025175388160     100.0%      0.0%      0.0%
 flops    13 x    25 x    32        1073610137600     100.0%      0.0%      0.0%
 flops    25 x    13 x    32        1074530371200     100.0%      0.0%      0.0%
 flops   224 x    64 x    64        1115802304512     100.0%      0.0%      0.0%
 flops   973 x    32 x    32        1384012636160     100.0%      0.0%      0.0%
 flops   955 x    64 x    64        1436994764800     100.0%      0.0%      0.0%
 flops   991 x    64 x    64        1491164200960     100.0%      0.0%      0.0%
 flops    13 x    25 x    64        1561614745600     100.0%      0.0%      0.0%
 flops    25 x    13 x    64        1562953267200     100.0%      0.0%      0.0%
 flops   973 x    64 x    32        2013109288960     100.0%      0.0%      0.0%
 flops   973 x    32 x    64        2013109288960     100.0%      0.0%      0.0%
 flops    25 x    25 x    32        2062016000000     100.0%      0.0%      0.0%
 flops   973 x    64 x    64        2928158965760     100.0%      0.0%      0.0%
 flops    25 x    25 x    64        2999296000000     100.0%      0.0%      0.0%
 flops    13 x    32 x    13        5924681444864     100.0%      0.0%      0.0%
 flops    25 x    32 x    13       11849230265600     100.0%      0.0%      0.0%
 flops    13 x    32 x    25       11849230265600     100.0%      0.0%      0.0%
 flops    25 x    32 x    25       22523200000000     100.0%      0.0%      0.0%
 flops inhomo. stacks              35931284290048     100.0%      0.0%      0.0%
 flops total                       138.119950E+12     100.0%      0.0%      0.0%
 flops max/rank                      2.397348E+12     100.0%      0.0%      0.0%
 matmuls inhomo. stacks                   3534720     100.0%      0.0%      0.0%
 matmuls total                         2902824142     100.0%      0.0%      0.0%
 number of processed stacks              49556960     100.0%      0.0%      0.0%
 average stack size                                    58.6       0.0       0.0
 marketing flops                   147.611516E+12
 -------------------------------------------------------------------------------
 # multiplications                          12276
 max memory usage/rank               1.431896E+09
 # max total images/rank                        5
 # max 3D layers                                1
 # MPI messages exchanged               111957120
 MPI messages size (bytes):
  total size                        14.529689E+12
  min size                           0.000000E+00
  max size                           1.894792E+06
  average size                     129.779055E+03
 MPI breakdown and total messages size (bytes):
             size <=      128             1176480                        0
       128 < size <=     8192            13894111             113820557312
      8192 < size <=    32768            32014449             653076194016
     32768 < size <=   131072            51135840            3697760162784
    131072 < size <=  4194304            13736240           10071758623888
   4194304 < size <= 16777216                   0                        0
  16777216 < size                               0                        0
 -------------------------------------------------------------------------------

 *** WARNING in dbcsr/mm/dbcsr_mm.F:268 :: Using a non-square number of ***
 *** MPI ranks might lead to poor performance.                          ***
 *** Used ranks: 80                                                     ***
 *** Suggested: 81 169                                                  ***

 -------------------------------------------------------------------------------
 
 MEMORY| Estimated peak process memory [MiB]                                1395

 -------------------------------------------------------------------------------
 ----                             MULTIGRID INFO                            ----
 -------------------------------------------------------------------------------
 count for grid        1:        1137522          cutoff [a.u.]          600.00
 count for grid        2:        5548039          cutoff [a.u.]          200.00
 count for grid        3:        4728293          cutoff [a.u.]           66.67
 count for grid        4:        6286508          cutoff [a.u.]           22.22
 count for grid        5:        5356476          cutoff [a.u.]            7.41
 total gridlevel count  :       23056838

 -------------------------------------------------------------------------------
 -                                                                             -
 -                         MESSAGE PASSING PERFORMANCE                         -
 -                                                                             -
 -------------------------------------------------------------------------------

 ROUTINE             CALLS      AVE VOLUME [Bytes]
 MP_Group             1555
 MP_Bcast            15342                  25430.
 MP_Allreduce       106713                    303.
 MP_Sync               583
 MP_Alltoall         75543                5021587.
 MP_SendRecv         10744                   5936.
 MP_ISendRecv       321846                 133520.
 MP_Wait           2751192
 MP_comm_split         578
 MP_ISend          3157808                 122341.
 MP_IRecv          3158812                 122271.
 MP_Recv               627                 162816.
 MP_Memory         1356912
 -------------------------------------------------------------------------------


 -------------------------------------------------------------------------------
 -                                                                             -
 -                           R E F E R E N C E S                               -
 -                                                                             -
 -------------------------------------------------------------------------------
 
 CP2K version 7.0 (Development Version), the CP2K developers group (2018).
 CP2K is freely available from https://www.cp2k.org/ .

 Schuett, Ole; Messmer, Peter; Hutter, Juerg; VandeVondele, Joost. 
 Electronic Structure Calculations on Graphics Processing Units, John Wiley & Sons, Ltd, 173-190 (2016). 
 GPU-Accelerated Sparse Matrix-Matrix Multiplication for Linear Scaling Density Functional Theory.
 http://dx.doi.org/10.1002/9781118670712.ch8


 Borstnik, U; VandeVondele, J; Weber, V; Hutter, J. 
 PARALLEL COMPUTING, 40 (5-6), 47-58 (2014). 
 Sparse matrix multiplication: The distributed block-compressed sparse
 row library.
 http://dx.doi.org/10.1016/j.parco.2014.03.012


 Hutter, J; Iannuzzi, M; Schiffmann, F; VandeVondele, J. 
 WILEY INTERDISCIPLINARY REVIEWS-COMPUTATIONAL MOLECULAR SCIENCE, 4 (1), 15-25 (2014). 
 CP2K: atomistic simulations of condensed matter systems.
 http://dx.doi.org/10.1002/wcms.1159


 Grimme, S; Ehrlich, S; Goerigk, L. 
 JOURNAL OF COMPUTATIONAL CHEMISTRY, 32, 1456 (2011). 
 Effect of the damping function in dispersion corrected density functional theory.
 http://dx.doi.org/10.1002/jcc.21759


 Grimme, S; Antony, J; Ehrlich, S; Krieg, H. 
 JOURNAL OF CHEMICAL PHYSICS, 132 (15), 154104 (2010). 
 A consistent and accurate ab initio parametrization of density
 functional dispersion correction (DFT-D) for the 94 elements H-Pu.
 http://dx.doi.org/10.1063/1.3382344


 VandeVondele, J; Hutter, J. 
 JOURNAL OF CHEMICAL PHYSICS, 127 (11), 114105 (2007). 
 Gaussian basis sets for accurate calculations on molecular systems in
 gas and condensed phases.
 http://dx.doi.org/10.1063/1.2770708


 Krack, M. 
 THEORETICAL CHEMISTRY ACCOUNTS, 114 (1-3), 145-152 (2005). 
 Pseudopotentials for H to Kr optimized for gradient-corrected
 exchange-correlation functionals.
 http://dx.doi.org/10.1007/s00214-005-0655-y


 VandeVondele, J; Krack, M; Mohamed, F; Parrinello, M; Chassaing, T;
 Hutter, J. COMPUTER PHYSICS COMMUNICATIONS, 167 (2), 103-128 (2005). 
 QUICKSTEP: Fast and accurate density functional calculations using a
 mixed Gaussian and plane waves approach.
 http://dx.doi.org/10.1016/j.cpc.2004.12.014


 Frigo, M; Johnson, SG. 
 PROCEEDINGS OF THE IEEE, 93 (2), 216-231 (2005). 
 The design and implementation of FFTW3.
 http://dx.doi.org/10.1109/JPROC.2004.840301


 Kolafa, J. 
 JOURNAL OF COMPUTATIONAL CHEMISTRY, 25 (3), 335-342 (2004). 
 Time-reversible always stable predictor-corrector method for molecular dynamics of polarizable molecules.
 http://dx.doi.org/10.1002/jcc.10385


 VandeVondele, J; Hutter, J. 
 JOURNAL OF CHEMICAL PHYSICS, 118 (10), 4365-4369 (2003). 
 An efficient orbital transformation method for electronic structure
 calculations.
 http://dx.doi.org/10.1063/1.1543154


 Hartwigsen, C; Goedecker, S; Hutter, J. 
 PHYSICAL REVIEW B, 58 (7), 3641-3662 (1998). 
 Relativistic separable dual-space Gaussian pseudopotentials from H to Rn.
 http://dx.doi.org/10.1103/PhysRevB.58.3641


 Lippert, G; Hutter, J; Parrinello, M. 
 MOLECULAR PHYSICS, 92 (3), 477-487 (1997). 
 A hybrid Gaussian and plane wave density functional scheme.
 http://dx.doi.org/10.1080/002689797170220


 Perdew, JP; Burke, K; Ernzerhof, M. 
 PHYSICAL REVIEW LETTERS, 77 (18), 3865-3868 (1996). 
 Generalized gradient approximation made simple.
 http://dx.doi.org/10.1103/PhysRevLett.77.3865


 Goedecker, S; Teter, M; Hutter, J. 
 PHYSICAL REVIEW B, 54 (3), 1703-1710 (1996). 
 Separable dual-space Gaussian pseudopotentials.
 http://dx.doi.org/10.1103/PhysRevB.54.1703


 -------------------------------------------------------------------------------
 -                                                                             -
 -                                T I M I N G                                  -
 -                                                                             -
 -------------------------------------------------------------------------------
 SUBROUTINE                       CALLS  ASD         SELF TIME        TOTAL TIME
                                MAXIMUM       AVERAGE  MAXIMUM  AVERAGE  MAXIMUM
 CP2K                                 1  1.0    0.122    0.137 6684.871 6684.902
 cp_geo_opt                           1  2.0    0.001    0.001 6683.527 6683.539
 geoopt_bfgs                          1  3.0    0.033    0.066 6683.526 6683.538
 cp_eval_at                          35  4.0    0.010    0.029 6669.287 6669.304
 qs_forces                           34  5.0    0.017    0.037 6292.564 6292.577
 qs_energies                         35  6.0    0.023    0.045 5970.243 5970.320
 scf_env_do_scf                      35  7.0    0.011    0.056 5526.792 5526.807
 scf_env_do_scf_inner_loop          395  7.9    0.135    0.167 4753.648 4753.702
 rebuild_ks_matrix                  429  9.7    0.002    0.003 2897.606 2898.209
 qs_ks_build_kohn_sham_matrix       429 10.7    0.139    0.271 2897.603 2898.207
 qs_ks_update_qs_env                431  8.9    0.004    0.004 2276.005 2276.537
 qs_rho_update_rho                  430  9.0    0.004    0.005 2236.792 2237.914
 calculate_rho_elec                 860 10.0 1114.290 1138.714 2236.788 2237.909
 sum_up_and_integrate               249 11.5    3.677    4.159 1639.578 1640.627
 integrate_v_rspace                 498 12.5  939.503  973.091 1635.898 1637.238
 pw_transfer                      13787 13.2    1.465    1.742 1389.679 1395.692
 fft_wrap_pw1pw2                  12929 14.3    0.150    0.173 1382.891 1389.043
 fft_wrap_pw1pw2_600               7497 15.5   83.634   95.376 1284.630 1290.764
 fft3d_ps                         12929 16.3  385.711  429.211 1187.483 1201.361
 rs_pw_transfer                    6964 12.9    0.090    0.107 1156.706 1172.569
 density_rs2pw                      860 11.0    0.063    0.094 1006.562 1028.101
 qs_vxc_create                      429 11.7    0.017    0.042  971.625  971.893
 dbcsr_multiply_generic           12276 13.6    0.829    1.242  895.486  898.278
 mp_waitall_1                   2496872 16.5  793.794  828.876  793.794  828.876
 init_scf_loop                       36  8.0    0.009    0.023  771.966  771.981
 mp_alltoall_z22v                 12929 18.3  692.885  771.258  692.885  771.258
 qs_scf_new_mos                     395  8.9    0.004    0.005  751.688  752.332
 qs_scf_loop_do_ot                  395  9.9    0.015    0.059  751.684  752.328
 xc_vxc_pw_create                   249 12.5   44.395   50.330  742.921  743.085
 multiply_cannon                  12276 14.6    3.931    4.172  692.663  707.952
 ot_scf_mini                        395 10.9    0.070    0.152  687.890  688.243
 qs_ks_update_qs_env_forces          34  6.0    0.000    0.000  625.451  625.520
 mp_waitany                      254320 14.8  509.601  552.057  509.601  552.057
 potential_pw2rs                    498 13.5    0.391    0.459  544.740  546.138
 xc_rho_set_and_dset_create         429 13.7    7.610    8.131  518.287  526.986
 rs_pw_transfer_RS2PW_600           930 12.9  184.562  206.067  470.876  487.167
 x_to_yz                           5606 17.9   60.459   70.018  446.618  474.976
 multiply_cannon_metrocomm3      245520 15.6    0.668    0.740  407.691  458.494
 prepare_preconditioner              36  9.0    0.001    0.001  423.314  423.451
 make_preconditioner                 72 10.0    0.006    0.027  392.621  392.676
 yz_to_x                           4607 16.8   38.651   40.893  344.746  383.506
 ot_mini                            395 11.9    0.005    0.018  362.376  362.730
 make_full_all                       72 11.0    0.031    0.045  360.491  360.620
 rs_pw_transfer_PW2RS_600           602 14.9  134.564  149.828  340.318  351.378
 init_scf_run                        35  7.0    0.003    0.010  272.581  272.596
 scf_env_initial_rho_setup           35  8.0    0.002    0.004  272.578  272.593
 cp_fm_syevd                        578 13.3    0.005    0.007  266.852  267.168
 wfi_extrapolate                     35  9.0    0.021    0.057  265.906  265.924
 cp_fm_redistribute_end             578 14.3   78.425  260.122   80.051  261.572
 cp_fm_syevd_base                   578 14.0  180.550  253.251  180.550  253.251
 xc_exc_calc                        180 12.9    0.874    1.000  228.687  228.812
 qs_ot_get_derivative               430 12.9    0.007    0.008  228.460  228.802
 mp_alltoall_d11v                 17070 14.8  194.141  225.253  194.141  225.253
 multiply_cannon_metrocomm1      245520 15.6    0.774    0.843  158.923  216.874
 rs_distribute_matrix              1426 11.9    1.784    3.504  178.247  208.397
 apply_preconditioner_dbcsr         502 13.9    0.001    0.002  152.363  152.688
 apply_all                          502 14.9    0.059    0.102  152.361  152.687
 mp_sum_d                         16028 14.2  107.897  140.738  107.897  140.738
 qs_ot_get_p                        862 11.8    0.013    0.063  137.890  140.062
 -------------------------------------------------------------------------------

 The number of warnings for this run is : 1
 
 -------------------------------------------------------------------------------
  **** **** ******  **  PROGRAM ENDED AT                 2019-07-14 18:37:25.574
 ***** ** ***  *** **   PROGRAM RAN ON            blg9251.int.ets1.calculquebec.
 **    ****   ******    PROGRAM RAN BY                                       rzk
 ***** **    ** ** **   PROGRAM PROCESS ID                                213273
  **** **  *******  **  PROGRAM STOPPED IN /lustre04/scratch/rzk/rzk/GaN-carbene
                                           /443-adatoms-both-2x2/09-BondBreaking
                                           -CH/03-0501-CH-to-Nsur-PES/Phase02
