 DBCSR| Multiplication driver                                               BLAS
 DBCSR| Multrec recursion limit                                              512
 DBCSR| Multiplication stack size                                           1000
 DBCSR| Maximum elements for images                                    UNLIMITED
 DBCSR| Multiplicative factor virtual images                                   1
 DBCSR| Multiplication size stacks                                             3
 DBCSR| Number of 3D layers                                               SINGLE
 DBCSR| Use MPI memory allocation                                              T
 DBCSR| Use RMA algorithm                                                      F
 DBCSR| Use Communication thread                                               T
 DBCSR| Communication thread load                                             87


  **** **** ******  **  PROGRAM STARTED AT               2019-07-14 15:17:12.756
 ***** ** ***  *** **   PROGRAM STARTED ON        blg9214.int.ets1.calculquebec.
 **    ****   ******    PROGRAM STARTED BY                                   rzk
 ***** **    ** ** **   PROGRAM PROCESS ID                                191029
  **** **  *******  **  PROGRAM STARTED IN /lustre04/scratch/rzk/rzk/GaN-carbene
                                           /443-adatoms-both-2x2/09-BondBreaking
                                           -CH/03-0501-CH-to-Nsur-PES/Phase02

 CP2K| version string:                    CP2K version 7.0 (Development Version)
 CP2K| source code revision number:                                    svn:18619
 CP2K| cp2kflags: libint fftw3 libxc parallel mpi3 scalapack mkl                
 CP2K| is freely available from                            https://www.cp2k.org/
 CP2K| Program compiled at                          Sun Apr  7 00:48:11 EDT 2019
 CP2K| Program compiled on                      beluga2.int.ets1.calculquebec.ca
 CP2K| Program compiled for                    Beluga-Linux-x86-64-intel-openmpi
 CP2K| Data directory path    /home/rzk/projects/def-rzk/group/cp2k/cp2k-mcgill/
 CP2K| Input file name                                                 start.inp
 
 GLOBAL| Force Environment number                                              1
 GLOBAL| Basis set file name                                        BASIS_MOLOPT
 GLOBAL| Potential file name                                      GTH_POTENTIALS
 GLOBAL| MM Potential file name                                     MM_POTENTIAL
 GLOBAL| Coordinate file name                                      __STD_INPUT__
 GLOBAL| Method name                                                        CP2K
 GLOBAL| Project name                                                       TEST
 GLOBAL| Preferred FFT library                                             FFTW3
 GLOBAL| Preferred diagonalization lib.                                       SL
 GLOBAL| Run type                                                        GEO_OPT
 GLOBAL| All-to-all communication in single precision                          F
 GLOBAL| FFTs using library dependent lengths                                  F
 GLOBAL| Global print level                                               MEDIUM
 GLOBAL| MPI I/O enabled                                                       T
 GLOBAL| Total number of message passing processes                            80
 GLOBAL| Number of threads for this process                                    1
 GLOBAL| This output is from process                                           0
 GLOBAL| CPU model name :  Intel(R) Xeon(R) Gold 6148 CPU @ 2.40GHz

 MEMORY| system memory details [Kb]
 MEMORY|                        rank 0           min           max       average
 MEMORY| MemTotal            196614300     196614300     196614300     196614300
 MEMORY| MemFree             182126040     182121700     182374092     182215138
 MEMORY| Buffers                     0             0             0             0
 MEMORY| Cached                1676068       1555236       1676068       1615652
 MEMORY| Slab                  1359544       1193500       1359544       1276522
 MEMORY| SReclaimable           241056        234824        241056        237940
 MEMORY| MemLikelyFree       184043164     184005996     184164152     184068730


 *** Fundamental physical constants (SI units) ***

 *** Literature: B. J. Mohr and B. N. Taylor,
 ***             CODATA recommended values of the fundamental physical
 ***             constants: 2006, Web Version 5.1
 ***             http://physics.nist.gov/constants

 Speed of light in vacuum [m/s]                             2.99792458000000E+08
 Magnetic constant or permeability of vacuum [N/A**2]       1.25663706143592E-06
 Electric constant or permittivity of vacuum [F/m]          8.85418781762039E-12
 Planck constant (h) [J*s]                                  6.62606896000000E-34
 Planck constant (h-bar) [J*s]                              1.05457162825177E-34
 Elementary charge [C]                                      1.60217648700000E-19
 Electron mass [kg]                                         9.10938215000000E-31
 Electron g factor [ ]                                     -2.00231930436220E+00
 Proton mass [kg]                                           1.67262163700000E-27
 Fine-structure constant                                    7.29735253760000E-03
 Rydberg constant [1/m]                                     1.09737315685270E+07
 Avogadro constant [1/mol]                                  6.02214179000000E+23
 Boltzmann constant [J/K]                                   1.38065040000000E-23
 Atomic mass unit [kg]                                      1.66053878200000E-27
 Bohr radius [m]                                            5.29177208590000E-11

 *** Conversion factors ***

 [u] -> [a.u.]                                              1.82288848426455E+03
 [Angstrom] -> [Bohr] = [a.u.]                              1.88972613288564E+00
 [a.u.] = [Bohr] -> [Angstrom]                              5.29177208590000E-01
 [a.u.] -> [s]                                              2.41888432650478E-17
 [a.u.] -> [fs]                                             2.41888432650478E-02
 [a.u.] -> [J]                                              4.35974393937059E-18
 [a.u.] -> [N]                                              8.23872205491840E-08
 [a.u.] -> [K]                                              3.15774647902944E+05
 [a.u.] -> [kJ/mol]                                         2.62549961709828E+03
 [a.u.] -> [kcal/mol]                                       6.27509468713739E+02
 [a.u.] -> [Pa]                                             2.94210107994716E+13
 [a.u.] -> [bar]                                            2.94210107994716E+08
 [a.u.] -> [atm]                                            2.90362800883016E+08
 [a.u.] -> [eV]                                             2.72113838565563E+01
 [a.u.] -> [Hz]                                             6.57968392072181E+15
 [a.u.] -> [1/cm] (wave numbers)                            2.19474631370540E+05
 [a.u./Bohr**2] -> [1/cm]                                   5.14048714338585E+03
 
          ----------------------------------------------------------------------
 COLVARS| COLVAR INPUT INDEX:        1
 COLVARS| BOND          >>> ATOMS:                                   176     211
          ----------------------------------------------------------------------

 CELL_TOP| Volume [angstrom^3]:                                         4586.323
 CELL_TOP| Vector a [angstrom    12.864     0.000     0.000    |a| =      12.864
 CELL_TOP| Vector b [angstrom    -6.432    11.141     0.000    |b| =      12.864
 CELL_TOP| Vector c [angstrom     0.000     0.000    32.000    |c| =      32.000
 CELL_TOP| Angle (b,c), alpha [degree]:                                   90.000
 CELL_TOP| Angle (a,c), beta  [degree]:                                   90.000
 CELL_TOP| Angle (a,b), gamma [degree]:                                  120.000
 CELL_TOP| Numerically orthorhombic:                                          NO
 RESTRAINT| Active restraint on COLLECTIVE section Nr.     1. K [a.u.]= 2.000000
 
 GENERATE|  Preliminary Number of Bonds generated:                             0
 GENERATE|  Achieved consistency in connectivity generation.

 CELL| Volume [angstrom^3]:                                             4586.323
 CELL| Vector a [angstrom]:      12.864     0.000     0.000    |a| =      12.864
 CELL| Vector b [angstrom]:      -6.432    11.141     0.000    |b| =      12.864
 CELL| Vector c [angstrom]:       0.000     0.000    32.000    |c| =      32.000
 CELL| Angle (b,c), alpha [degree]:                                       90.000
 CELL| Angle (a,c), beta  [degree]:                                       90.000
 CELL| Angle (a,b), gamma [degree]:                                      120.000
 CELL| Numerically orthorhombic:                                              NO

 CELL_REF| Volume [angstrom^3]:                                         4670.759
 CELL_REF| Vector a [angstrom    12.982     0.000     0.000    |a| =      12.982
 CELL_REF| Vector b [angstrom    -6.491    11.243     0.000    |b| =      12.982
 CELL_REF| Vector c [angstrom     0.000     0.000    32.000    |c| =      32.000
 CELL_REF| Angle (b,c), alpha [degree]:                                   90.000
 CELL_REF| Angle (a,c), beta  [degree]:                                   90.000
 CELL_REF| Angle (a,b), gamma [degree]:                                  120.000
 CELL_REF| Numerically orthorhombic:                                          NO

 *******************************************************************************
 *******************************************************************************
 **                                                                           **
 **     #####                         ##              ##                      **
 **    ##   ##            ##          ##              ##                      **
 **   ##     ##                       ##            ######                    **
 **   ##     ##  ##   ##  ##   #####  ##  ##   ####   ##    #####    #####    **
 **   ##     ##  ##   ##  ##  ##      ## ##   ##      ##   ##   ##  ##   ##   **
 **   ##  ## ##  ##   ##  ##  ##      ####     ###    ##   ######   ######    **
 **    ##  ###   ##   ##  ##  ##      ## ##      ##   ##   ##       ##        **
 **     #######   #####   ##   #####  ##  ##  ####    ##    #####   ##        **
 **           ##                                                    ##        **
 **                                                                           **
 **                                                ... make the atoms dance   **
 **                                                                           **
 **            Copyright (C) by CP2K developers group (2000 - 2018)           **
 **                                                                           **
 *******************************************************************************

 DFT| Spin unrestricted (spin-polarized) Kohn-Sham calculation               UKS
 DFT| Multiplicity                                                             1
 DFT| Number of spin states                                                    2
 DFT| Charge                                                                   0
 DFT| Self-interaction correction (SIC)                                       NO
 DFT| Cutoffs: density                                              1.000000E-10
 DFT|          gradient                                             1.000000E-10
 DFT|          tau                                                  1.000000E-10
 DFT|          cutoff_smoothing_range                               0.000000E+00
 DFT| XC density smoothing                                                  NONE
 DFT| XC derivatives                                                          PW
 FUNCTIONAL| ROUTINE=NEW
 FUNCTIONAL| PBE:
 FUNCTIONAL| J.P.Perdew, K.Burke, M.Ernzerhof, Phys. Rev. Letter, vol. 77, n 18,
 FUNCTIONAL|  pp. 3865-3868, (1996){spin polarized}                             
 vdW POTENTIAL|                                                   Pair Potential
 vdW POTENTIAL|          DFT-D3 (Version 3.1)
 vdW POTENTIAL|          Potential Form: S. Grimme et al, JCP 132: 154104 (2010)
 vdW POTENTIAL|          Zero Damping
 vdW POTENTIAL|          Cutoff Radius [Bohr]:                             18.90
 vdW POTENTIAL|          s6 Scaling Factor:                               1.0000
 vdW POTENTIAL|          sr6 Scaling Factor:                              1.2170
 vdW POTENTIAL|          s8 Scaling Factor:                               0.7220
 vdW POTENTIAL|          Cutoff for CN calculation:                   0.1000E-05

 QS| Method:                                                                 GPW
 QS| Density plane wave grid type                        NON-SPHERICAL FULLSPACE
 QS| Number of grid levels:                                                    5
 QS| Density cutoff [a.u.]:                                                600.0
 QS| Multi grid cutoff [a.u.]: 1) grid level                               600.0
 QS|                           2) grid level                               200.0
 QS|                           3) grid level                                66.7
 QS|                           4) grid level                                22.2
 QS|                           5) grid level                                 7.4
 QS| Grid level progression factor:                                          3.0
 QS| Relative density cutoff [a.u.]:                                        20.0
 QS| Consistent realspace mapping and integration 
 QS| Interaction thresholds: eps_pgf_orb:                                1.0E-07
 QS|                         eps_filter_matrix:                          0.0E+00
 QS|                         eps_core_charge:                            1.0E-16
 QS|                         eps_rho_gspace:                             1.0E-14
 QS|                         eps_rho_rspace:                             1.0E-14
 QS|                         eps_gvg_rspace:                             1.0E-07
 QS|                         eps_ppl:                                    1.0E-02
 QS|                         eps_ppnl:                                   1.0E-09


 ATOMIC KIND INFORMATION

  1. Atomic kind: N                                     Number of atoms:     100

     Orbital Basis Set                                        DZVP-MOLOPT-SR-GTH

       Number of orbital shell sets:                                           1
       Number of orbital shells:                                               5
       Number of primitive Cartesian functions:                                5
       Number of Cartesian basis functions:                                   14
       Number of spherical basis functions:                                   13
       Norm type:                                                              2

       Normalised Cartesian orbitals:

                        Set   Shell   Orbital            Exponent    Coefficient

                          1       1    2s                7.341988       0.360561
                                                         2.542637       0.139177
                                                         0.888575      -0.289383
                                                         0.333802      -0.182244
                                                         0.112012      -0.019197

                          1       2    3s                7.341988       0.282000
                                                         2.542637       0.177875
                                                         0.888575      -0.278381
                                                         0.333802       0.008577
                                                         0.112012       0.154176

                          1       3    3px               7.341988      -1.188719
                                                         2.542637      -0.973969
                                                         0.888575      -0.501079
                                                         0.333802      -0.144894
                                                         0.112012      -0.013986
                          1       3    3py               7.341988      -1.188719
                                                         2.542637      -0.973969
                                                         0.888575      -0.501079
                                                         0.333802      -0.144894
                                                         0.112012      -0.013986
                          1       3    3pz               7.341988      -1.188719
                                                         2.542637      -0.973969
                                                         0.888575      -0.501079
                                                         0.333802      -0.144894
                                                         0.112012      -0.013986

                          1       4    4px               7.341988      -0.094798
                                                         2.542637       0.050069
                                                         0.888575      -0.114797
                                                         0.333802       0.144793
                                                         0.112012       0.066710
                          1       4    4py               7.341988      -0.094798
                                                         2.542637       0.050069
                                                         0.888575      -0.114797
                                                         0.333802       0.144793
                                                         0.112012       0.066710
                          1       4    4pz               7.341988      -0.094798
                                                         2.542637       0.050069
                                                         0.888575      -0.114797
                                                         0.333802       0.144793
                                                         0.112012       0.066710

                          1       5    4dx2              7.341988       1.354688
                                                         2.542637       0.690378
                                                         0.888575       0.855359
                                                         0.333802       0.091746
                                                         0.112012       0.001253
                          1       5    4dxy              7.341988       2.346389
                                                         2.542637       1.195770
                                                         0.888575       1.481524
                                                         0.333802       0.158910
                                                         0.112012       0.002169
                          1       5    4dxz              7.341988       2.346389
                                                         2.542637       1.195770
                                                         0.888575       1.481524
                                                         0.333802       0.158910
                                                         0.112012       0.002169
                          1       5    4dy2              7.341988       1.354688
                                                         2.542637       0.690378
                                                         0.888575       0.855359
                                                         0.333802       0.091746
                                                         0.112012       0.001253
                          1       5    4dyz              7.341988       2.346389
                                                         2.542637       1.195770
                                                         0.888575       1.481524
                                                         0.333802       0.158910
                                                         0.112012       0.002169
                          1       5    4dz2              7.341988       1.354688
                                                         2.542637       0.690378
                                                         0.888575       0.855359
                                                         0.333802       0.091746
                                                         0.112012       0.001253

     GTH Potential information for                                    GTH-PBE-q5

       Description:                       Goedecker-Teter-Hutter pseudopotential
                                           Goedecker et al., PRB 54, 1703 (1996)
                                          Hartwigsen et al., PRB 58, 3641 (1998)
                                                      Krack, TCA 114, 145 (2005)

       Gaussian exponent of the core charge distribution:               6.208322
       Electronic configuration (s p d ...):                               2   3

       Parameters of the local part of the GTH pseudopotential:

                          rloc        C1          C2          C3          C4
                        0.283791  -12.415226    1.868096

       Parameters of the non-local part of the GTH pseudopotential:

                   l      r(l)      h(i,j,l)

                   0    0.255405   13.630263
                   1    0.245495

  2. Atomic kind: Ga                                    Number of atoms:     100

     Orbital Basis Set                                        DZVP-MOLOPT-SR-GTH

       Number of orbital shell sets:                                           1
       Number of orbital shells:                                               7
       Number of primitive Cartesian functions:                                6
       Number of Cartesian basis functions:                                   30
       Number of spherical basis functions:                                   25
       Norm type:                                                              2

       Normalised Cartesian orbitals:

                        Set   Shell   Orbital            Exponent    Coefficient

                          1       1    2s                7.066654       0.013136
                                                         3.428369      -0.094392
                                                         1.430064       0.265435
                                                         0.571611       0.056465
                                                         0.232197      -0.192187
                                                         0.076562      -0.044987

                          1       2    3s                7.066654      -0.098564
                                                         3.428369       0.010390
                                                         1.430064       0.351249
                                                         0.571611       0.182615
                                                         0.232197      -0.425358
                                                         0.076562       0.190349

                          1       3    3px               7.066654       0.002364
                                                         3.428369       0.019222
                                                         1.430064       0.250132
                                                         0.571611      -0.058486
                                                         0.232197      -0.159451
                                                         0.076562      -0.020696
                          1       3    3py               7.066654       0.002364
                                                         3.428369       0.019222
                                                         1.430064       0.250132
                                                         0.571611      -0.058486
                                                         0.232197      -0.159451
                                                         0.076562      -0.020696
                          1       3    3pz               7.066654       0.002364
                                                         3.428369       0.019222
                                                         1.430064       0.250132
                                                         0.571611      -0.058486
                                                         0.232197      -0.159451
                                                         0.076562      -0.020696

                          1       4    4px               7.066654       0.492448
                                                         3.428369      -0.614736
                                                         1.430064      -0.191654
                                                         0.571611       0.037801
                                                         0.232197       0.302315
                                                         0.076562      -0.071336
                          1       4    4py               7.066654       0.492448
                                                         3.428369      -0.614736
                                                         1.430064      -0.191654
                                                         0.571611       0.037801
                                                         0.232197       0.302315
                                                         0.076562      -0.071336
                          1       4    4pz               7.066654       0.492448
                                                         3.428369      -0.614736
                                                         1.430064      -0.191654
                                                         0.571611       0.037801
                                                         0.232197       0.302315
                                                         0.076562      -0.071336

                          1       5    4dx2              7.066654     -15.264855
                                                         3.428369      -5.345726
                                                         1.430064      -1.022732
                                                         0.571611      -0.123148
                                                         0.232197      -0.006983
                                                         0.076562      -0.000022
                          1       5    4dxy              7.066654     -26.439504
                                                         3.428369      -9.259069
                                                         1.430064      -1.771423
                                                         0.571611      -0.213299
                                                         0.232197      -0.012094
                                                         0.076562      -0.000037
                          1       5    4dxz              7.066654     -26.439504
                                                         3.428369      -9.259069
                                                         1.430064      -1.771423
                                                         0.571611      -0.213299
                                                         0.232197      -0.012094
                                                         0.076562      -0.000037
                          1       5    4dy2              7.066654     -15.264855
                                                         3.428369      -5.345726
                                                         1.430064      -1.022732
                                                         0.571611      -0.123148
                                                         0.232197      -0.006983
                                                         0.076562      -0.000022
                          1       5    4dyz              7.066654     -26.439504
                                                         3.428369      -9.259069
                                                         1.430064      -1.771423
                                                         0.571611      -0.213299
                                                         0.232197      -0.012094
                                                         0.076562      -0.000037
                          1       5    4dz2              7.066654     -15.264855
                                                         3.428369      -5.345726
                                                         1.430064      -1.022732
                                                         0.571611      -0.123148
                                                         0.232197      -0.006983
                                                         0.076562      -0.000022

                          1       6    5dx2              7.066654      -5.739265
                                                         3.428369      -2.129289
                                                         1.430064      -0.700423
                                                         0.571611       0.161606
                                                         0.232197       0.043513
                                                         0.076562       0.011205
                          1       6    5dxy              7.066654      -9.940698
                                                         3.428369      -3.688037
                                                         1.430064      -1.213168
                                                         0.571611       0.279909
                                                         0.232197       0.075368
                                                         0.076562       0.019407
                          1       6    5dxz              7.066654      -9.940698
                                                         3.428369      -3.688037
                                                         1.430064      -1.213168
                                                         0.571611       0.279909
                                                         0.232197       0.075368
                                                         0.076562       0.019407
                          1       6    5dy2              7.066654      -5.739265
                                                         3.428369      -2.129289
                                                         1.430064      -0.700423
                                                         0.571611       0.161606
                                                         0.232197       0.043513
                                                         0.076562       0.011205
                          1       6    5dyz              7.066654      -9.940698
                                                         3.428369      -3.688037
                                                         1.430064      -1.213168
                                                         0.571611       0.279909
                                                         0.232197       0.075368
                                                         0.076562       0.019407
                          1       6    5dz2              7.066654      -5.739265
                                                         3.428369      -2.129289
                                                         1.430064      -0.700423
                                                         0.571611       0.161606
                                                         0.232197       0.043513
                                                         0.076562       0.011205

                          1       7    5fx3              7.066654       0.705879
                                                         3.428369      -0.273976
                                                         1.430064       0.113667
                                                         0.571611       0.132480
                                                         0.232197       0.012437
                                                         0.076562       0.003241
                          1       7    5fx2y             7.066654       1.578393
                                                         3.428369      -0.612629
                                                         1.430064       0.254167
                                                         0.571611       0.296234
                                                         0.232197       0.027811
                                                         0.076562       0.007246
                          1       7    5fx2z             7.066654       1.578393
                                                         3.428369      -0.612629
                                                         1.430064       0.254167
                                                         0.571611       0.296234
                                                         0.232197       0.027811
                                                         0.076562       0.007246
                          1       7    5fxy2             7.066654       1.578393
                                                         3.428369      -0.612629
                                                         1.430064       0.254167
                                                         0.571611       0.296234
                                                         0.232197       0.027811
                                                         0.076562       0.007246
                          1       7    5fxyz             7.066654       2.733856
                                                         3.428369      -1.061105
                                                         1.430064       0.440230
                                                         0.571611       0.513092
                                                         0.232197       0.048170
                                                         0.076562       0.012551
                          1       7    5fxz2             7.066654       1.578393
                                                         3.428369      -0.612629
                                                         1.430064       0.254167
                                                         0.571611       0.296234
                                                         0.232197       0.027811
                                                         0.076562       0.007246
                          1       7    5fy3              7.066654       0.705879
                                                         3.428369      -0.273976
                                                         1.430064       0.113667
                                                         0.571611       0.132480
                                                         0.232197       0.012437
                                                         0.076562       0.003241
                          1       7    5fy2z             7.066654       1.578393
                                                         3.428369      -0.612629
                                                         1.430064       0.254167
                                                         0.571611       0.296234
                                                         0.232197       0.027811
                                                         0.076562       0.007246
                          1       7    5fyz2             7.066654       1.578393
                                                         3.428369      -0.612629
                                                         1.430064       0.254167
                                                         0.571611       0.296234
                                                         0.232197       0.027811
                                                         0.076562       0.007246
                          1       7    5fz3              7.066654       0.705879
                                                         3.428369      -0.273976
                                                         1.430064       0.113667
                                                         0.571611       0.132480
                                                         0.232197       0.012437
                                                         0.076562       0.003241

     GTH Potential information for                                   GTH-PBE-q13

       Description:                       Goedecker-Teter-Hutter pseudopotential
                                           Goedecker et al., PRB 54, 1703 (1996)
                                          Hartwigsen et al., PRB 58, 3641 (1998)
                                                      Krack, TCA 114, 145 (2005)

       Gaussian exponent of the core charge distribution:               2.082466
       Electronic configuration (s p d ...):                           2   1  10

       Parameters of the local part of the GTH pseudopotential:

                          rloc        C1          C2          C3          C4
                        0.490000

       Parameters of the non-local part of the GTH pseudopotential:

                   l      r(l)      h(i,j,l)

                   0    0.416777   10.475690   -4.921768    0.870706
                                   -4.921768    7.770178   -2.248152
                                    0.870706   -2.248152    1.784415
                   1    0.569627    1.777985    0.195860
                                    0.195860   -0.231744
                   2    0.238126  -16.248680

  3. Atomic kind: O                                     Number of atoms:       2

     Orbital Basis Set                                     DZVP-MOLOPT-SR-GTH-q6

       Number of orbital shell sets:                                           1
       Number of orbital shells:                                               5
       Number of primitive Cartesian functions:                                5
       Number of Cartesian basis functions:                                   14
       Number of spherical basis functions:                                   13
       Norm type:                                                              2

       Normalised Cartesian orbitals:

                        Set   Shell   Orbital            Exponent    Coefficient

                          1       1    2s               10.389228       0.396646
                                                         3.849621       0.208811
                                                         1.388401      -0.301641
                                                         0.496955      -0.274061
                                                         0.162492      -0.033677

                          1       2    3s               10.389228       0.303673
                                                         3.849621       0.240943
                                                         1.388401      -0.313066
                                                         0.496955      -0.043055
                                                         0.162492       0.213991

                          1       3    3px              10.389228      -1.530415
                                                         3.849621      -1.371928
                                                         1.388401      -0.761951
                                                         0.496955      -0.253695
                                                         0.162492      -0.035541
                          1       3    3py              10.389228      -1.530415
                                                         3.849621      -1.371928
                                                         1.388401      -0.761951
                                                         0.496955      -0.253695
                                                         0.162492      -0.035541
                          1       3    3pz              10.389228      -1.530415
                                                         3.849621      -1.371928
                                                         1.388401      -0.761951
                                                         0.496955      -0.253695
                                                         0.162492      -0.035541

                          1       4    4px              10.389228      -0.565392
                                                         3.849621      -0.038231
                                                         1.388401      -0.382373
                                                         0.496955       0.179070
                                                         0.162492       0.122714
                          1       4    4py              10.389228      -0.565392
                                                         3.849621      -0.038231
                                                         1.388401      -0.382373
                                                         0.496955       0.179070
                                                         0.162492       0.122714
                          1       4    4pz              10.389228      -0.565392
                                                         3.849621      -0.038231
                                                         1.388401      -0.382373
                                                         0.496955       0.179070
                                                         0.162492       0.122714

                          1       5    4dx2             10.389228       1.867377
                                                         3.849621       0.670994
                                                         1.388401       1.353441
                                                         0.496955       0.273538
                                                         0.162492       0.006620
                          1       5    4dxy             10.389228       3.234392
                                                         3.849621       1.162195
                                                         1.388401       2.344229
                                                         0.496955       0.473781
                                                         0.162492       0.011466
                          1       5    4dxz             10.389228       3.234392
                                                         3.849621       1.162195
                                                         1.388401       2.344229
                                                         0.496955       0.473781
                                                         0.162492       0.011466
                          1       5    4dy2             10.389228       1.867377
                                                         3.849621       0.670994
                                                         1.388401       1.353441
                                                         0.496955       0.273538
                                                         0.162492       0.006620
                          1       5    4dyz             10.389228       3.234392
                                                         3.849621       1.162195
                                                         1.388401       2.344229
                                                         0.496955       0.473781
                                                         0.162492       0.011466
                          1       5    4dz2             10.389228       1.867377
                                                         3.849621       0.670994
                                                         1.388401       1.353441
                                                         0.496955       0.273538
                                                         0.162492       0.006620

     GTH Potential information for                                    GTH-PBE-q6

       Description:                       Goedecker-Teter-Hutter pseudopotential
                                           Goedecker et al., PRB 54, 1703 (1996)
                                          Hartwigsen et al., PRB 58, 3641 (1998)
                                                      Krack, TCA 114, 145 (2005)

       Gaussian exponent of the core charge distribution:               8.360253
       Electronic configuration (s p d ...):                               2   4

       Parameters of the local part of the GTH pseudopotential:

                          rloc        C1          C2          C3          C4
                        0.244554  -16.667215    2.487311

       Parameters of the non-local part of the GTH pseudopotential:

                   l      r(l)      h(i,j,l)

                   0    0.220956   18.337458
                   1    0.211332

  4. Atomic kind: H                                     Number of atoms:       8

     Orbital Basis Set                                     DZVP-MOLOPT-SR-GTH-q1

       Number of orbital shell sets:                                           1
       Number of orbital shells:                                               3
       Number of primitive Cartesian functions:                                5
       Number of Cartesian basis functions:                                    5
       Number of spherical basis functions:                                    5
       Norm type:                                                              2

       Normalised Cartesian orbitals:

                        Set   Shell   Orbital            Exponent    Coefficient

                          1       1    2s               10.068468      -0.133023
                                                         2.680223      -0.177618
                                                         0.791502      -0.258419
                                                         0.239116      -0.107525
                                                         0.082193      -0.014019

                          1       2    3s               10.068468       0.344673
                                                         2.680223       1.819821
                                                         0.791502      -0.999069
                                                         0.239116       0.017430
                                                         0.082193       0.082660

                          1       3    3px              10.068468       0.155326
                                                         2.680223       0.367157
                                                         0.791502       0.311480
                                                         0.239116       0.080105
                                                         0.082193       0.033440
                          1       3    3py              10.068468       0.155326
                                                         2.680223       0.367157
                                                         0.791502       0.311480
                                                         0.239116       0.080105
                                                         0.082193       0.033440
                          1       3    3pz              10.068468       0.155326
                                                         2.680223       0.367157
                                                         0.791502       0.311480
                                                         0.239116       0.080105
                                                         0.082193       0.033440

     GTH Potential information for                                    GTH-PBE-q1

       Description:                       Goedecker-Teter-Hutter pseudopotential
                                           Goedecker et al., PRB 54, 1703 (1996)
                                          Hartwigsen et al., PRB 58, 3641 (1998)
                                                      Krack, TCA 114, 145 (2005)

       Gaussian exponent of the core charge distribution:              12.500000
       Electronic configuration (s p d ...):                                   1

       Parameters of the local part of the GTH pseudopotential:

                          rloc        C1          C2          C3          C4
                        0.200000   -4.178900    0.724463

  5. Atomic kind: C                                     Number of atoms:       2

     Orbital Basis Set                                     DZVP-MOLOPT-SR-GTH-q4

       Number of orbital shell sets:                                           1
       Number of orbital shells:                                               5
       Number of primitive Cartesian functions:                                5
       Number of Cartesian basis functions:                                   14
       Number of spherical basis functions:                                   13
       Norm type:                                                              2

       Normalised Cartesian orbitals:

                        Set   Shell   Orbital            Exponent    Coefficient

                          1       1    2s                5.605331       0.322515
                                                         2.113016       0.213043
                                                         0.769911      -0.209686
                                                         0.348157      -0.219794
                                                         0.128212      -0.022789

                          1       2    3s                5.605331       0.552234
                                                         2.113016       0.082072
                                                         0.769911       0.007843
                                                         0.348157       0.136893
                                                         0.128212       0.074283

                          1       3    3px               5.605331      -0.703879
                                                         2.113016      -0.642521
                                                         0.769911      -0.374851
                                                         0.348157      -0.139743
                                                         0.128212      -0.027849
                          1       3    3py               5.605331      -0.703879
                                                         2.113016      -0.642521
                                                         0.769911      -0.374851
                                                         0.348157      -0.139743
                                                         0.128212      -0.027849
                          1       3    3pz               5.605331      -0.703879
                                                         2.113016      -0.642521
                                                         0.769911      -0.374851
                                                         0.348157      -0.139743
                                                         0.128212      -0.027849

                          1       4    4px               5.605331      -0.480376
                                                         2.113016      -0.552894
                                                         0.769911      -0.316145
                                                         0.348157       0.210505
                                                         0.128212       0.076095
                          1       4    4py               5.605331      -0.480376
                                                         2.113016      -0.552894
                                                         0.769911      -0.316145
                                                         0.348157       0.210505
                                                         0.128212       0.076095
                          1       4    4pz               5.605331      -0.480376
                                                         2.113016      -0.552894
                                                         0.769911      -0.316145
                                                         0.348157       0.210505
                                                         0.128212       0.076095

                          1       5    4dx2              5.605331       0.640026
                                                         2.113016       0.274300
                                                         0.769911       0.446711
                                                         0.348157       0.028674
                                                         0.128212       0.029790
                          1       5    4dxy              5.605331       1.108557
                                                         2.113016       0.475102
                                                         0.769911       0.773726
                                                         0.348157       0.049666
                                                         0.128212       0.051599
                          1       5    4dxz              5.605331       1.108557
                                                         2.113016       0.475102
                                                         0.769911       0.773726
                                                         0.348157       0.049666
                                                         0.128212       0.051599
                          1       5    4dy2              5.605331       0.640026
                                                         2.113016       0.274300
                                                         0.769911       0.446711
                                                         0.348157       0.028674
                                                         0.128212       0.029790
                          1       5    4dyz              5.605331       1.108557
                                                         2.113016       0.475102
                                                         0.769911       0.773726
                                                         0.348157       0.049666
                                                         0.128212       0.051599
                          1       5    4dz2              5.605331       0.640026
                                                         2.113016       0.274300
                                                         0.769911       0.446711
                                                         0.348157       0.028674
                                                         0.128212       0.029790

     GTH Potential information for                                    GTH-PBE-q4

       Description:                       Goedecker-Teter-Hutter pseudopotential
                                           Goedecker et al., PRB 54, 1703 (1996)
                                          Hartwigsen et al., PRB 58, 3641 (1998)
                                                      Krack, TCA 114, 145 (2005)

       Gaussian exponent of the core charge distribution:               4.364419
       Electronic configuration (s p d ...):                               2   2

       Parameters of the local part of the GTH pseudopotential:

                          rloc        C1          C2          C3          C4
                        0.338471   -8.803674    1.339211

       Parameters of the non-local part of the GTH pseudopotential:

                   l      r(l)      h(i,j,l)

                   0    0.302576    9.622487
                   1    0.291507


 MOLECULE KIND INFORMATION


 All atoms are their own molecule, skipping detailed information


 TOTAL NUMBERS AND MAXIMUM NUMBERS

  Total number of            - Atomic kinds:                                   5
                             - Atoms:                                        212
                             - Shell sets:                                   212
                             - Shells:                                      1244
                             - Primitive Cartesian functions:               1160
                             - Cartesian basis functions:                   4496
                             - Spherical basis functions:                   3892

  Maximum angular momentum of- Orbital basis functions:                        3
                             - Local part of the GTH pseudopotential:          2
                             - Non-local part of the GTH pseudopotential:      4


 MODULE QUICKSTEP:  ATOMIC COORDINATES IN angstrom

  Atom  Kind  Element       X           Y           Z          Z(eff)       Mass

       1     1 N    7    0.002661    2.046456    2.461356      5.00      14.0067
       2     2 Ga  31    0.019441    0.089053    2.798007     13.00      69.7230
       3     1 N    7   -0.007751    0.050637    4.976137      5.00      14.0067
       4     2 Ga  31    0.004564    1.883035    5.745820     13.00      69.7230
       5     1 N    7   -0.000783    1.891493    7.752189      5.00      14.0067
       6     2 Ga  31    0.001392    0.046370    8.395112     13.00      69.7230
       7     1 N    7   -0.002550    0.045225   10.373837      5.00      14.0067
       8     2 Ga  31   -0.002416    1.883996   11.025438     13.00      69.7230
       9     1 N    7   -0.004134    1.864503   13.024855      5.00      14.0067
      10     2 Ga  31   -0.005379    0.039580   13.822148     13.00      69.7230
      11     1 N    7   -0.004541    0.038549   16.028829      5.00      14.0067
      12     2 Ga  31   -0.004623    2.056142   16.415721     13.00      69.7230
      13     2 Ga  31   -0.013891    3.713516    1.259716     13.00      69.7230
      14     1 N    7   -1.472136    4.622375    2.445346      5.00      14.0067
      15     2 Ga  31   -1.666088    2.792688    3.225900     13.00      69.7230
      16     1 N    7   -1.611327    2.832395    5.209174      5.00      14.0067
      17     2 Ga  31   -1.631916    4.698737    5.757145     13.00      69.7230
      18     1 N    7   -1.617967    4.695487    7.756132      5.00      14.0067
      19     2 Ga  31   -1.596480    2.836329    8.393300     13.00      69.7230
      20     1 N    7   -1.599296    2.837405   10.390502      5.00      14.0067
      21     2 Ga  31   -1.627342    4.695780   11.026867     13.00      69.7230
      22     1 N    7   -1.644410    4.705975   13.024560      5.00      14.0067
      23     2 Ga  31   -1.601348    2.836812   13.575604     13.00      69.7230
      24     1 N    7   -1.624967    2.826326   15.546177      5.00      14.0067
      25     2 Ga  31   -1.470371    4.605827   16.416695     13.00      69.7230
      26     1 N    7    0.004704    3.753944   17.539472      5.00      14.0067
      27     1 N    7   -3.230957    7.576014    2.452349      5.00      14.0067
      28     2 Ga  31   -3.181767    5.602241    2.801506     13.00      69.7230
      29     1 N    7   -3.214210    5.607765    4.978973      5.00      14.0067
      30     2 Ga  31   -3.235492    7.437616    5.739920     13.00      69.7230
      31     1 N    7   -3.222508    7.463195    7.742178      5.00      14.0067
      32     2 Ga  31   -3.217912    5.617799    8.398657     13.00      69.7230
      33     1 N    7   -3.219062    5.616832   10.375392      5.00      14.0067
      34     2 Ga  31   -3.221135    7.456010   11.025833     13.00      69.7230
      35     1 N    7   -3.220677    7.437245   13.020465      5.00      14.0067
      36     2 Ga  31   -3.223401    5.618174   13.818327     13.00      69.7230
      37     1 N    7   -3.223646    5.617925   16.028561      5.00      14.0067
      38     2 Ga  31   -3.221755    7.662482   16.440965     13.00      69.7230
      39     2 Ga  31   -3.253449    9.353181    1.253402     13.00      69.7230
      40     1 N    7   -4.740097   10.188548    2.459411      5.00      14.0067
      41     2 Ga  31   -4.940917    8.334168    3.167538     13.00      69.7230
      42     1 N    7   -4.841666    8.389583    5.161471      5.00      14.0067
      43     2 Ga  31   -4.856321   10.264041    5.728209     13.00      69.7230
      44     1 N    7   -4.838043   10.258136    7.738211      5.00      14.0067
      45     2 Ga  31   -4.818445    8.408369    8.390815     13.00      69.7230
      46     1 N    7   -4.816411    8.407544   10.386023      5.00      14.0067
      47     2 Ga  31   -4.842126   10.266596   11.023587     13.00      69.7230
      48     1 N    7   -4.859453   10.275614   13.019378      5.00      14.0067
      49     2 Ga  31   -4.818017    8.407904   13.578205     13.00      69.7230
      50     1 N    7   -4.843929    8.392160   15.539743      5.00      14.0067
      51     2 Ga  31   -4.663560   10.161243   16.441125     13.00      69.7230
      52     1 N    7   -3.210960    9.331275   17.576381      5.00      14.0067
      53     1 N    7    3.205082    1.898019    2.570149      5.00      14.0067
      54     2 Ga  31    3.197292    0.132737    3.206826     13.00      69.7230
      55     1 N    7    3.210615    0.041316    5.190882      5.00      14.0067
      56     2 Ga  31    3.200828    1.900202    5.816682     13.00      69.7230
      57     1 N    7    3.211150    1.900308    7.800137      5.00      14.0067
      58     2 Ga  31    3.208132    0.033326    8.383514     13.00      69.7230
      59     1 N    7    3.211792    0.031658   10.383186      5.00      14.0067
      60     2 Ga  31    3.212387    1.899886   10.982228     13.00      69.7230
      61     1 N    7    3.211057    1.901772   12.957841      5.00      14.0067
      62     2 Ga  31    3.211128    0.031968   13.578671     13.00      69.7230
      63     1 N    7    3.207261    0.065045   15.541063      5.00      14.0067
      64     2 Ga  31    3.212311    1.901842   15.821544     13.00      69.7230
      65     1 N    7    1.490722    4.633787    2.380985      5.00      14.0067
      66     2 Ga  31    1.684808    2.803783    3.205696     13.00      69.7230
      67     1 N    7    1.607866    2.841520    5.191508      5.00      14.0067
      68     2 Ga  31    1.654572    4.707021    5.760318     13.00      69.7230
      69     1 N    7    1.609650    4.692117    7.767306      5.00      14.0067
      70     2 Ga  31    1.595752    2.835103    8.393379     13.00      69.7230
      71     1 N    7    1.594325    2.835921   10.392333      5.00      14.0067
      72     2 Ga  31    1.621177    4.695222   11.027359     13.00      69.7230
      73     1 N    7    1.636717    4.706424   13.026393      5.00      14.0067
      74     2 Ga  31    1.592935    2.836989   13.575095     13.00      69.7230
      75     1 N    7    1.615625    2.824243   15.547297      5.00      14.0067
      76     2 Ga  31    1.470403    4.611520   16.415746     13.00      69.7230
      77     1 N    7   -0.015878    7.469261    2.650294      5.00      14.0067
      78     2 Ga  31    0.019985    5.602424    3.258032     13.00      69.7230
      79     1 N    7    0.005111    5.627752    5.199880      5.00      14.0067
      80     2 Ga  31   -0.013270    7.462252    5.858203     13.00      69.7230
      81     1 N    7   -0.006036    7.471489    7.818757      5.00      14.0067
      82     2 Ga  31   -0.001976    5.599748    8.405388     13.00      69.7230
      83     1 N    7   -0.003953    5.603716   10.397840      5.00      14.0067
      84     2 Ga  31   -0.005199    7.473230   10.987876     13.00      69.7230
      85     1 N    7   -0.005113    7.472087   12.960512      5.00      14.0067
      86     2 Ga  31   -0.004150    5.603436   13.575784     13.00      69.7230
      87     1 N    7   -0.006672    5.629578   15.546333      5.00      14.0067
      88     2 Ga  31   -0.003329    7.475048   15.820792     13.00      69.7230
      89     1 N    7   -1.712419   10.191865    2.469127      5.00      14.0067
      90     2 Ga  31   -1.634700    8.393301    3.257393     13.00      69.7230
      91     1 N    7   -1.604611    8.390567    5.199322      5.00      14.0067
      92     2 Ga  31   -1.594446   10.274817    5.754072     13.00      69.7230
      93     1 N    7   -1.602555   10.260281    7.750603      5.00      14.0067
      94     2 Ga  31   -1.627733    8.406847    8.396347     13.00      69.7230
      95     1 N    7   -1.623991    8.407176   10.389529      5.00      14.0067
      96     2 Ga  31   -1.599507   10.266906   11.027292     13.00      69.7230
      97     1 N    7   -1.580834   10.276386   13.023005      5.00      14.0067
      98     2 Ga  31   -1.624322    8.408136   13.579631     13.00      69.7230
      99     1 N    7   -1.597993    8.387968   15.542565      5.00      14.0067
     100     2 Ga  31   -1.768006   10.168372   16.439725     13.00      69.7230
     101     1 N    7    6.436879    2.016025    2.515655      5.00      14.0067
     102     2 Ga  31    6.405146    0.042464    2.843832     13.00      69.7230
     103     1 N    7    6.430995    0.043857    4.990985      5.00      14.0067
     104     2 Ga  31    6.426078    1.876304    5.767368     13.00      69.7230
     105     1 N    7    6.429273    1.889169    7.762469      5.00      14.0067
     106     2 Ga  31    6.425084    0.044645    8.406578     13.00      69.7230
     107     1 N    7    6.427300    0.044169   10.379922      5.00      14.0067
     108     2 Ga  31    6.427893    1.884594   11.028756     13.00      69.7230
     109     1 N    7    6.428509    1.865162   13.024511      5.00      14.0067
     110     2 Ga  31    6.430357    0.043941   13.830328     13.00      69.7230
     111     1 N    7    6.430090    0.043688   16.028326      5.00      14.0067
     112     2 Ga  31    6.427597    2.079857   16.437774     13.00      69.7230
     113     2 Ga  31    6.455456    3.724372    1.504116     13.00      69.7230
     114     1 N    7    4.940849    4.599820    2.480375      5.00      14.0067
     115     2 Ga  31    4.702175    2.765727    3.264819     13.00      69.7230
     116     1 N    7    4.820900    2.829504    5.219946      5.00      14.0067
     117     2 Ga  31    4.779677    4.709209    5.763469     13.00      69.7230
     118     1 N    7    4.817266    4.689970    7.769094      5.00      14.0067
     119     2 Ga  31    4.827326    2.833705    8.395322     13.00      69.7230
     120     1 N    7    4.830884    2.834732   10.392114      5.00      14.0067
     121     2 Ga  31    4.805755    4.695317   11.025373     13.00      69.7230
     122     1 N    7    4.789316    4.705746   13.021502      5.00      14.0067
     123     2 Ga  31    4.830993    2.837561   13.577639     13.00      69.7230
     124     1 N    7    4.800551    2.824503   15.540768      5.00      14.0067
     125     2 Ga  31    4.985386    4.593103   16.439366     13.00      69.7230
     126     1 N    7    6.431334    3.749116   17.573491      5.00      14.0067
     127     1 N    7    3.195084    7.620864    2.494925      5.00      14.0067
     128     1 N    7    3.218233    5.621011    5.036530      5.00      14.0067
     129     2 Ga  31    3.218232    7.417701    5.774660     13.00      69.7230
     130     1 N    7    3.211477    7.469865    7.772320      5.00      14.0067
     131     2 Ga  31    3.213332    5.614606    8.401458     13.00      69.7230
     132     1 N    7    3.212667    5.616518   10.380212      5.00      14.0067
     133     2 Ga  31    3.213465    7.455603   11.029017     13.00      69.7230
     134     1 N    7    3.212483    7.438162   13.022529      5.00      14.0067
     135     2 Ga  31    3.216684    5.620835   13.822406     13.00      69.7230
     136     1 N    7    3.217875    5.620246   16.029338      5.00      14.0067
     137     2 Ga  31    3.212944    7.677358   16.459944     13.00      69.7230
     138     2 Ga  31    3.227920    9.363991    1.484822     13.00      69.7230
     139     1 N    7    1.704274   10.193759    2.497765      5.00      14.0067
     140     2 Ga  31    1.564072    8.378307    3.312534     13.00      69.7230
     141     1 N    7    1.590444    8.395525    5.230424      5.00      14.0067
     142     2 Ga  31    1.577173   10.279201    5.777937     13.00      69.7230
     143     1 N    7    1.594521   10.262615    7.765455      5.00      14.0067
     144     2 Ga  31    1.614242    8.407146    8.408056     13.00      69.7230
     145     1 N    7    1.613517    8.408116   10.397722      5.00      14.0067
     146     2 Ga  31    1.588961   10.267621   11.032162     13.00      69.7230
     147     1 N    7    1.572855   10.276649   13.024428      5.00      14.0067
     148     2 Ga  31    1.615777    8.408418   13.583333     13.00      69.7230
     149     1 N    7    1.586302    8.389711   15.541829      5.00      14.0067
     150     2 Ga  31    1.780044   10.156638   16.459694     13.00      69.7230
     151     1 N    7    3.214203    9.329082   17.607418      5.00      14.0067
     152     1 N    7    9.662101    1.911232    2.580967      5.00      14.0067
     153     2 Ga  31    9.656575    0.178707    3.266261     13.00      69.7230
     154     1 N    7    9.643116    0.044067    5.221853      5.00      14.0067
     155     2 Ga  31    9.657748    1.907904    5.842011     13.00      69.7230
     156     1 N    7    9.646986    1.901891    7.815116      5.00      14.0067
     157     2 Ga  31    9.647442    0.034822    8.401225     13.00      69.7230
     158     1 N    7    9.644576    0.032385   10.393379      5.00      14.0067
     159     2 Ga  31    9.646088    1.902607   10.983947     13.00      69.7230
     160     1 N    7    9.645747    1.903372   12.957984      5.00      14.0067
     161     2 Ga  31    9.644774    0.032471   13.582827     13.00      69.7230
     162     1 N    7    9.645694    0.066856   15.541353      5.00      14.0067
     163     2 Ga  31    9.643232    1.900661   15.821394     13.00      69.7230
     164     1 N    7    7.935704    4.621553    2.499513      5.00      14.0067
     165     2 Ga  31    8.157952    2.770129    3.275153     13.00      69.7230
     166     1 N    7    8.040933    2.827408    5.228534      5.00      14.0067
     167     2 Ga  31    8.066173    4.703241    5.761749     13.00      69.7230
     168     1 N    7    8.047412    4.693418    7.758590      5.00      14.0067
     169     2 Ga  31    8.027871    2.836038    8.397876     13.00      69.7230
     170     1 N    7    8.025929    2.836393   10.392297      5.00      14.0067
     171     2 Ga  31    8.051922    4.696147   11.025954     13.00      69.7230
     172     1 N    7    8.067868    4.705700   13.021148      5.00      14.0067
     173     2 Ga  31    8.025472    2.837369   13.578480     13.00      69.7230
     174     1 N    7    8.054980    2.824499   15.542224      5.00      14.0067
     175     2 Ga  31    7.871888    4.593823   16.439266     13.00      69.7230
     176     1 N    7    6.374647    7.442648    2.477276      5.00      14.0067
     177     2 Ga  31    6.424228    5.723223    3.264240     13.00      69.7230
     178     1 N    7    6.430183    5.618421    5.212944      5.00      14.0067
     179     2 Ga  31    6.433596    7.473803    5.837991     13.00      69.7230
     180     1 N    7    6.428283    7.471989    7.808980      5.00      14.0067
     181     2 Ga  31    6.429455    5.602959    8.400083     13.00      69.7230
     182     1 N    7    6.429969    5.604082   10.393444      5.00      14.0067
     183     2 Ga  31    6.430089    7.473248   10.984770     13.00      69.7230
     184     1 N    7    6.429153    7.472899   12.956926      5.00      14.0067
     185     2 Ga  31    6.428166    5.603820   13.577381     13.00      69.7230
     186     1 N    7    6.428198    5.633946   15.539705      5.00      14.0067
     187     2 Ga  31    6.426994    7.473476   15.818301     13.00      69.7230
     188     1 N    7    4.719621   10.201403    2.493534      5.00      14.0067
     189     2 Ga  31    4.920449    8.345300    3.272539     13.00      69.7230
     190     1 N    7    4.820855    8.402037    5.217773      5.00      14.0067
     191     2 Ga  31    4.853622   10.278043    5.763736     13.00      69.7230
     192     1 N    7    4.830770   10.263828    7.759074      5.00      14.0067
     193     2 Ga  31    4.812155    8.408944    8.401557     13.00      69.7230
     194     1 N    7    4.811281    8.408044   10.393912      5.00      14.0067
     195     2 Ga  31    4.836914   10.267109   11.027834     13.00      69.7230
     196     1 N    7    4.851323   10.276111   13.021334      5.00      14.0067
     197     2 Ga  31    4.809442    8.408229   13.582334     13.00      69.7230
     198     1 N    7    4.837966    8.391272   15.541409      5.00      14.0067
     199     2 Ga  31    4.643985   10.155706   16.459750     13.00      69.7230
     200     3 O    8    0.103012    3.691278   -0.558413      6.00      15.9994
     201     4 H    1   -0.000814    7.474957    1.624055      1.00       1.0079
     202     5 C    6    0.187915    2.395837   -1.172165      4.00      12.0107
     203     4 H    1    1.004104    1.782140   -0.755319      1.00       1.0079
     204     4 H    1   -0.751487    1.827737   -1.074234      1.00       1.0079
     205     4 H    1    0.386103    2.551915   -2.243032      1.00       1.0079
     206     2 Ga  31    3.209514    5.605690    2.427749     13.00      69.7230
     207     3 O    8    3.726104    6.071245    0.215300      6.00      15.9994
     208     4 H    1    3.513493    5.380186   -0.434763      1.00       1.0079
     209     5 C    6    5.087635    6.572387   -0.018045      4.00      12.0107
     210     4 H    1    5.048076    7.367445   -0.775985      1.00       1.0079
     211     4 H    1    5.548395    6.962454    0.948742      1.00       1.0079
     212     4 H    1    5.731265    5.763844   -0.400583      1.00       1.0079




 SCF PARAMETERS         Density guess:                                    ATOMIC
                        --------------------------------------------------------
                        max_scf:                                              80
                        max_scf_history:                                       0
                        max_diis:                                              4
                        --------------------------------------------------------
                        eps_scf:                                        5.00E-06
                        eps_scf_history:                                0.00E+00
                        eps_diis:                                       1.00E-01
                        eps_eigval:                                     1.00E-05
                        --------------------------------------------------------
                        level_shift [a.u.]:                                 0.00
                        --------------------------------------------------------
                        Outer loop SCF in use 
                        No variables optimised in outer loop
                        eps_scf                                         5.00E-06
                        max_scf                                                4
                        No outer loop optimization
                        step_size                                       5.00E-01

 PW_GRID| Information for grid number                                          1
 PW_GRID| Grid distributed over                                    80 processors
 PW_GRID| Real space group dimensions                                    80    1
 PW_GRID| the grid is blocked:                                                NO
 PW_GRID| Cutoff [a.u.]                                                    600.0
 PW_GRID| spherical cutoff:                                                   NO
 PW_GRID|   Bounds   1           -144     143                Points:         288
 PW_GRID|   Bounds   2           -144     143                Points:         288
 PW_GRID|   Bounds   3           -337     337                Points:         675
 PW_GRID| Volume element (a.u.^3)  0.5630E-03     Volume (a.u.^3)     31519.8467
 PW_GRID| Grid span                                                    FULLSPACE
 PW_GRID|   Distribution                         Average         Max         Min
 PW_GRID|   G-Vectors                           699840.0      699840      699840
 PW_GRID|   G-Rays                                2430.0        2430        2430
 PW_GRID|   Real Space Points                   699840.0      777600      583200

 PW_GRID| Information for grid number                                          2
 PW_GRID| Grid distributed over                                    80 processors
 PW_GRID| Real space group dimensions                                    80    1
 PW_GRID| the grid is blocked:                                                NO
 PW_GRID| Cutoff [a.u.]                                                    200.0
 PW_GRID| spherical cutoff:                                                   NO
 PW_GRID|   Bounds   1            -80      79                Points:         160
 PW_GRID|   Bounds   2            -80      79                Points:         160
 PW_GRID|   Bounds   3           -200     199                Points:         400
 PW_GRID| Volume element (a.u.^3)  0.3078E-02     Volume (a.u.^3)     31519.8467
 PW_GRID| Grid span                                                    FULLSPACE
 PW_GRID|   Distribution                         Average         Max         Min
 PW_GRID|   G-Vectors                           128000.0      128160      127840
 PW_GRID|   G-Rays                                 800.0         801         799
 PW_GRID|   Real Space Points                   128000.0      128000      128000

 PW_GRID| Information for grid number                                          3
 PW_GRID| Grid distributed over                                    80 processors
 PW_GRID| Real space group dimensions                                    80    1
 PW_GRID| the grid is blocked:                                                NO
 PW_GRID| Cutoff [a.u.]                                                     66.7
 PW_GRID| spherical cutoff:                                                   NO
 PW_GRID|   Bounds   1            -48      47                Points:          96
 PW_GRID|   Bounds   2            -48      47                Points:          96
 PW_GRID|   Bounds   3           -112     112                Points:         225
 PW_GRID| Volume element (a.u.^3)  0.1520E-01     Volume (a.u.^3)     31519.8467
 PW_GRID| Grid span                                                    FULLSPACE
[...]
 flops    13 x    25 x    50         126875125000     100.0%      0.0%      0.0%
 flops    25 x    13 x    50         126984325000     100.0%      0.0%      0.0%
 flops   242 x    64 x   178         162500591616     100.0%      0.0%      0.0%
 flops   242 x    64 x   183         167065214976     100.0%      0.0%      0.0%
 flops   973 x    32 x    50         171248000000     100.0%      0.0%      0.0%
 flops   973 x    50 x    32         171248000000     100.0%      0.0%      0.0%
 flops    25 x    18 x    13         176266443600     100.0%      0.0%      0.0%
 flops    13 x    18 x    25         176266443600     100.0%      0.0%      0.0%
 flops   242 x    64 x   195         178020311040     100.0%      0.0%      0.0%
 flops   242 x    32 x    32         178349400064     100.0%      0.0%      0.0%
 flops   955 x    32 x   178         195306270720     100.0%      0.0%      0.0%
 flops   955 x    32 x   183         200792401920     100.0%      0.0%      0.0%
 flops   991 x    32 x   178         202668601344     100.0%      0.0%      0.0%
 flops   991 x    32 x   183         208361539584     100.0%      0.0%      0.0%
 flops   955 x    32 x   195         213959116800     100.0%      0.0%      0.0%
 flops   991 x    32 x   195         222024591360     100.0%      0.0%      0.0%
 flops    25 x    25 x    50         243662500000     100.0%      0.0%      0.0%
 flops   973 x    64 x    50         249088000000     100.0%      0.0%      0.0%
 flops   973 x    50 x    64         249088000000     100.0%      0.0%      0.0%
 flops     5 x    32 x    25         249787328000     100.0%      0.0%      0.0%
 flops    25 x    32 x     5         249787328000     100.0%      0.0%      0.0%
 flops   242 x    64 x    32         259417309184     100.0%      0.0%      0.0%
 flops   242 x    32 x    64         259417309184     100.0%      0.0%      0.0%
 flops   955 x    64 x   178         284081848320     100.0%      0.0%      0.0%
 flops   955 x    64 x   183         292061675520     100.0%      0.0%      0.0%
 flops   991 x    64 x   178         294790692864     100.0%      0.0%      0.0%
 flops   991 x    64 x   183         303071330304     100.0%      0.0%      0.0%
 flops   224 x    32 x   178         310228402176     100.0%      0.0%      0.0%
 flops   955 x    64 x   195         311213260800     100.0%      0.0%      0.0%
 flops   224 x    32 x   183         318942683136     100.0%      0.0%      0.0%
 flops   991 x    64 x   195         322944860160     100.0%      0.0%      0.0%
 flops    25 x    18 x    25         335025000000     100.0%      0.0%      0.0%
 flops   224 x    32 x   195         339856957440     100.0%      0.0%      0.0%
 flops   242 x    64 x    64         377334267904     100.0%      0.0%      0.0%
 flops   973 x    32 x   178         397974872064     100.0%      0.0%      0.0%
 flops   973 x    32 x   183         409153941504     100.0%      0.0%      0.0%
 flops   973 x    32 x   195         435983708160     100.0%      0.0%      0.0%
 flops   224 x    64 x   178         451241312256     100.0%      0.0%      0.0%
 flops    13 x    13 x    32         451523438080     100.0%      0.0%      0.0%
 flops   224 x    64 x   183         463916630016     100.0%      0.0%      0.0%
 flops   224 x    64 x   195         494337392640     100.0%      0.0%      0.0%
 flops   224 x    32 x    32         495251226624     100.0%      0.0%      0.0%
 flops   973 x    64 x   178         578872541184     100.0%      0.0%      0.0%
 flops   955 x    32 x    32         591641600000     100.0%      0.0%      0.0%
 flops   973 x    64 x   183         595133005824     100.0%      0.0%      0.0%
 flops   991 x    32 x    32         613944320000     100.0%      0.0%      0.0%
 flops   973 x    64 x   195         634158120960     100.0%      0.0%      0.0%
 flops    13 x    13 x    64         656761364480     100.0%      0.0%      0.0%
 flops   224 x    32 x    64         720365420544     100.0%      0.0%      0.0%
 flops   224 x    64 x    32         720365420544     100.0%      0.0%      0.0%
 flops   955 x    32 x    64         860569600000     100.0%      0.0%      0.0%
 flops   955 x    64 x    32         860569600000     100.0%      0.0%      0.0%
 flops   991 x    32 x    64         893009920000     100.0%      0.0%      0.0%
 flops   991 x    64 x    32         893009920000     100.0%      0.0%      0.0%
 flops    13 x    25 x    32         893200880000     100.0%      0.0%      0.0%
 flops    25 x    13 x    32         893969648000     100.0%      0.0%      0.0%
 flops   224 x    64 x    64        1047804248064     100.0%      0.0%      0.0%
 flops   973 x    32 x    32        1205585920000     100.0%      0.0%      0.0%
 flops   955 x    64 x    64        1251737600000     100.0%      0.0%      0.0%
 flops   991 x    64 x    64        1298923520000     100.0%      0.0%      0.0%
 flops    13 x    25 x    64        1299201280000     100.0%      0.0%      0.0%
 flops    25 x    13 x    64        1300319488000     100.0%      0.0%      0.0%
 flops    25 x    25 x    32        1715384000000     100.0%      0.0%      0.0%
 flops   973 x    64 x    32        1753579520000     100.0%      0.0%      0.0%
 flops   973 x    32 x    64        1753579520000     100.0%      0.0%      0.0%
 flops    25 x    25 x    64        2495104000000     100.0%      0.0%      0.0%
 flops   973 x    64 x    64        2550661120000     100.0%      0.0%      0.0%
 flops    13 x    32 x    13        4386650311680     100.0%      0.0%      0.0%
 flops    25 x    32 x    13        8774151859200     100.0%      0.0%      0.0%
 flops    13 x    32 x    25        8774151859200     100.0%      0.0%      0.0%
 flops    25 x    32 x    25       16676800000000     100.0%      0.0%      0.0%
 flops inhomo. stacks              29722828776480     100.0%      0.0%      0.0%
 flops total                       110.968918E+12     100.0%      0.0%      0.0%
 flops max/rank                      1.926117E+12     100.0%      0.0%      0.0%
 matmuls inhomo. stacks                   2976960     100.0%      0.0%      0.0%
 matmuls total                         2187694120     100.0%      0.0%      0.0%
 number of processed stacks              39771264     100.0%      0.0%      0.0%
 average stack size                                    55.0       0.0       0.0
 marketing flops                   118.496504E+12
 -------------------------------------------------------------------------------
 # multiplications                          10473
 max memory usage/rank               1.379107E+09
 # max total images/rank                        5
 # max 3D layers                                1
 # MPI messages exchanged                95513760
 MPI messages size (bytes):
  total size                        11.729493E+12
  min size                           0.000000E+00
  max size                           1.894792E+06
  average size                     122.804219E+03
 MPI breakdown and total messages size (bytes):
             size <=      128              653600                        0
       128 < size <=     8192            12593086             103162560512
      8192 < size <=    32768            29024514             592103306176
     32768 < size <=   131072            41904880            3037380641152
    131072 < size <=  4194304            11337680            8000530545152
   4194304 < size <= 16777216                   0                        0
  16777216 < size                               0                        0
 -------------------------------------------------------------------------------

 *** WARNING in dbcsr/mm/dbcsr_mm.F:268 :: Using a non-square number of ***
 *** MPI ranks might lead to poor performance.                          ***
 *** Used ranks: 80                                                     ***
 *** Suggested: 81 169                                                  ***

 -------------------------------------------------------------------------------
 
 MEMORY| Estimated peak process memory [MiB]                                1343

 -------------------------------------------------------------------------------
 ----                             MULTIGRID INFO                            ----
 -------------------------------------------------------------------------------
 count for grid        1:        1104384          cutoff [a.u.]          600.00
 count for grid        2:        4184211          cutoff [a.u.]          200.00
 count for grid        3:        3361901          cutoff [a.u.]           66.67
 count for grid        4:        3971637          cutoff [a.u.]           22.22
 count for grid        5:        3103243          cutoff [a.u.]            7.41
 total gridlevel count  :       15725376

 -------------------------------------------------------------------------------
 -                                                                             -
 -                         MESSAGE PASSING PERFORMANCE                         -
 -                                                                             -
 -------------------------------------------------------------------------------

 ROUTINE             CALLS      AVE VOLUME [Bytes]
 MP_Group              977
 MP_Bcast            14957                  63136.
 MP_Allreduce        94203                    302.
 MP_Sync               453
 MP_Alltoall         57518                5497122.
 MP_SendRecv          5688                   5936.
 MP_ISendRecv       270180                 133520.
 MP_Wait           2334210
 MP_comm_split         448
 MP_ISend          2684816                 116453.
 MP_IRecv          2685632                 116359.
 MP_Recv               323                 162816.
 MP_Memory         1167070
 -------------------------------------------------------------------------------


 -------------------------------------------------------------------------------
 -                                                                             -
 -                           R E F E R E N C E S                               -
 -                                                                             -
 -------------------------------------------------------------------------------
 
 CP2K version 7.0 (Development Version), the CP2K developers group (2018).
 CP2K is freely available from https://www.cp2k.org/ .

 Schuett, Ole; Messmer, Peter; Hutter, Juerg; VandeVondele, Joost. 
 Electronic Structure Calculations on Graphics Processing Units, John Wiley & Sons, Ltd, 173-190 (2016). 
 GPU-Accelerated Sparse Matrix-Matrix Multiplication for Linear Scaling Density Functional Theory.
 http://dx.doi.org/10.1002/9781118670712.ch8


 Borstnik, U; VandeVondele, J; Weber, V; Hutter, J. 
 PARALLEL COMPUTING, 40 (5-6), 47-58 (2014). 
 Sparse matrix multiplication: The distributed block-compressed sparse
 row library.
 http://dx.doi.org/10.1016/j.parco.2014.03.012


 Hutter, J; Iannuzzi, M; Schiffmann, F; VandeVondele, J. 
 WILEY INTERDISCIPLINARY REVIEWS-COMPUTATIONAL MOLECULAR SCIENCE, 4 (1), 15-25 (2014). 
 CP2K: atomistic simulations of condensed matter systems.
 http://dx.doi.org/10.1002/wcms.1159


 Grimme, S; Ehrlich, S; Goerigk, L. 
 JOURNAL OF COMPUTATIONAL CHEMISTRY, 32, 1456 (2011). 
 Effect of the damping function in dispersion corrected density functional theory.
 http://dx.doi.org/10.1002/jcc.21759


 Grimme, S; Antony, J; Ehrlich, S; Krieg, H. 
 JOURNAL OF CHEMICAL PHYSICS, 132 (15), 154104 (2010). 
 A consistent and accurate ab initio parametrization of density
 functional dispersion correction (DFT-D) for the 94 elements H-Pu.
 http://dx.doi.org/10.1063/1.3382344


 VandeVondele, J; Hutter, J. 
 JOURNAL OF CHEMICAL PHYSICS, 127 (11), 114105 (2007). 
 Gaussian basis sets for accurate calculations on molecular systems in
 gas and condensed phases.
 http://dx.doi.org/10.1063/1.2770708


 Krack, M. 
 THEORETICAL CHEMISTRY ACCOUNTS, 114 (1-3), 145-152 (2005). 
 Pseudopotentials for H to Kr optimized for gradient-corrected
 exchange-correlation functionals.
 http://dx.doi.org/10.1007/s00214-005-0655-y


 VandeVondele, J; Krack, M; Mohamed, F; Parrinello, M; Chassaing, T;
 Hutter, J. COMPUTER PHYSICS COMMUNICATIONS, 167 (2), 103-128 (2005). 
 QUICKSTEP: Fast and accurate density functional calculations using a
 mixed Gaussian and plane waves approach.
 http://dx.doi.org/10.1016/j.cpc.2004.12.014


 Frigo, M; Johnson, SG. 
 PROCEEDINGS OF THE IEEE, 93 (2), 216-231 (2005). 
 The design and implementation of FFTW3.
 http://dx.doi.org/10.1109/JPROC.2004.840301


 Kolafa, J. 
 JOURNAL OF COMPUTATIONAL CHEMISTRY, 25 (3), 335-342 (2004). 
 Time-reversible always stable predictor-corrector method for molecular dynamics of polarizable molecules.
 http://dx.doi.org/10.1002/jcc.10385


 VandeVondele, J; Hutter, J. 
 JOURNAL OF CHEMICAL PHYSICS, 118 (10), 4365-4369 (2003). 
 An efficient orbital transformation method for electronic structure
 calculations.
 http://dx.doi.org/10.1063/1.1543154


 Hartwigsen, C; Goedecker, S; Hutter, J. 
 PHYSICAL REVIEW B, 58 (7), 3641-3662 (1998). 
 Relativistic separable dual-space Gaussian pseudopotentials from H to Rn.
 http://dx.doi.org/10.1103/PhysRevB.58.3641


 Lippert, G; Hutter, J; Parrinello, M. 
 MOLECULAR PHYSICS, 92 (3), 477-487 (1997). 
 A hybrid Gaussian and plane wave density functional scheme.
 http://dx.doi.org/10.1080/002689797170220


 Perdew, JP; Burke, K; Ernzerhof, M. 
 PHYSICAL REVIEW LETTERS, 77 (18), 3865-3868 (1996). 
 Generalized gradient approximation made simple.
 http://dx.doi.org/10.1103/PhysRevLett.77.3865


 Goedecker, S; Teter, M; Hutter, J. 
 PHYSICAL REVIEW B, 54 (3), 1703-1710 (1996). 
 Separable dual-space Gaussian pseudopotentials.
 http://dx.doi.org/10.1103/PhysRevB.54.1703


 -------------------------------------------------------------------------------
 -                                                                             -
 -                                T I M I N G                                  -
 -                                                                             -
 -------------------------------------------------------------------------------
 SUBROUTINE                       CALLS  ASD         SELF TIME        TOTAL TIME
                                MAXIMUM       AVERAGE  MAXIMUM  AVERAGE  MAXIMUM
 CP2K                                 1  1.0    0.276    0.314 5254.478 5254.521
 cp_geo_opt                           1  2.0    0.002    0.002 5252.083 5252.136
 geoopt_bfgs                          1  3.0    0.027    0.054 5252.082 5252.134
 cp_eval_at                          19  4.0    0.008    0.018 5242.913 5242.932
 qs_forces                           18  5.0    0.024    0.050 5151.902 5151.915
 qs_energies                         19  5.9    0.115    0.135 4872.614 4872.664
 scf_env_do_scf                      19  6.9    0.008    0.045 4626.495 4626.513
 scf_env_do_scf_inner_loop          349  8.0    0.074    0.088 4238.820 4238.859
 rebuild_ks_matrix                  367  9.8    0.002    0.002 2278.242 2278.665
 qs_ks_build_kohn_sham_matrix       367 10.8    0.117    0.213 2278.240 2278.663
 qs_ks_update_qs_env                369  9.0    0.003    0.016 1950.919 1951.305
 qs_rho_update_rho                  368  9.0    0.004    0.004 1915.385 1916.334
 calculate_rho_elec                 736 10.0  954.200  970.982 1915.381 1916.331
 sum_up_and_integrate               202 11.7    3.011    3.375 1243.746 1244.181
 integrate_v_rspace                 404 12.7  691.687  716.520 1240.734 1241.539
 pw_transfer                      11576 13.3    1.221    1.415 1152.925 1158.903
 fft_wrap_pw1pw2                  10842 14.4    0.127    0.149 1147.171 1153.136
 fft_wrap_pw1pw2_600               6282 15.7   69.968   79.050 1067.331 1073.233
 fft3d_ps                         10842 16.4  324.056  358.897  983.486  993.496
 rs_pw_transfer                    5794 12.9    0.075    0.098  947.498  960.617
 density_rs2pw                      736 11.0    0.053    0.066  863.750  883.766
 qs_vxc_create                      367 11.8    0.014    0.028  803.641  803.827
 dbcsr_multiply_generic           10473 13.7    0.694    0.917  725.916  726.831
 mp_waitall_1                   2125298 16.7  647.518  673.960  647.518  673.960
 qs_scf_new_mos                     349  9.0    0.003    0.006  649.922  650.555
 qs_scf_loop_do_ot                  349 10.0    0.011    0.038  649.918  650.552
 mp_alltoall_z22v                 10842 18.4  568.341  633.584  568.341  633.584
 ot_scf_mini                        349 11.0    0.055    0.149  593.961  594.486
 xc_vxc_pw_create                   202 12.7   33.398   37.777  593.225  593.349
 multiply_cannon                  10473 14.7    3.324    3.523  559.368  571.154
 xc_rho_set_and_dset_create         367 13.8    6.496    6.911  443.137  450.095
 mp_waitany                      208912 14.9  416.124  449.217  416.124  449.217
 potential_pw2rs                    404 13.7    0.317    0.367  438.808  439.722
 rs_pw_transfer_RS2PW_600           774 13.0  154.073  168.203  392.958  406.409
 x_to_yz                           4719 18.0   51.400   58.991  375.291  399.810
 init_scf_loop                       20  8.0    0.004    0.007  387.158  387.171
 multiply_cannon_metrocomm3      209460 15.7    0.573    0.608  333.490  372.605
 qs_ks_update_qs_env_forces          18  6.0    0.000    0.000  330.636  330.704
 yz_to_x                           3843 16.8   31.796   33.231  275.737  306.589
 ot_mini                            349 12.0    0.003    0.005  304.379  304.881
 rs_pw_transfer_PW2RS_600           460 15.2  102.990  111.357  260.936  266.468
 xc_exc_calc                        165 13.0    0.802    0.930  210.402  210.501
 prepare_preconditioner              20  8.9    0.000    0.001  198.485  198.545
 qs_ot_get_derivative               368 13.0    0.005    0.008  189.943  190.373
 make_preconditioner                 40  9.9    0.002    0.016  181.821  181.847
 make_full_all                       40 10.9    0.016    0.060  167.119  167.171
 mp_alltoall_d11v                 11434 15.1  140.588  158.427  140.588  158.427
 multiply_cannon_metrocomm1      209460 15.7    0.660    0.718  124.488  154.551
 init_scf_run                        19  6.9    0.002    0.003  151.535  151.537
 scf_env_initial_rho_setup           19  7.9    0.001    0.002  151.533  151.535
 rs_distribute_matrix              1176 12.0    1.487    2.985  132.745  149.851
 wfi_extrapolate                     19  8.9    0.010    0.035  142.528  142.553
 cp_fm_syevd                        448 13.8    0.004    0.015  140.193  140.434
 cp_fm_redistribute_end             448 14.8   50.568  135.175   51.428  135.742
 cp_fm_syevd_base                   448 14.5   83.729  130.390   83.729  130.390
 qs_ot_get_p                        738 11.9    0.011    0.056  123.788  125.320
 apply_preconditioner_dbcsr         408 14.0    0.001    0.001  120.092  120.405
 apply_all                          408 15.0    0.048    0.086  120.091  120.404
 ot_new_cg_direction                184 13.0    0.005    0.019  111.997  112.035
 mp_sum_d                         14509 14.4   84.076  107.726   84.076  107.726
 -------------------------------------------------------------------------------

 The number of warnings for this run is : 1
 
 -------------------------------------------------------------------------------
  **** **** ******  **  PROGRAM ENDED AT                 2019-07-14 16:45:10.500
 ***** ** ***  *** **   PROGRAM RAN ON            blg9214.int.ets1.calculquebec.
 **    ****   ******    PROGRAM RAN BY                                       rzk
 ***** **    ** ** **   PROGRAM PROCESS ID                                191029
  **** **  *******  **  PROGRAM STOPPED IN /lustre04/scratch/rzk/rzk/GaN-carbene
                                           /443-adatoms-both-2x2/09-BondBreaking
                                           -CH/03-0501-CH-to-Nsur-PES/Phase02
