 DBCSR| Multiplication driver                                               BLAS
 DBCSR| Multrec recursion limit                                              512
 DBCSR| Multiplication stack size                                           1000
 DBCSR| Maximum elements for images                                    UNLIMITED
 DBCSR| Multiplicative factor virtual images                                   1
 DBCSR| Multiplication size stacks                                             3
 DBCSR| Number of 3D layers                                               SINGLE
 DBCSR| Use MPI memory allocation                                              T
 DBCSR| Use RMA algorithm                                                      F
 DBCSR| Use Communication thread                                               T
 DBCSR| Communication thread load                                             87


  **** **** ******  **  PROGRAM STARTED AT               2019-07-14 20:20:55.564
 ***** ** ***  *** **   PROGRAM STARTED ON        blg8248.int.ets1.calculquebec.
 **    ****   ******    PROGRAM STARTED BY                                   rzk
 ***** **    ** ** **   PROGRAM PROCESS ID                                334724
  **** **  *******  **  PROGRAM STARTED IN /lustre04/scratch/rzk/rzk/GaN-carbene
                                           /443-adatoms-both-2x2/09-BondBreaking
                                           -CH/03-0501-CH-to-Nsur-PES/Phase02

 CP2K| version string:                    CP2K version 7.0 (Development Version)
 CP2K| source code revision number:                                    svn:18619
 CP2K| cp2kflags: libint fftw3 libxc parallel mpi3 scalapack mkl                
 CP2K| is freely available from                            https://www.cp2k.org/
 CP2K| Program compiled at                          Sun Apr  7 00:48:11 EDT 2019
 CP2K| Program compiled on                      beluga2.int.ets1.calculquebec.ca
 CP2K| Program compiled for                    Beluga-Linux-x86-64-intel-openmpi
 CP2K| Data directory path    /home/rzk/projects/def-rzk/group/cp2k/cp2k-mcgill/
 CP2K| Input file name                                            TEST-1.restart
 
 GLOBAL| Force Environment number                                              1
 GLOBAL| Basis set file name                                        BASIS_MOLOPT
 GLOBAL| Potential file name                                      GTH_POTENTIALS
 GLOBAL| MM Potential file name                                     MM_POTENTIAL
 GLOBAL| Coordinate file name                                      __STD_INPUT__
 GLOBAL| Method name                                                        CP2K
 GLOBAL| Project name                                                       TEST
 GLOBAL| Preferred FFT library                                             FFTW3
 GLOBAL| Preferred diagonalization lib.                                       SL
 GLOBAL| Run type                                                        GEO_OPT
 GLOBAL| All-to-all communication in single precision                          F
 GLOBAL| FFTs using library dependent lengths                                  F
 GLOBAL| Global print level                                               MEDIUM
 GLOBAL| MPI I/O enabled                                                       T
 GLOBAL| Total number of message passing processes                            80
 GLOBAL| Number of threads for this process                                    1
 GLOBAL| This output is from process                                           0
 GLOBAL| CPU model name :  Intel(R) Xeon(R) Gold 6148 CPU @ 2.40GHz

 MEMORY| system memory details [Kb]
 MEMORY|                        rank 0           min           max       average
 MEMORY| MemTotal            196614300     196614300     196614300     196614300
 MEMORY| MemFree             179180860     179171884     182275616     180714129
 MEMORY| Buffers                     0             0             0             0
 MEMORY| Cached                1340328       1340328       1383212       1361770
 MEMORY| Slab                  1190136       1154472       1190136       1172304
 MEMORY| SReclaimable           155824        121488        155824        138656
 MEMORY| MemLikelyFree       180677012     180668036     183780316     182214555


 *** Fundamental physical constants (SI units) ***

 *** Literature: B. J. Mohr and B. N. Taylor,
 ***             CODATA recommended values of the fundamental physical
 ***             constants: 2006, Web Version 5.1
 ***             http://physics.nist.gov/constants

 Speed of light in vacuum [m/s]                             2.99792458000000E+08
 Magnetic constant or permeability of vacuum [N/A**2]       1.25663706143592E-06
 Electric constant or permittivity of vacuum [F/m]          8.85418781762039E-12
 Planck constant (h) [J*s]                                  6.62606896000000E-34
 Planck constant (h-bar) [J*s]                              1.05457162825177E-34
 Elementary charge [C]                                      1.60217648700000E-19
 Electron mass [kg]                                         9.10938215000000E-31
 Electron g factor [ ]                                     -2.00231930436220E+00
 Proton mass [kg]                                           1.67262163700000E-27
 Fine-structure constant                                    7.29735253760000E-03
 Rydberg constant [1/m]                                     1.09737315685270E+07
 Avogadro constant [1/mol]                                  6.02214179000000E+23
 Boltzmann constant [J/K]                                   1.38065040000000E-23
 Atomic mass unit [kg]                                      1.66053878200000E-27
 Bohr radius [m]                                            5.29177208590000E-11

 *** Conversion factors ***

 [u] -> [a.u.]                                              1.82288848426455E+03
 [Angstrom] -> [Bohr] = [a.u.]                              1.88972613288564E+00
 [a.u.] = [Bohr] -> [Angstrom]                              5.29177208590000E-01
 [a.u.] -> [s]                                              2.41888432650478E-17
 [a.u.] -> [fs]                                             2.41888432650478E-02
 [a.u.] -> [J]                                              4.35974393937059E-18
 [a.u.] -> [N]                                              8.23872205491840E-08
 [a.u.] -> [K]                                              3.15774647902944E+05
 [a.u.] -> [kJ/mol]                                         2.62549961709828E+03
 [a.u.] -> [kcal/mol]                                       6.27509468713739E+02
 [a.u.] -> [Pa]                                             2.94210107994716E+13
 [a.u.] -> [bar]                                            2.94210107994716E+08
 [a.u.] -> [atm]                                            2.90362800883016E+08
 [a.u.] -> [eV]                                             2.72113838565563E+01
 [a.u.] -> [Hz]                                             6.57968392072181E+15
 [a.u.] -> [1/cm] (wave numbers)                            2.19474631370540E+05
 [a.u./Bohr**2] -> [1/cm]                                   5.14048714338585E+03
 
          ----------------------------------------------------------------------
 COLVARS| COLVAR INPUT INDEX:        1
 COLVARS| BOND          >>> ATOMS:                                   176     211
          ----------------------------------------------------------------------

 CELL_TOP| Volume [angstrom^3]:                                         4586.323
 CELL_TOP| Vector a [angstrom    12.864     0.000     0.000    |a| =      12.864
 CELL_TOP| Vector b [angstrom    -6.432    11.141     0.000    |b| =      12.864
 CELL_TOP| Vector c [angstrom     0.000     0.000    32.000    |c| =      32.000
 CELL_TOP| Angle (b,c), alpha [degree]:                                   90.000
 CELL_TOP| Angle (a,c), beta  [degree]:                                   90.000
 CELL_TOP| Angle (a,b), gamma [degree]:                                  120.000
 CELL_TOP| Numerically orthorhombic:                                          NO
 RESTRAINT| Active restraint on COLLECTIVE section Nr.     1. K [a.u.]= 2.000000
 
 GENERATE|  Preliminary Number of Bonds generated:                             0
 GENERATE|  Achieved consistency in connectivity generation.

 CELL| Volume [angstrom^3]:                                             4586.323
 CELL| Vector a [angstrom]:      12.864     0.000     0.000    |a| =      12.864
 CELL| Vector b [angstrom]:      -6.432    11.141     0.000    |b| =      12.864
 CELL| Vector c [angstrom]:       0.000     0.000    32.000    |c| =      32.000
 CELL| Angle (b,c), alpha [degree]:                                       90.000
 CELL| Angle (a,c), beta  [degree]:                                       90.000
 CELL| Angle (a,b), gamma [degree]:                                      120.000
 CELL| Numerically orthorhombic:                                              NO

 CELL_REF| Volume [angstrom^3]:                                         4670.759
 CELL_REF| Vector a [angstrom    12.982     0.000     0.000    |a| =      12.982
 CELL_REF| Vector b [angstrom    -6.491    11.243     0.000    |b| =      12.982
 CELL_REF| Vector c [angstrom     0.000     0.000    32.000    |c| =      32.000
 CELL_REF| Angle (b,c), alpha [degree]:                                   90.000
 CELL_REF| Angle (a,c), beta  [degree]:                                   90.000
 CELL_REF| Angle (a,b), gamma [degree]:                                  120.000
 CELL_REF| Numerically orthorhombic:                                          NO

 *******************************************************************************
 *******************************************************************************
 **                                                                           **
 **     #####                         ##              ##                      **
 **    ##   ##            ##          ##              ##                      **
 **   ##     ##                       ##            ######                    **
 **   ##     ##  ##   ##  ##   #####  ##  ##   ####   ##    #####    #####    **
 **   ##     ##  ##   ##  ##  ##      ## ##   ##      ##   ##   ##  ##   ##   **
 **   ##  ## ##  ##   ##  ##  ##      ####     ###    ##   ######   ######    **
 **    ##  ###   ##   ##  ##  ##      ## ##      ##   ##   ##       ##        **
 **     #######   #####   ##   #####  ##  ##  ####    ##    #####   ##        **
 **           ##                                                    ##        **
 **                                                                           **
 **                                                ... make the atoms dance   **
 **                                                                           **
 **            Copyright (C) by CP2K developers group (2000 - 2018)           **
 **                                                                           **
 *******************************************************************************

 DFT| Spin unrestricted (spin-polarized) Kohn-Sham calculation               UKS
 DFT| Multiplicity                                                             1
 DFT| Number of spin states                                                    2
 DFT| Charge                                                                   0
 DFT| Self-interaction correction (SIC)                                       NO
 DFT| Cutoffs: density                                              1.000000E-10
 DFT|          gradient                                             1.000000E-10
 DFT|          tau                                                  1.000000E-10
 DFT|          cutoff_smoothing_range                               0.000000E+00
 DFT| XC density smoothing                                                  NONE
 DFT| XC derivatives                                                          PW
 FUNCTIONAL| ROUTINE=NEW
 FUNCTIONAL| PBE:
 FUNCTIONAL| J.P.Perdew, K.Burke, M.Ernzerhof, Phys. Rev. Letter, vol. 77, n 18,
 FUNCTIONAL|  pp. 3865-3868, (1996){spin polarized}                             
 vdW POTENTIAL|                                                   Pair Potential
 vdW POTENTIAL|          DFT-D3 (Version 3.1)
 vdW POTENTIAL|          Potential Form: S. Grimme et al, JCP 132: 154104 (2010)
 vdW POTENTIAL|          Zero Damping
 vdW POTENTIAL|          Cutoff Radius [Bohr]:                             18.90
 vdW POTENTIAL|          s6 Scaling Factor:                               1.0000
 vdW POTENTIAL|          sr6 Scaling Factor:                              1.2170
 vdW POTENTIAL|          s8 Scaling Factor:                               0.7220
 vdW POTENTIAL|          Cutoff for CN calculation:                   0.1000E-05

 QS| Method:                                                                 GPW
 QS| Density plane wave grid type                        NON-SPHERICAL FULLSPACE
 QS| Number of grid levels:                                                    5
 QS| Density cutoff [a.u.]:                                                600.0
 QS| Multi grid cutoff [a.u.]: 1) grid level                               600.0
 QS|                           2) grid level                               200.0
 QS|                           3) grid level                                66.7
 QS|                           4) grid level                                22.2
 QS|                           5) grid level                                 7.4
 QS| Grid level progression factor:                                          3.0
 QS| Relative density cutoff [a.u.]:                                        20.0
 QS| Consistent realspace mapping and integration 
 QS| Interaction thresholds: eps_pgf_orb:                                1.0E-07
 QS|                         eps_filter_matrix:                          0.0E+00
 QS|                         eps_core_charge:                            1.0E-16
 QS|                         eps_rho_gspace:                             1.0E-14
 QS|                         eps_rho_rspace:                             1.0E-14
 QS|                         eps_gvg_rspace:                             1.0E-07
 QS|                         eps_ppl:                                    1.0E-02
 QS|                         eps_ppnl:                                   1.0E-09


 ATOMIC KIND INFORMATION

  1. Atomic kind: N                                     Number of atoms:     100

     Orbital Basis Set                                        DZVP-MOLOPT-SR-GTH

       Number of orbital shell sets:                                           1
       Number of orbital shells:                                               5
       Number of primitive Cartesian functions:                                5
       Number of Cartesian basis functions:                                   14
       Number of spherical basis functions:                                   13
       Norm type:                                                              2

       Normalised Cartesian orbitals:

                        Set   Shell   Orbital            Exponent    Coefficient

                          1       1    2s                7.341988       0.360561
                                                         2.542637       0.139177
                                                         0.888575      -0.289383
                                                         0.333802      -0.182244
                                                         0.112012      -0.019197

                          1       2    3s                7.341988       0.282000
                                                         2.542637       0.177875
                                                         0.888575      -0.278381
                                                         0.333802       0.008577
                                                         0.112012       0.154176

                          1       3    3px               7.341988      -1.188719
                                                         2.542637      -0.973969
                                                         0.888575      -0.501079
                                                         0.333802      -0.144894
                                                         0.112012      -0.013986
                          1       3    3py               7.341988      -1.188719
                                                         2.542637      -0.973969
                                                         0.888575      -0.501079
                                                         0.333802      -0.144894
                                                         0.112012      -0.013986
                          1       3    3pz               7.341988      -1.188719
                                                         2.542637      -0.973969
                                                         0.888575      -0.501079
                                                         0.333802      -0.144894
                                                         0.112012      -0.013986

                          1       4    4px               7.341988      -0.094798
                                                         2.542637       0.050069
                                                         0.888575      -0.114797
                                                         0.333802       0.144793
                                                         0.112012       0.066710
                          1       4    4py               7.341988      -0.094798
                                                         2.542637       0.050069
                                                         0.888575      -0.114797
                                                         0.333802       0.144793
                                                         0.112012       0.066710
                          1       4    4pz               7.341988      -0.094798
                                                         2.542637       0.050069
                                                         0.888575      -0.114797
                                                         0.333802       0.144793
                                                         0.112012       0.066710

                          1       5    4dx2              7.341988       1.354688
                                                         2.542637       0.690378
                                                         0.888575       0.855359
                                                         0.333802       0.091746
                                                         0.112012       0.001253
                          1       5    4dxy              7.341988       2.346389
                                                         2.542637       1.195770
                                                         0.888575       1.481524
                                                         0.333802       0.158910
                                                         0.112012       0.002169
                          1       5    4dxz              7.341988       2.346389
                                                         2.542637       1.195770
                                                         0.888575       1.481524
                                                         0.333802       0.158910
                                                         0.112012       0.002169
                          1       5    4dy2              7.341988       1.354688
                                                         2.542637       0.690378
                                                         0.888575       0.855359
                                                         0.333802       0.091746
                                                         0.112012       0.001253
                          1       5    4dyz              7.341988       2.346389
                                                         2.542637       1.195770
                                                         0.888575       1.481524
                                                         0.333802       0.158910
                                                         0.112012       0.002169
                          1       5    4dz2              7.341988       1.354688
                                                         2.542637       0.690378
                                                         0.888575       0.855359
                                                         0.333802       0.091746
                                                         0.112012       0.001253

     GTH Potential information for                                    GTH-PBE-q5

       Description:                       Goedecker-Teter-Hutter pseudopotential
                                           Goedecker et al., PRB 54, 1703 (1996)
                                          Hartwigsen et al., PRB 58, 3641 (1998)
                                                      Krack, TCA 114, 145 (2005)

       Gaussian exponent of the core charge distribution:               6.208322
       Electronic configuration (s p d ...):                               2   3

       Parameters of the local part of the GTH pseudopotential:

                          rloc        C1          C2          C3          C4
                        0.283791  -12.415226    1.868096

       Parameters of the non-local part of the GTH pseudopotential:

                   l      r(l)      h(i,j,l)

                   0    0.255405   13.630263
                   1    0.245495

  2. Atomic kind: Ga                                    Number of atoms:     100

     Orbital Basis Set                                        DZVP-MOLOPT-SR-GTH

       Number of orbital shell sets:                                           1
       Number of orbital shells:                                               7
       Number of primitive Cartesian functions:                                6
       Number of Cartesian basis functions:                                   30
       Number of spherical basis functions:                                   25
       Norm type:                                                              2

       Normalised Cartesian orbitals:

                        Set   Shell   Orbital            Exponent    Coefficient

                          1       1    2s                7.066654       0.013136
                                                         3.428369      -0.094392
                                                         1.430064       0.265435
                                                         0.571611       0.056465
                                                         0.232197      -0.192187
                                                         0.076562      -0.044987

                          1       2    3s                7.066654      -0.098564
                                                         3.428369       0.010390
                                                         1.430064       0.351249
                                                         0.571611       0.182615
                                                         0.232197      -0.425358
                                                         0.076562       0.190349

                          1       3    3px               7.066654       0.002364
                                                         3.428369       0.019222
                                                         1.430064       0.250132
                                                         0.571611      -0.058486
                                                         0.232197      -0.159451
                                                         0.076562      -0.020696
                          1       3    3py               7.066654       0.002364
                                                         3.428369       0.019222
                                                         1.430064       0.250132
                                                         0.571611      -0.058486
                                                         0.232197      -0.159451
                                                         0.076562      -0.020696
                          1       3    3pz               7.066654       0.002364
                                                         3.428369       0.019222
                                                         1.430064       0.250132
                                                         0.571611      -0.058486
                                                         0.232197      -0.159451
                                                         0.076562      -0.020696

                          1       4    4px               7.066654       0.492448
                                                         3.428369      -0.614736
                                                         1.430064      -0.191654
                                                         0.571611       0.037801
                                                         0.232197       0.302315
                                                         0.076562      -0.071336
                          1       4    4py               7.066654       0.492448
                                                         3.428369      -0.614736
                                                         1.430064      -0.191654
                                                         0.571611       0.037801
                                                         0.232197       0.302315
                                                         0.076562      -0.071336
                          1       4    4pz               7.066654       0.492448
                                                         3.428369      -0.614736
                                                         1.430064      -0.191654
                                                         0.571611       0.037801
                                                         0.232197       0.302315
                                                         0.076562      -0.071336

                          1       5    4dx2              7.066654     -15.264855
                                                         3.428369      -5.345726
                                                         1.430064      -1.022732
                                                         0.571611      -0.123148
                                                         0.232197      -0.006983
                                                         0.076562      -0.000022
                          1       5    4dxy              7.066654     -26.439504
                                                         3.428369      -9.259069
                                                         1.430064      -1.771423
                                                         0.571611      -0.213299
                                                         0.232197      -0.012094
                                                         0.076562      -0.000037
                          1       5    4dxz              7.066654     -26.439504
                                                         3.428369      -9.259069
                                                         1.430064      -1.771423
                                                         0.571611      -0.213299
                                                         0.232197      -0.012094
                                                         0.076562      -0.000037
                          1       5    4dy2              7.066654     -15.264855
                                                         3.428369      -5.345726
                                                         1.430064      -1.022732
                                                         0.571611      -0.123148
                                                         0.232197      -0.006983
                                                         0.076562      -0.000022
                          1       5    4dyz              7.066654     -26.439504
                                                         3.428369      -9.259069
                                                         1.430064      -1.771423
                                                         0.571611      -0.213299
                                                         0.232197      -0.012094
                                                         0.076562      -0.000037
                          1       5    4dz2              7.066654     -15.264855
                                                         3.428369      -5.345726
                                                         1.430064      -1.022732
                                                         0.571611      -0.123148
                                                         0.232197      -0.006983
                                                         0.076562      -0.000022

                          1       6    5dx2              7.066654      -5.739265
                                                         3.428369      -2.129289
                                                         1.430064      -0.700423
                                                         0.571611       0.161606
                                                         0.232197       0.043513
                                                         0.076562       0.011205
                          1       6    5dxy              7.066654      -9.940698
                                                         3.428369      -3.688037
                                                         1.430064      -1.213168
                                                         0.571611       0.279909
                                                         0.232197       0.075368
                                                         0.076562       0.019407
                          1       6    5dxz              7.066654      -9.940698
                                                         3.428369      -3.688037
                                                         1.430064      -1.213168
                                                         0.571611       0.279909
                                                         0.232197       0.075368
                                                         0.076562       0.019407
                          1       6    5dy2              7.066654      -5.739265
                                                         3.428369      -2.129289
                                                         1.430064      -0.700423
                                                         0.571611       0.161606
                                                         0.232197       0.043513
                                                         0.076562       0.011205
                          1       6    5dyz              7.066654      -9.940698
                                                         3.428369      -3.688037
                                                         1.430064      -1.213168
                                                         0.571611       0.279909
                                                         0.232197       0.075368
                                                         0.076562       0.019407
                          1       6    5dz2              7.066654      -5.739265
                                                         3.428369      -2.129289
                                                         1.430064      -0.700423
                                                         0.571611       0.161606
                                                         0.232197       0.043513
                                                         0.076562       0.011205

                          1       7    5fx3              7.066654       0.705879
                                                         3.428369      -0.273976
                                                         1.430064       0.113667
                                                         0.571611       0.132480
                                                         0.232197       0.012437
                                                         0.076562       0.003241
                          1       7    5fx2y             7.066654       1.578393
                                                         3.428369      -0.612629
                                                         1.430064       0.254167
                                                         0.571611       0.296234
                                                         0.232197       0.027811
                                                         0.076562       0.007246
                          1       7    5fx2z             7.066654       1.578393
                                                         3.428369      -0.612629
                                                         1.430064       0.254167
                                                         0.571611       0.296234
                                                         0.232197       0.027811
                                                         0.076562       0.007246
                          1       7    5fxy2             7.066654       1.578393
                                                         3.428369      -0.612629
                                                         1.430064       0.254167
                                                         0.571611       0.296234
                                                         0.232197       0.027811
                                                         0.076562       0.007246
                          1       7    5fxyz             7.066654       2.733856
                                                         3.428369      -1.061105
                                                         1.430064       0.440230
                                                         0.571611       0.513092
                                                         0.232197       0.048170
                                                         0.076562       0.012551
                          1       7    5fxz2             7.066654       1.578393
                                                         3.428369      -0.612629
                                                         1.430064       0.254167
                                                         0.571611       0.296234
                                                         0.232197       0.027811
                                                         0.076562       0.007246
                          1       7    5fy3              7.066654       0.705879
                                                         3.428369      -0.273976
                                                         1.430064       0.113667
                                                         0.571611       0.132480
                                                         0.232197       0.012437
                                                         0.076562       0.003241
                          1       7    5fy2z             7.066654       1.578393
                                                         3.428369      -0.612629
                                                         1.430064       0.254167
                                                         0.571611       0.296234
                                                         0.232197       0.027811
                                                         0.076562       0.007246
                          1       7    5fyz2             7.066654       1.578393
                                                         3.428369      -0.612629
                                                         1.430064       0.254167
                                                         0.571611       0.296234
                                                         0.232197       0.027811
                                                         0.076562       0.007246
                          1       7    5fz3              7.066654       0.705879
                                                         3.428369      -0.273976
                                                         1.430064       0.113667
                                                         0.571611       0.132480
                                                         0.232197       0.012437
                                                         0.076562       0.003241

     GTH Potential information for                                   GTH-PBE-q13

       Description:                       Goedecker-Teter-Hutter pseudopotential
                                           Goedecker et al., PRB 54, 1703 (1996)
                                          Hartwigsen et al., PRB 58, 3641 (1998)
                                                      Krack, TCA 114, 145 (2005)

       Gaussian exponent of the core charge distribution:               2.082466
       Electronic configuration (s p d ...):                           2   1  10

       Parameters of the local part of the GTH pseudopotential:

                          rloc        C1          C2          C3          C4
                        0.490000

       Parameters of the non-local part of the GTH pseudopotential:

                   l      r(l)      h(i,j,l)

                   0    0.416777   10.475690   -4.921768    0.870706
                                   -4.921768    7.770178   -2.248152
                                    0.870706   -2.248152    1.784415
                   1    0.569627    1.777985    0.195860
                                    0.195860   -0.231744
                   2    0.238126  -16.248680

  3. Atomic kind: O                                     Number of atoms:       2

     Orbital Basis Set                                     DZVP-MOLOPT-SR-GTH-q6

       Number of orbital shell sets:                                           1
       Number of orbital shells:                                               5
       Number of primitive Cartesian functions:                                5
       Number of Cartesian basis functions:                                   14
       Number of spherical basis functions:                                   13
       Norm type:                                                              2

       Normalised Cartesian orbitals:

                        Set   Shell   Orbital            Exponent    Coefficient

                          1       1    2s               10.389228       0.396646
                                                         3.849621       0.208811
                                                         1.388401      -0.301641
                                                         0.496955      -0.274061
                                                         0.162492      -0.033677

                          1       2    3s               10.389228       0.303673
                                                         3.849621       0.240943
                                                         1.388401      -0.313066
                                                         0.496955      -0.043055
                                                         0.162492       0.213991

                          1       3    3px              10.389228      -1.530415
                                                         3.849621      -1.371928
                                                         1.388401      -0.761951
                                                         0.496955      -0.253695
                                                         0.162492      -0.035541
                          1       3    3py              10.389228      -1.530415
                                                         3.849621      -1.371928
                                                         1.388401      -0.761951
                                                         0.496955      -0.253695
                                                         0.162492      -0.035541
                          1       3    3pz              10.389228      -1.530415
                                                         3.849621      -1.371928
                                                         1.388401      -0.761951
                                                         0.496955      -0.253695
                                                         0.162492      -0.035541

                          1       4    4px              10.389228      -0.565392
                                                         3.849621      -0.038231
                                                         1.388401      -0.382373
                                                         0.496955       0.179070
                                                         0.162492       0.122714
                          1       4    4py              10.389228      -0.565392
                                                         3.849621      -0.038231
                                                         1.388401      -0.382373
                                                         0.496955       0.179070
                                                         0.162492       0.122714
                          1       4    4pz              10.389228      -0.565392
                                                         3.849621      -0.038231
                                                         1.388401      -0.382373
                                                         0.496955       0.179070
                                                         0.162492       0.122714

                          1       5    4dx2             10.389228       1.867377
                                                         3.849621       0.670994
                                                         1.388401       1.353441
                                                         0.496955       0.273538
                                                         0.162492       0.006620
                          1       5    4dxy             10.389228       3.234392
                                                         3.849621       1.162195
                                                         1.388401       2.344229
                                                         0.496955       0.473781
                                                         0.162492       0.011466
                          1       5    4dxz             10.389228       3.234392
                                                         3.849621       1.162195
                                                         1.388401       2.344229
                                                         0.496955       0.473781
                                                         0.162492       0.011466
                          1       5    4dy2             10.389228       1.867377
                                                         3.849621       0.670994
                                                         1.388401       1.353441
                                                         0.496955       0.273538
                                                         0.162492       0.006620
                          1       5    4dyz             10.389228       3.234392
                                                         3.849621       1.162195
                                                         1.388401       2.344229
                                                         0.496955       0.473781
                                                         0.162492       0.011466
                          1       5    4dz2             10.389228       1.867377
                                                         3.849621       0.670994
                                                         1.388401       1.353441
                                                         0.496955       0.273538
                                                         0.162492       0.006620

     GTH Potential information for                                    GTH-PBE-q6

       Description:                       Goedecker-Teter-Hutter pseudopotential
                                           Goedecker et al., PRB 54, 1703 (1996)
                                          Hartwigsen et al., PRB 58, 3641 (1998)
                                                      Krack, TCA 114, 145 (2005)

       Gaussian exponent of the core charge distribution:               8.360253
       Electronic configuration (s p d ...):                               2   4

       Parameters of the local part of the GTH pseudopotential:

                          rloc        C1          C2          C3          C4
                        0.244554  -16.667215    2.487311

       Parameters of the non-local part of the GTH pseudopotential:

                   l      r(l)      h(i,j,l)

                   0    0.220956   18.337458
                   1    0.211332

  4. Atomic kind: H                                     Number of atoms:       8

     Orbital Basis Set                                     DZVP-MOLOPT-SR-GTH-q1

       Number of orbital shell sets:                                           1
       Number of orbital shells:                                               3
       Number of primitive Cartesian functions:                                5
       Number of Cartesian basis functions:                                    5
       Number of spherical basis functions:                                    5
       Norm type:                                                              2

       Normalised Cartesian orbitals:

                        Set   Shell   Orbital            Exponent    Coefficient

                          1       1    2s               10.068468      -0.133023
                                                         2.680223      -0.177618
                                                         0.791502      -0.258419
                                                         0.239116      -0.107525
                                                         0.082193      -0.014019

                          1       2    3s               10.068468       0.344673
                                                         2.680223       1.819821
                                                         0.791502      -0.999069
                                                         0.239116       0.017430
                                                         0.082193       0.082660

                          1       3    3px              10.068468       0.155326
                                                         2.680223       0.367157
                                                         0.791502       0.311480
                                                         0.239116       0.080105
                                                         0.082193       0.033440
                          1       3    3py              10.068468       0.155326
                                                         2.680223       0.367157
                                                         0.791502       0.311480
                                                         0.239116       0.080105
                                                         0.082193       0.033440
                          1       3    3pz              10.068468       0.155326
                                                         2.680223       0.367157
                                                         0.791502       0.311480
                                                         0.239116       0.080105
                                                         0.082193       0.033440

     GTH Potential information for                                    GTH-PBE-q1

       Description:                       Goedecker-Teter-Hutter pseudopotential
                                           Goedecker et al., PRB 54, 1703 (1996)
                                          Hartwigsen et al., PRB 58, 3641 (1998)
                                                      Krack, TCA 114, 145 (2005)

       Gaussian exponent of the core charge distribution:              12.500000
       Electronic configuration (s p d ...):                                   1

       Parameters of the local part of the GTH pseudopotential:

                          rloc        C1          C2          C3          C4
                        0.200000   -4.178900    0.724463

  5. Atomic kind: C                                     Number of atoms:       2

     Orbital Basis Set                                     DZVP-MOLOPT-SR-GTH-q4

       Number of orbital shell sets:                                           1
       Number of orbital shells:                                               5
       Number of primitive Cartesian functions:                                5
       Number of Cartesian basis functions:                                   14
       Number of spherical basis functions:                                   13
       Norm type:                                                              2

       Normalised Cartesian orbitals:

                        Set   Shell   Orbital            Exponent    Coefficient

                          1       1    2s                5.605331       0.322515
                                                         2.113016       0.213043
                                                         0.769911      -0.209686
                                                         0.348157      -0.219794
                                                         0.128212      -0.022789

                          1       2    3s                5.605331       0.552234
                                                         2.113016       0.082072
                                                         0.769911       0.007843
                                                         0.348157       0.136893
                                                         0.128212       0.074283

                          1       3    3px               5.605331      -0.703879
                                                         2.113016      -0.642521
                                                         0.769911      -0.374851
                                                         0.348157      -0.139743
                                                         0.128212      -0.027849
                          1       3    3py               5.605331      -0.703879
                                                         2.113016      -0.642521
                                                         0.769911      -0.374851
                                                         0.348157      -0.139743
                                                         0.128212      -0.027849
                          1       3    3pz               5.605331      -0.703879
                                                         2.113016      -0.642521
                                                         0.769911      -0.374851
                                                         0.348157      -0.139743
                                                         0.128212      -0.027849

                          1       4    4px               5.605331      -0.480376
                                                         2.113016      -0.552894
                                                         0.769911      -0.316145
                                                         0.348157       0.210505
                                                         0.128212       0.076095
                          1       4    4py               5.605331      -0.480376
                                                         2.113016      -0.552894
                                                         0.769911      -0.316145
                                                         0.348157       0.210505
                                                         0.128212       0.076095
                          1       4    4pz               5.605331      -0.480376
                                                         2.113016      -0.552894
                                                         0.769911      -0.316145
                                                         0.348157       0.210505
                                                         0.128212       0.076095

                          1       5    4dx2              5.605331       0.640026
                                                         2.113016       0.274300
                                                         0.769911       0.446711
                                                         0.348157       0.028674
                                                         0.128212       0.029790
                          1       5    4dxy              5.605331       1.108557
                                                         2.113016       0.475102
                                                         0.769911       0.773726
                                                         0.348157       0.049666
                                                         0.128212       0.051599
                          1       5    4dxz              5.605331       1.108557
                                                         2.113016       0.475102
                                                         0.769911       0.773726
                                                         0.348157       0.049666
                                                         0.128212       0.051599
                          1       5    4dy2              5.605331       0.640026
                                                         2.113016       0.274300
                                                         0.769911       0.446711
                                                         0.348157       0.028674
                                                         0.128212       0.029790
                          1       5    4dyz              5.605331       1.108557
                                                         2.113016       0.475102
                                                         0.769911       0.773726
                                                         0.348157       0.049666
                                                         0.128212       0.051599
                          1       5    4dz2              5.605331       0.640026
                                                         2.113016       0.274300
                                                         0.769911       0.446711
                                                         0.348157       0.028674
                                                         0.128212       0.029790

     GTH Potential information for                                    GTH-PBE-q4

       Description:                       Goedecker-Teter-Hutter pseudopotential
                                           Goedecker et al., PRB 54, 1703 (1996)
                                          Hartwigsen et al., PRB 58, 3641 (1998)
                                                      Krack, TCA 114, 145 (2005)

       Gaussian exponent of the core charge distribution:               4.364419
       Electronic configuration (s p d ...):                               2   2

       Parameters of the local part of the GTH pseudopotential:

                          rloc        C1          C2          C3          C4
                        0.338471   -8.803674    1.339211

       Parameters of the non-local part of the GTH pseudopotential:

                   l      r(l)      h(i,j,l)

                   0    0.302576    9.622487
                   1    0.291507


 MOLECULE KIND INFORMATION


 All atoms are their own molecule, skipping detailed information


 TOTAL NUMBERS AND MAXIMUM NUMBERS

  Total number of            - Atomic kinds:                                   5
                             - Atoms:                                        212
                             - Shell sets:                                   212
                             - Shells:                                      1244
                             - Primitive Cartesian functions:               1160
                             - Cartesian basis functions:                   4496
                             - Spherical basis functions:                   3892

  Maximum angular momentum of- Orbital basis functions:                        3
                             - Local part of the GTH pseudopotential:          2
                             - Non-local part of the GTH pseudopotential:      4


 MODULE QUICKSTEP:  ATOMIC COORDINATES IN angstrom

  Atom  Kind  Element       X           Y           Z          Z(eff)       Mass

       1     1 N    7    0.004926    2.049135    2.452958      5.00      14.0067
       2     2 Ga  31   -0.004543    0.097215    2.802638     13.00      69.7230
       3     1 N    7   -0.007027    0.049581    4.963493      5.00      14.0067
       4     2 Ga  31    0.004464    1.886626    5.738396     13.00      69.7230
       5     1 N    7   -0.001679    1.890433    7.739398      5.00      14.0067
       6     2 Ga  31   -0.001883    0.047349    8.392760     13.00      69.7230
       7     1 N    7   -0.003653    0.044815   10.365438      5.00      14.0067
       8     2 Ga  31   -0.004168    1.883672   11.025525     13.00      69.7230
       9     1 N    7   -0.004307    1.864173   13.015619      5.00      14.0067
      10     2 Ga  31   -0.003900    0.045250   13.830786     13.00      69.7230
      11     1 N    7   -0.004551    0.044626   16.019171      5.00      14.0067
      12     2 Ga  31   -0.004212    2.092295   16.438278     13.00      69.7230
      13     2 Ga  31   -0.018549    3.710510    1.243508     13.00      69.7230
      14     1 N    7   -1.469164    4.625133    2.437164      5.00      14.0067
      15     2 Ga  31   -1.668330    2.792224    3.216414     13.00      69.7230
      16     1 N    7   -1.612741    2.832472    5.196483      5.00      14.0067
      17     2 Ga  31   -1.629045    4.697857    5.750072     13.00      69.7230
      18     1 N    7   -1.619723    4.695927    7.743617      5.00      14.0067
      19     2 Ga  31   -1.597969    2.835809    8.387981     13.00      69.7230
      20     1 N    7   -1.600695    2.836930   10.379788      5.00      14.0067
      21     2 Ga  31   -1.628967    4.694619   11.028568     13.00      69.7230
      22     1 N    7   -1.645128    4.705371   13.017438      5.00      14.0067
      23     2 Ga  31   -1.601475    2.835819   13.576191     13.00      69.7230
      24     1 N    7   -1.632620    2.818163   15.533378      5.00      14.0067
      25     2 Ga  31   -1.446809    4.591046   16.438712     13.00      69.7230
      26     1 N    7   -0.009856    3.754621   17.566991      5.00      14.0067
      27     1 N    7   -3.235720    7.582974    2.451279      5.00      14.0067
      28     2 Ga  31   -3.184046    5.581529    2.805548     13.00      69.7230
      29     1 N    7   -3.215132    5.610581    4.964616      5.00      14.0067
      30     2 Ga  31   -3.238734    7.433613    5.745842     13.00      69.7230
      31     1 N    7   -3.225351    7.462310    7.736380      5.00      14.0067
      32     2 Ga  31   -3.218902    5.614864    8.397286     13.00      69.7230
      33     1 N    7   -3.220122    5.615901   10.367596      5.00      14.0067
      34     2 Ga  31   -3.221996    7.453403   11.028549     13.00      69.7230
      35     1 N    7   -3.220498    7.434740   13.016756      5.00      14.0067
      36     2 Ga  31   -3.220353    5.614994   13.832358     13.00      69.7230
      37     1 N    7   -3.220657    5.615075   16.019681      5.00      14.0067
      38     2 Ga  31   -3.220769    7.663184   16.439637     13.00      69.7230
      39     2 Ga  31   -3.251212    9.348953    1.389212     13.00      69.7230
      40     1 N    7   -4.744582   10.183352    2.461176      5.00      14.0067
      41     2 Ga  31   -4.973873    8.317818    3.185184     13.00      69.7230
      42     1 N    7   -4.845894    8.387513    5.157957      5.00      14.0067
      43     2 Ga  31   -4.862317   10.264154    5.734291     13.00      69.7230
      44     1 N    7   -4.840191   10.256506    7.732161      5.00      14.0067
      45     2 Ga  31   -4.821092    8.407071    8.394532     13.00      69.7230
      46     1 N    7   -4.817574    8.406769   10.381798      5.00      14.0067
      47     2 Ga  31   -4.844372   10.266987   11.025475     13.00      69.7230
      48     1 N    7   -4.860510   10.276128   13.014897      5.00      14.0067
      49     2 Ga  31   -4.817411    8.407423   13.577171     13.00      69.7230
      50     1 N    7   -4.848565    8.389085   15.533981      5.00      14.0067
      51     2 Ga  31   -4.663476   10.161946   16.439281     13.00      69.7230
      52     1 N    7   -3.226580    9.325947   17.568524      5.00      14.0067
      53     1 N    7    3.206168    1.900479    2.555069      5.00      14.0067
      54     2 Ga  31    3.192408    0.157721    3.229867     13.00      69.7230
      55     1 N    7    3.207508    0.039806    5.192109      5.00      14.0067
      56     2 Ga  31    3.199600    1.908242    5.817385     13.00      69.7230
      57     1 N    7    3.209447    1.900032    7.792702      5.00      14.0067
      58     2 Ga  31    3.206139    0.033660    8.384657     13.00      69.7230
      59     1 N    7    3.209896    0.030370   10.375550      5.00      14.0067
      60     2 Ga  31    3.210651    1.899502   10.980398     13.00      69.7230
      61     1 N    7    3.212408    1.900699   12.946969      5.00      14.0067
      62     2 Ga  31    3.211871    0.032867   13.576667     13.00      69.7230
      63     1 N    7    3.213495    0.066593   15.532841      5.00      14.0067
      64     2 Ga  31    3.213268    1.902433   15.817862     13.00      69.7230
      65     1 N    7    1.496667    4.636746    2.342891      5.00      14.0067
      66     2 Ga  31    1.688202    2.814342    3.193936     13.00      69.7230
      67     1 N    7    1.607868    2.843812    5.176946      5.00      14.0067
      68     2 Ga  31    1.656905    4.708056    5.762534     13.00      69.7230
      69     1 N    7    1.606435    4.690242    7.763740      5.00      14.0067
      70     2 Ga  31    1.592757    2.834510    8.393766     13.00      69.7230
      71     1 N    7    1.592413    2.834559   10.384037      5.00      14.0067
      72     2 Ga  31    1.619870    4.694290   11.026504     13.00      69.7230
      73     1 N    7    1.636086    4.705179   13.016499      5.00      14.0067
      74     2 Ga  31    1.593940    2.835849   13.575425     13.00      69.7230
      75     1 N    7    1.623802    2.820354   15.532197      5.00      14.0067
      76     2 Ga  31    1.432586    4.587810   16.440143     13.00      69.7230
      77     1 N    7   -0.011546    7.468265    2.641546      5.00      14.0067
      78     2 Ga  31    0.033218    5.598368    3.246466     13.00      69.7230
      79     1 N    7    0.007196    5.626354    5.186117      5.00      14.0067
      80     2 Ga  31   -0.005756    7.457407    5.857418     13.00      69.7230
      81     1 N    7   -0.006967    7.470270    7.811875      5.00      14.0067
      82     2 Ga  31   -0.003989    5.597754    8.405797     13.00      69.7230
      83     1 N    7   -0.006265    5.602720   10.390421      5.00      14.0067
      84     2 Ga  31   -0.006951    7.472132   10.985588     13.00      69.7230
      85     1 N    7   -0.004812    7.473005   12.950250      5.00      14.0067
      86     2 Ga  31   -0.003791    5.602882   13.576462     13.00      69.7230
      87     1 N    7   -0.002607    5.637409   15.532984      5.00      14.0067
      88     2 Ga  31   -0.003075    7.472971   15.818196     13.00      69.7230
      89     1 N    7   -1.720624   10.184640    2.469992      5.00      14.0067
      90     2 Ga  31   -1.613426    8.377248    3.277967     13.00      69.7230
      91     1 N    7   -1.606590    8.388588    5.202813      5.00      14.0067
      92     2 Ga  31   -1.593307   10.276010    5.759952     13.00      69.7230
      93     1 N    7   -1.604190   10.259689    7.745528      5.00      14.0067
      94     2 Ga  31   -1.628471    8.405099    8.396796     13.00      69.7230
      95     1 N    7   -1.626460    8.406181   10.381939      5.00      14.0067
      96     2 Ga  31   -1.600667   10.266203   11.025620     13.00      69.7230
      97     1 N    7   -1.581005   10.275753   13.014529      5.00      14.0067
      98     2 Ga  31   -1.623192    8.407278   13.577641     13.00      69.7230
      99     1 N    7   -1.592748    8.391331   15.533566      5.00      14.0067
     100     2 Ga  31   -1.783905   10.158612   16.441315     13.00      69.7230
     101     1 N    7    6.434498    2.015387    2.501448      5.00      14.0067
     102     2 Ga  31    6.422506    0.049809    2.842097     13.00      69.7230
     103     1 N    7    6.425119    0.041390    4.978263      5.00      14.0067
     104     2 Ga  31    6.423992    1.877879    5.761373     13.00      69.7230
     105     1 N    7    6.427831    1.887919    7.751574      5.00      14.0067
     106     2 Ga  31    6.425548    0.045069    8.404370     13.00      69.7230
     107     1 N    7    6.426237    0.043653   10.372115      5.00      14.0067
     108     2 Ga  31    6.427234    1.884332   11.026656     13.00      69.7230
     109     1 N    7    6.428310    1.864531   13.016228      5.00      14.0067
     110     2 Ga  31    6.427049    0.044810   13.828455     13.00      69.7230
     111     1 N    7    6.426020    0.043537   16.020448      5.00      14.0067
     112     2 Ga  31    6.427725    2.084601   16.436536     13.00      69.7230
     113     2 Ga  31    6.457832    3.721296    1.466573     13.00      69.7230
     114     1 N    7    4.939034    4.594447    2.458430      5.00      14.0067
     115     2 Ga  31    4.705098    2.772401    3.253420     13.00      69.7230
     116     1 N    7    4.819374    2.829648    5.207927      5.00      14.0067
     117     2 Ga  31    4.774968    4.708732    5.765906     13.00      69.7230
     118     1 N    7    4.818515    4.687979    7.765958      5.00      14.0067
     119     2 Ga  31    4.827174    2.832723    8.395405     13.00      69.7230
     120     1 N    7    4.830075    2.833643   10.384701      5.00      14.0067
     121     2 Ga  31    4.804007    4.694524   11.025276     13.00      69.7230
     122     1 N    7    4.788315    4.704796   13.016080      5.00      14.0067
     123     2 Ga  31    4.830457    2.835912   13.575476     13.00      69.7230
     124     1 N    7    4.805878    2.821731   15.535729      5.00      14.0067
     125     2 Ga  31    4.978440    4.594838   16.436627     13.00      69.7230
     126     1 N    7    6.422058    3.754559   17.579098      5.00      14.0067
     127     1 N    7    3.189764    7.620776    2.471943      5.00      14.0067
     128     1 N    7    3.217710    5.620876    5.054917      5.00      14.0067
     129     2 Ga  31    3.215778    7.414995    5.777241     13.00      69.7230
     130     1 N    7    3.210274    7.471871    7.769980      5.00      14.0067
     131     2 Ga  31    3.212152    5.613849    8.398946     13.00      69.7230
     132     1 N    7    3.211792    5.615614   10.373214      5.00      14.0067
     133     2 Ga  31    3.211959    7.453597   11.027998     13.00      69.7230
     134     1 N    7    3.211837    7.435697   13.017747      5.00      14.0067
     135     2 Ga  31    3.211868    5.614737   13.827739     13.00      69.7230
     136     1 N    7    3.210090    5.614202   16.020952      5.00      14.0067
     137     2 Ga  31    3.211847    7.655607   16.437417     13.00      69.7230
     138     2 Ga  31    3.226950    9.366365    1.430989     13.00      69.7230
     139     1 N    7    1.701233   10.192565    2.483522      5.00      14.0067
     140     2 Ga  31    1.575467    8.379848    3.300795     13.00      69.7230
     141     1 N    7    1.590207    8.395283    5.219195      5.00      14.0067
     142     2 Ga  31    1.577318   10.277587    5.770916     13.00      69.7230
     143     1 N    7    1.592463   10.262531    7.754738      5.00      14.0067
     144     2 Ga  31    1.613256    8.407928    8.407804     13.00      69.7230
     145     1 N    7    1.612196    8.408102   10.391247      5.00      14.0067
     146     2 Ga  31    1.587841   10.267538   11.029997     13.00      69.7230
     147     1 N    7    1.571803   10.276435   13.018253      5.00      14.0067
     148     2 Ga  31    1.614601    8.406925   13.577278     13.00      69.7230
     149     1 N    7    1.589561    8.392290   15.536993      5.00      14.0067
     150     2 Ga  31    1.762982   10.165313   16.437331     13.00      69.7230
     151     1 N    7    3.206254    9.325846   17.579864      5.00      14.0067
     152     1 N    7    9.661222    1.910277    2.568030      5.00      14.0067
     153     2 Ga  31    9.653090    0.173214    3.249600     13.00      69.7230
     154     1 N    7    9.640998    0.043740    5.207169      5.00      14.0067
     155     2 Ga  31    9.655869    1.906814    5.832873     13.00      69.7230
     156     1 N    7    9.645696    1.901471    7.802765      5.00      14.0067
     157     2 Ga  31    9.645974    0.034942    8.396066     13.00      69.7230
     158     1 N    7    9.643613    0.031235   10.383611      5.00      14.0067
     159     2 Ga  31    9.644460    1.902352   10.979375     13.00      69.7230
     160     1 N    7    9.643506    1.901353   12.947427      5.00      14.0067
     161     2 Ga  31    9.644955    0.032752   13.576510     13.00      69.7230
     162     1 N    7    9.644711    0.061513   15.535451      5.00      14.0067
     163     2 Ga  31    9.642569    1.900818   15.815401     13.00      69.7230
     164     1 N    7    7.933080    4.623388    2.488916      5.00      14.0067
     165     2 Ga  31    8.154527    2.768917    3.260995     13.00      69.7230
     166     1 N    7    8.038932    2.826838    5.214493      5.00      14.0067
     167     2 Ga  31    8.062942    4.700766    5.755701     13.00      69.7230
     168     1 N    7    8.046654    4.693634    7.746890      5.00      14.0067
     169     2 Ga  31    8.027051    2.835300    8.392687     13.00      69.7230
     170     1 N    7    8.024258    2.836651   10.381744      5.00      14.0067
     171     2 Ga  31    8.052299    4.695376   11.027228     13.00      69.7230
     172     1 N    7    8.069097    4.705272   13.016178      5.00      14.0067
     173     2 Ga  31    8.025533    2.836591   13.575932     13.00      69.7230
     174     1 N    7    8.050571    2.822101   15.535100      5.00      14.0067
     175     2 Ga  31    7.873124    4.592596   16.436610     13.00      69.7230
     176     1 N    7    6.351008    7.430666    2.450925      5.00      14.0067
     177     2 Ga  31    6.412502    5.704958    3.260143     13.00      69.7230
     178     1 N    7    6.427421    5.618626    5.202748      5.00      14.0067
     179     2 Ga  31    6.424119    7.469771    5.840566     13.00      69.7230
     180     1 N    7    6.426266    7.471158    7.803921      5.00      14.0067
     181     2 Ga  31    6.429006    5.600761    8.401355     13.00      69.7230
     182     1 N    7    6.429850    5.603138   10.388043      5.00      14.0067
     183     2 Ga  31    6.428158    7.472182   10.984753     13.00      69.7230
     184     1 N    7    6.427718    7.471931   12.951270      5.00      14.0067
     185     2 Ga  31    6.428530    5.601535   13.576026     13.00      69.7230
     186     1 N    7    6.428561    5.631393   15.535309      5.00      14.0067
     187     2 Ga  31    6.426416    7.470999   15.814211     13.00      69.7230
     188     1 N    7    4.718221   10.198482    2.482200      5.00      14.0067
     189     2 Ga  31    4.895119    8.347196    3.265156     13.00      69.7230
     190     1 N    7    4.818989    8.400473    5.206843      5.00      14.0067
     191     2 Ga  31    4.848803   10.277104    5.757369     13.00      69.7230
     192     1 N    7    4.829977   10.263566    7.747770      5.00      14.0067
     193     2 Ga  31    4.809643    8.410160    8.402526     13.00      69.7230
     194     1 N    7    4.810091    8.408473   10.388655      5.00      14.0067
     195     2 Ga  31    4.836602   10.268036   11.027362     13.00      69.7230
     196     1 N    7    4.852500   10.276808   13.016271      5.00      14.0067
     197     2 Ga  31    4.808844    8.408054   13.576604     13.00      69.7230
     198     1 N    7    4.834510    8.392816   15.535618      5.00      14.0067
     199     2 Ga  31    4.656938   10.163199   16.436949     13.00      69.7230
     200     3 O    8    0.053458    3.670544   -0.576172      6.00      15.9994
     201     4 H    1   -0.003786    7.479572    1.615385      1.00       1.0079
     202     5 C    6    0.119703    2.369050   -1.178209      4.00      12.0107
     203     4 H    1    0.959204    1.766937   -0.791971      1.00       1.0079
     204     4 H    1   -0.809160    1.794322   -1.030149      1.00       1.0079
     205     4 H    1    0.267475    2.513308   -2.258779      1.00       1.0079
     206     2 Ga  31    3.222505    5.615589    2.335989     13.00      69.7230
     207     3 O    8    3.871032    6.143792    0.215579      6.00      15.9994
     208     4 H    1    3.726045    5.463061   -0.463008      1.00       1.0079
     209     5 C    6    5.253155    6.673918    0.092657      4.00      12.0107
     210     4 H    1    5.235637    7.482315   -0.652330      1.00       1.0079
     211     4 H    1    5.714883    7.055522    1.139453      1.00       1.0079
     212     4 H    1    5.915190    5.876945   -0.287578      1.00       1.0079




 SCF PARAMETERS         Density guess:                                    ATOMIC
                        --------------------------------------------------------
                        max_scf:                                              80
                        max_scf_history:                                       0
                        max_diis:                                              4
                        --------------------------------------------------------
                        eps_scf:                                        5.00E-06
                        eps_scf_history:                                0.00E+00
                        eps_diis:                                       1.00E-01
                        eps_eigval:                                     1.00E-05
                        --------------------------------------------------------
                        level_shift [a.u.]:                                 0.00
                        --------------------------------------------------------
                        Outer loop SCF in use 
                        No variables optimised in outer loop
                        eps_scf                                         5.00E-06
                        max_scf                                                4
                        No outer loop optimization
                        step_size                                       5.00E-01

 PW_GRID| Information for grid number                                          1
 PW_GRID| Grid distributed over                                    80 processors
 PW_GRID| Real space group dimensions                                    80    1
 PW_GRID| the grid is blocked:                                                NO
 PW_GRID| Cutoff [a.u.]                                                    600.0
 PW_GRID| spherical cutoff:                                                   NO
 PW_GRID|   Bounds   1           -144     143                Points:         288
 PW_GRID|   Bounds   2           -144     143                Points:         288
 PW_GRID|   Bounds   3           -337     337                Points:         675
 PW_GRID| Volume element (a.u.^3)  0.5630E-03     Volume (a.u.^3)     31519.8467
 PW_GRID| Grid span                                                    FULLSPACE
 PW_GRID|   Distribution                         Average         Max         Min
 PW_GRID|   G-Vectors                           699840.0      699840      699840
 PW_GRID|   G-Rays                                2430.0        2430        2430
 PW_GRID|   Real Space Points                   699840.0      777600      583200

 PW_GRID| Information for grid number                                          2
 PW_GRID| Grid distributed over                                    80 processors
 PW_GRID| Real space group dimensions                                    80    1
 PW_GRID| the grid is blocked:                                                NO
 PW_GRID| Cutoff [a.u.]                                                    200.0
 PW_GRID| spherical cutoff:                                                   NO
 PW_GRID|   Bounds   1            -80      79                Points:         160
 PW_GRID|   Bounds   2            -80      79                Points:         160
 PW_GRID|   Bounds   3           -200     199                Points:         400
 PW_GRID| Volume element (a.u.^3)  0.3078E-02     Volume (a.u.^3)     31519.8467
 PW_GRID| Grid span                                                    FULLSPACE
 PW_GRID|   Distribution                         Average         Max         Min
 PW_GRID|   G-Vectors                           128000.0      128160      127840
 PW_GRID|   G-Rays                                 800.0         801         799
 PW_GRID|   Real Space Points                   128000.0      128000      128000

 PW_GRID| Information for grid number                                          3
 PW_GRID| Grid distributed over                                    80 processors
 PW_GRID| Real space group dimensions                                    80    1
 PW_GRID| the grid is blocked:                                                NO
 PW_GRID| Cutoff [a.u.]                                                     66.7
 PW_GRID| spherical cutoff:                                                   NO
 PW_GRID|   Bounds   1            -48      47                Points:          96
 PW_GRID|   Bounds   2            -48      47                Points:          96
 PW_GRID|   Bounds   3           -112     112                Points:         225
 PW_GRID| Volume element (a.u.^3)  0.1520E-01     Volume (a.u.^3)     31519.8467
 PW_GRID| Grid span                                                    FULLSPACE
[...]
     37       N      1       5.000    2.135   2.133            0.002      0.733
     38       Ga     2      13.000    6.911   6.915           -0.004     -0.826
     39       Ga     2      13.000    6.891   6.557            0.334     -0.448
     40       N      1       5.000    2.129   2.069            0.060      0.802
     41       Ga     2      13.000    6.957   6.948            0.008     -0.905
     42       N      1       5.000    2.058   2.055            0.003      0.886
     43       Ga     2      13.000    6.944   6.940            0.004     -0.884
     44       N      1       5.000    2.063   2.062            0.002      0.875
     45       Ga     2      13.000    6.940   6.938            0.002     -0.878
     46       N      1       5.000    2.062   2.061            0.001      0.877
     47       Ga     2      13.000    6.940   6.939            0.001     -0.879
     48       N      1       5.000    2.059   2.059            0.000      0.882
     49       Ga     2      13.000    6.950   6.951           -0.000     -0.901
     50       N      1       5.000    2.045   2.054           -0.009      0.901
     51       Ga     2      13.000    6.913   6.918           -0.004     -0.831
     52       N      1       5.000    2.179   2.292           -0.114      0.529
     53       N      1       5.000    2.124   2.124           -0.000      0.752
     54       Ga     2      13.000    6.965   6.957            0.008     -0.921
     55       N      1       5.000    2.056   2.052            0.005      0.892
     56       Ga     2      13.000    6.932   6.930            0.002     -0.862
     57       N      1       5.000    2.058   2.057            0.001      0.885
     58       Ga     2      13.000    6.938   6.937            0.002     -0.875
     59       N      1       5.000    2.063   2.062            0.001      0.876
     60       Ga     2      13.000    6.947   6.946            0.001     -0.893
     61       N      1       5.000    2.061   2.063           -0.002      0.876
     62       Ga     2      13.000    6.951   6.951            0.000     -0.901
     63       N      1       5.000    2.049   2.052           -0.003      0.899
     64       Ga     2      13.000    6.857   6.859           -0.001     -0.716
     65       N      1       5.000    2.101   2.100            0.001      0.799
     66       Ga     2      13.000    6.959   6.959            0.000     -0.917
     67       N      1       5.000    2.055   2.055            0.000      0.890
     68       Ga     2      13.000    6.957   6.956            0.002     -0.913
     69       N      1       5.000    2.060   2.059            0.001      0.881
     70       Ga     2      13.000    6.940   6.939            0.001     -0.879
     71       N      1       5.000    2.062   2.061            0.001      0.877
     72       Ga     2      13.000    6.939   6.938            0.001     -0.876
     73       N      1       5.000    2.060   2.060            0.000      0.881
     74       Ga     2      13.000    6.949   6.950           -0.000     -0.899
     75       N      1       5.000    2.045   2.055           -0.010      0.900
     76       Ga     2      13.000    6.911   6.924           -0.013     -0.836
     77       N      1       5.000    2.237   2.237           -0.000      0.527
     78       Ga     2      13.000    6.987   6.986            0.001     -0.973
     79       N      1       5.000    2.053   2.052            0.000      0.895
     80       Ga     2      13.000    6.944   6.942            0.002     -0.886
     81       N      1       5.000    2.056   2.055            0.001      0.889
     82       Ga     2      13.000    6.941   6.940            0.001     -0.881
     83       N      1       5.000    2.061   2.060            0.001      0.879
     84       Ga     2      13.000    6.947   6.946            0.001     -0.892
     85       N      1       5.000    2.061   2.063           -0.002      0.876
     86       Ga     2      13.000    6.949   6.950           -0.001     -0.898
     87       N      1       5.000    2.044   2.057           -0.012      0.899
     88       Ga     2      13.000    6.857   6.858           -0.001     -0.715
     89       N      1       5.000    2.129   2.077            0.053      0.794
     90       Ga     2      13.000    6.993   6.984            0.009     -0.977
     91       N      1       5.000    2.054   2.049            0.005      0.897
     92       Ga     2      13.000    6.943   6.938            0.004     -0.881
     93       N      1       5.000    2.062   2.059            0.003      0.879
     94       Ga     2      13.000    6.939   6.937            0.002     -0.876
     95       N      1       5.000    2.062   2.061            0.001      0.877
     96       Ga     2      13.000    6.940   6.939            0.001     -0.878
     97       N      1       5.000    2.060   2.060            0.000      0.880
     98       Ga     2      13.000    6.951   6.951            0.000     -0.902
     99       N      1       5.000    2.049   2.052           -0.004      0.899
    100       Ga     2      13.000    6.911   6.915           -0.004     -0.826
    101       N      1       5.000    2.096   2.091            0.005      0.813
    102       Ga     2      13.000    6.912   6.899            0.013     -0.810
    103       N      1       5.000    2.104   2.088            0.016      0.808
    104       Ga     2      13.000    6.947   6.943            0.004     -0.890
    105       N      1       5.000    2.061   2.059            0.002      0.880
    106       Ga     2      13.000    6.951   6.950            0.001     -0.901
    107       N      1       5.000    2.052   2.052            0.001      0.896
    108       Ga     2      13.000    6.940   6.939            0.001     -0.879
    109       N      1       5.000    2.059   2.059            0.001      0.882
    110       Ga     2      13.000    6.875   6.873            0.002     -0.747
    111       N      1       5.000    2.135   2.133            0.002      0.733
    112       Ga     2      13.000    6.910   6.914           -0.004     -0.825
    113       Ga     2      13.000    6.834   6.793            0.041     -0.627
    114       N      1       5.000    2.089   2.084            0.005      0.827
    115       Ga     2      13.000    6.962   6.960            0.001     -0.922
    116       N      1       5.000    2.051   2.050            0.001      0.899
    117       Ga     2      13.000    6.958   6.957            0.002     -0.915
    118       N      1       5.000    2.060   2.059            0.001      0.881
    119       Ga     2      13.000    6.940   6.939            0.001     -0.879
    120       N      1       5.000    2.062   2.061            0.001      0.877
    121       Ga     2      13.000    6.939   6.938            0.001     -0.877
    122       N      1       5.000    2.059   2.059            0.001      0.882
    123       Ga     2      13.000    6.950   6.951           -0.000     -0.901
    124       N      1       5.000    2.046   2.054           -0.009      0.900
    125       Ga     2      13.000    6.913   6.917           -0.004     -0.829
    126       N      1       5.000    2.184   2.286           -0.103      0.530
    127       N      1       5.000    2.092   2.081            0.010      0.827
    128       N      1       5.000    2.134   2.130            0.003      0.736
    129       Ga     2      13.000    6.957   6.955            0.002     -0.912
    130       N      1       5.000    2.059   2.058            0.001      0.883
    131       Ga     2      13.000    6.944   6.943            0.001     -0.888
    132       N      1       5.000    2.052   2.052            0.000      0.896
    133       Ga     2      13.000    6.939   6.938            0.001     -0.876
    134       N      1       5.000    2.059   2.059            0.000      0.881
    135       Ga     2      13.000    6.874   6.872            0.002     -0.746
    136       N      1       5.000    2.133   2.131            0.002      0.735
    137       Ga     2      13.000    6.912   6.923           -0.012     -0.835
    138       Ga     2      13.000    6.807   6.716            0.091     -0.523
    139       N      1       5.000    2.106   2.095            0.011      0.799
    140       Ga     2      13.000    6.987   6.984            0.003     -0.972
    141       N      1       5.000    2.050   2.049            0.001      0.901
    142       Ga     2      13.000    6.946   6.942            0.004     -0.887
    143       N      1       5.000    2.061   2.058            0.002      0.881
    144       Ga     2      13.000    6.941   6.939            0.001     -0.880
    145       N      1       5.000    2.061   2.061            0.001      0.878
    146       Ga     2      13.000    6.939   6.938            0.001     -0.878
    147       N      1       5.000    2.060   2.060            0.000      0.880
    148       Ga     2      13.000    6.949   6.950           -0.001     -0.899
    149       N      1       5.000    2.041   2.059           -0.018      0.900
    150       Ga     2      13.000    6.910   6.922           -0.012     -0.832
    151       N      1       5.000    2.102   2.353           -0.250      0.545
    152       N      1       5.000    2.124   2.124            0.000      0.753
    153       Ga     2      13.000    6.959   6.956            0.003     -0.915
    154       N      1       5.000    2.052   2.051            0.001      0.897
    155       Ga     2      13.000    6.935   6.934            0.001     -0.869
    156       N      1       5.000    2.056   2.056            0.001      0.888
    157       Ga     2      13.000    6.938   6.937            0.001     -0.875
    158       N      1       5.000    2.062   2.061            0.001      0.877
    159       Ga     2      13.000    6.946   6.945            0.001     -0.891
    160       N      1       5.000    2.061   2.063           -0.001      0.876
    161       Ga     2      13.000    6.949   6.950           -0.001     -0.899
    162       N      1       5.000    2.044   2.056           -0.012      0.899
    163       Ga     2      13.000    6.857   6.858           -0.001     -0.715
    164       N      1       5.000    2.100   2.095            0.005      0.805
    165       Ga     2      13.000    6.960   6.958            0.002     -0.917
    166       N      1       5.000    2.050   2.050            0.000      0.900
    167       Ga     2      13.000    6.944   6.941            0.003     -0.885
    168       N      1       5.000    2.061   2.060            0.001      0.879
    169       Ga     2      13.000    6.938   6.937            0.001     -0.875
    170       N      1       5.000    2.062   2.062            0.001      0.876
    171       Ga     2      13.000    6.940   6.939            0.001     -0.879
    172       N      1       5.000    2.060   2.059            0.000      0.881
    173       Ga     2      13.000    6.951   6.951            0.000     -0.902
    174       N      1       5.000    2.049   2.052           -0.003      0.899
    175       Ga     2      13.000    6.911   6.915           -0.004     -0.827
    176       N      1       5.000    2.212   2.208            0.005      0.580
    177       Ga     2      13.000    6.983   6.981            0.002     -0.963
    178       N      1       5.000    2.050   2.050           -0.000      0.900
    179       Ga     2      13.000    6.937   6.935            0.002     -0.873
    180       N      1       5.000    2.057   2.055            0.002      0.888
    181       Ga     2      13.000    6.941   6.940            0.001     -0.881
    182       N      1       5.000    2.061   2.060            0.001      0.878
    183       Ga     2      13.000    6.947   6.946            0.001     -0.893
    184       N      1       5.000    2.061   2.062           -0.001      0.877
    185       Ga     2      13.000    6.951   6.950            0.000     -0.901
    186       N      1       5.000    2.049   2.052           -0.003      0.899
    187       Ga     2      13.000    6.858   6.859           -0.001     -0.717
    188       N      1       5.000    2.102   2.090            0.012      0.808
    189       Ga     2      13.000    6.982   6.979            0.003     -0.961
    190       N      1       5.000    2.050   2.050            0.000      0.900
    191       Ga     2      13.000    6.946   6.943            0.003     -0.888
    192       N      1       5.000    2.061   2.059            0.001      0.880
    193       Ga     2      13.000    6.941   6.939            0.001     -0.880
    194       N      1       5.000    2.061   2.060            0.001      0.878
    195       Ga     2      13.000    6.939   6.938            0.001     -0.878
    196       N      1       5.000    2.060   2.059            0.000      0.881
    197       Ga     2      13.000    6.949   6.950           -0.000     -0.899
    198       N      1       5.000    2.045   2.055           -0.010      0.900
    199       Ga     2      13.000    6.913   6.925           -0.012     -0.837
    200       O      3       6.000    3.019   3.018            0.001     -0.036
    201       H      4       1.000    0.234   0.234            0.000      0.533
    202       C      5       4.000    2.439   2.439            0.000     -0.878
    203       H      4       1.000    0.280   0.280            0.000      0.439
    204       H      4       1.000    0.281   0.281            0.000      0.437
    205       H      4       1.000    0.281   0.281            0.000      0.438
    206       Ga     2      13.000    6.946   6.942            0.004     -0.888
    207       O      3       6.000    3.211   3.210            0.001     -0.421
    208       H      4       1.000    0.217   0.217           -0.000      0.566
    209       C      5       4.000    2.367   2.363            0.004     -0.730
    210       H      4       1.000    0.281   0.281            0.000      0.438
    211       H      4       1.000    0.229   0.229            0.000      0.542
    212       H      4       1.000    0.275   0.275            0.000      0.451

  Total Charge                                                            0.003
 !-----------------------------------------------------------------------------!

 ENERGY| Total FORCE_EVAL ( QS ) energy (a.u.):            -8504.689195614007986


 --------  Informations at step =    30 ------------
  Optimization Method        =                 BFGS
  Total Energy               =     -8504.6891956140
  Real energy change         =        -0.0001687277
  Predicted change in energy =        -0.0001723263
  Scaling factor             =         0.8203901419
  Step size                  =         0.0444394959
  Trust radius               =         0.4724315332
  Decrease in energy         =                  YES
  Used time                  =              279.624

  Convergence check :
  Max. step size             =         0.0444394959
  Conv. limit for step size  =         0.0030000000
  Convergence in step size   =                   NO
  RMS step size              =         0.0038420179
  Conv. limit for RMS step   =         0.0015000000
  Convergence in RMS step    =                   NO
  Max. gradient              =         0.0024566908
  Conv. limit for gradients  =         0.0004500000
  Conv. for gradients        =                   NO
  RMS gradient               =         0.0003818924
  Conv. limit for RMS grad.  =         0.0003000000
  Conv. for gradients        =                   NO
 ---------------------------------------------------

 --------------------------
 OPTIMIZATION STEP:     31
 --------------------------

 Spin 1

 Number of electrons:                                                        914
 Number of occupied orbitals:                                                914
 Number of molecular orbitals:                                               914

 Spin 2

 Number of electrons:                                                        914
 Number of occupied orbitals:                                                914
 Number of molecular orbitals:                                               914

 Number of orbital functions:                                               3892
 Number of independent orbital functions:                                   3892

 Parameters for the always stable predictor-corrector (ASPC) method:

  ASPC order: 3

  B(1) =   3.000000
  B(2) =  -3.428571
  B(3) =   1.928571
  B(4) =  -0.571429
  B(5) =   0.071429

 Parameters for the always stable predictor-corrector (ASPC) method:

  ASPC order: 3

  B(1) =   3.000000
  B(2) =  -3.428571
  B(3) =   1.928571
  B(4) =  -0.571429
  B(5) =   0.071429

 Extrapolation method: ASPC


 SCF WAVEFUNCTION OPTIMIZATION

  ----------------------------------- OT ---------------------------------------
  Minimizer      : CG                  : conjugate gradient
  Preconditioner : FULL_ALL            : diagonalization, state selective
  Precond_solver : DEFAULT
  Line search    : 2PNT                : 2 energies, one gradient
  stepsize       :    0.15000000                  energy_gap     :    0.08000000
  eps_taylor     :   0.10000E-15                  max_taylor     :             4
  ----------------------------------- OT ---------------------------------------

  Step     Update method      Time    Convergence         Total energy    Change
  ------------------------------------------------------------------------------
     1 OT CG       0.15E+00   28.8     0.00038135     -8504.6319562945 -8.50E+03
     2 OT LS       0.89E-01    8.3                    -8504.6561213381
     3 OT CG       0.89E-01   17.8     0.00006017     -8504.6789468216 -4.70E-02
     4 OT LS       0.15E+00    7.9                    -8504.6805413017
     5 OT CG       0.15E+00   17.8     0.00005352     -8504.6808184962 -1.87E-03
     6 OT LS       0.18E+00    8.2                    -8504.6825931204
     7 OT CG       0.18E+00   18.0     0.00004395     -8504.6826710104 -1.85E-03
     8 OT LS       0.18E+00    8.0                    -8504.6838945841
     9 OT CG       0.18E+00   17.8     0.00003665     -8504.6838957935 -1.22E-03
    10 OT LS       0.29E+00    8.0                    -8504.6850741524
    11 OT CG       0.29E+00   17.6     0.00003817     -8504.6852828573 -1.39E-03
    12 OT LS       0.24E+00    8.2                    -8504.6864443806
    13 OT CG       0.24E+00   17.6     0.00003733     -8504.6865238864 -1.24E-03
    14 OT LS       0.25E+00    6.7                    -8504.6877462713
    15 OT CG       0.25E+00   16.7     0.00003026     -8504.6877502774 -1.23E-03
    16 OT LS       0.17E+00    7.7                    -8504.6881748167
    17 OT CG       0.17E+00   16.6     0.00002560     -8504.6883029685 -5.53E-04
    18 OT LS       0.15E+00    7.5                    -8504.6886453975
    19 OT CG       0.15E+00   16.7     0.00001897     -8504.6886508471 -3.48E-04
    20 OT LS       0.20E+00    8.2                    -8504.6888924257
    21 OT CG       0.20E+00   17.8     0.00001344     -8504.6889095002 -2.59E-04
    22 OT LS       0.23E+00    8.1                    -8504.6890527967
    23 OT CG       0.23E+00   18.1     0.00001138     -8504.6890545206 -1.45E-04
    24 OT LS       0.25E+00    7.2                    -8504.6891668877
    25 OT CG       0.25E+00   16.8     0.00001064     -8504.6891676051 -1.13E-04
    26 OT LS       0.20E+00    8.2                    -8504.6892468463
    27 OT CG       0.20E+00   18.0     0.00000818     -8504.6892501565 -8.26E-05
    28 OT LS       0.26E+00    8.2                    -8504.6893095094
    29 OT CG       0.26E+00   18.0     0.00000818     -8504.6893124456 -6.23E-05
    30 OT LS       0.26E+00    8.0                    -8504.6893742214
    31 OT CG       0.26E+00   17.0     0.00000753     -8504.6893742181 -6.18E-05
    32 OT LS       0.19E+00    8.0                    -8504.6894065451
    33 OT CG       0.19E+00   17.6     0.00000697     -8504.6894124235 -3.82E-05
