 DBCSR| Multiplication driver                                               BLAS
 DBCSR| Multrec recursion limit                                              512
 DBCSR| Multiplication stack size                                           1000
 DBCSR| Maximum elements for images                                    UNLIMITED
 DBCSR| Multiplicative factor virtual images                                   1
 DBCSR| Multiplication size stacks                                             3
 DBCSR| Number of 3D layers                                               SINGLE
 DBCSR| Use MPI memory allocation                                              T
 DBCSR| Use RMA algorithm                                                      F
 DBCSR| Use Communication thread                                               T
 DBCSR| Communication thread load                                             87


  **** **** ******  **  PROGRAM STARTED AT               2019-07-15 08:21:43.624
 ***** ** ***  *** **   PROGRAM STARTED ON        blg8426.int.ets1.calculquebec.
 **    ****   ******    PROGRAM STARTED BY                                   rzk
 ***** **    ** ** **   PROGRAM PROCESS ID                                 72633
  **** **  *******  **  PROGRAM STARTED IN /lustre04/scratch/rzk/rzk/GaN-carbene
                                           /443-adatoms-both-2x2/09-BondBreaking
                                           -CH/03-0501-CH-to-Nsur-PES/Phase02

 CP2K| version string:                    CP2K version 7.0 (Development Version)
 CP2K| source code revision number:                                    svn:18619
 CP2K| cp2kflags: libint fftw3 libxc parallel mpi3 scalapack mkl                
 CP2K| is freely available from                            https://www.cp2k.org/
 CP2K| Program compiled at                          Sun Apr  7 00:48:11 EDT 2019
 CP2K| Program compiled on                      beluga2.int.ets1.calculquebec.ca
 CP2K| Program compiled for                    Beluga-Linux-x86-64-intel-openmpi
 CP2K| Data directory path    /home/rzk/projects/def-rzk/group/cp2k/cp2k-mcgill/
 CP2K| Input file name                                            TEST-1.restart
 
 GLOBAL| Force Environment number                                              1
 GLOBAL| Basis set file name                                        BASIS_MOLOPT
 GLOBAL| Potential file name                                      GTH_POTENTIALS
 GLOBAL| MM Potential file name                                     MM_POTENTIAL
 GLOBAL| Coordinate file name                                      __STD_INPUT__
 GLOBAL| Method name                                                        CP2K
 GLOBAL| Project name                                                       TEST
 GLOBAL| Preferred FFT library                                             FFTW3
 GLOBAL| Preferred diagonalization lib.                                       SL
 GLOBAL| Run type                                                        GEO_OPT
 GLOBAL| All-to-all communication in single precision                          F
 GLOBAL| FFTs using library dependent lengths                                  F
 GLOBAL| Global print level                                               MEDIUM
 GLOBAL| MPI I/O enabled                                                       T
 GLOBAL| Total number of message passing processes                            80
 GLOBAL| Number of threads for this process                                    1
 GLOBAL| This output is from process                                           0
 GLOBAL| CPU model name :  Intel(R) Xeon(R) Gold 6148 CPU @ 2.40GHz

 MEMORY| system memory details [Kb]
 MEMORY|                        rank 0           min           max       average
 MEMORY| MemTotal             97523924      97523924      97523924      97523924
 MEMORY| MemFree              66409700      66408132      82444876      74384052
 MEMORY| Buffers                     0             0             0             0
 MEMORY| Cached                1245932       1245932       1320836       1283338
 MEMORY| Slab                  2567088       1600748       2567088       2083925
 MEMORY| SReclaimable           518136        227600        518136        372868
 MEMORY| MemLikelyFree        68173768      68172200      83993216      76040258


 *** Fundamental physical constants (SI units) ***

 *** Literature: B. J. Mohr and B. N. Taylor,
 ***             CODATA recommended values of the fundamental physical
 ***             constants: 2006, Web Version 5.1
 ***             http://physics.nist.gov/constants

 Speed of light in vacuum [m/s]                             2.99792458000000E+08
 Magnetic constant or permeability of vacuum [N/A**2]       1.25663706143592E-06
 Electric constant or permittivity of vacuum [F/m]          8.85418781762039E-12
 Planck constant (h) [J*s]                                  6.62606896000000E-34
 Planck constant (h-bar) [J*s]                              1.05457162825177E-34
 Elementary charge [C]                                      1.60217648700000E-19
 Electron mass [kg]                                         9.10938215000000E-31
 Electron g factor [ ]                                     -2.00231930436220E+00
 Proton mass [kg]                                           1.67262163700000E-27
 Fine-structure constant                                    7.29735253760000E-03
 Rydberg constant [1/m]                                     1.09737315685270E+07
 Avogadro constant [1/mol]                                  6.02214179000000E+23
 Boltzmann constant [J/K]                                   1.38065040000000E-23
 Atomic mass unit [kg]                                      1.66053878200000E-27
 Bohr radius [m]                                            5.29177208590000E-11

 *** Conversion factors ***

 [u] -> [a.u.]                                              1.82288848426455E+03
 [Angstrom] -> [Bohr] = [a.u.]                              1.88972613288564E+00
 [a.u.] = [Bohr] -> [Angstrom]                              5.29177208590000E-01
 [a.u.] -> [s]                                              2.41888432650478E-17
 [a.u.] -> [fs]                                             2.41888432650478E-02
 [a.u.] -> [J]                                              4.35974393937059E-18
 [a.u.] -> [N]                                              8.23872205491840E-08
 [a.u.] -> [K]                                              3.15774647902944E+05
 [a.u.] -> [kJ/mol]                                         2.62549961709828E+03
 [a.u.] -> [kcal/mol]                                       6.27509468713739E+02
 [a.u.] -> [Pa]                                             2.94210107994716E+13
 [a.u.] -> [bar]                                            2.94210107994716E+08
 [a.u.] -> [atm]                                            2.90362800883016E+08
 [a.u.] -> [eV]                                             2.72113838565563E+01
 [a.u.] -> [Hz]                                             6.57968392072181E+15
 [a.u.] -> [1/cm] (wave numbers)                            2.19474631370540E+05
 [a.u./Bohr**2] -> [1/cm]                                   5.14048714338585E+03
 
          ----------------------------------------------------------------------
 COLVARS| COLVAR INPUT INDEX:        1
 COLVARS| BOND          >>> ATOMS:                                   176     211
          ----------------------------------------------------------------------

 CELL_TOP| Volume [angstrom^3]:                                         4586.323
 CELL_TOP| Vector a [angstrom    12.864     0.000     0.000    |a| =      12.864
 CELL_TOP| Vector b [angstrom    -6.432    11.141     0.000    |b| =      12.864
 CELL_TOP| Vector c [angstrom     0.000     0.000    32.000    |c| =      32.000
 CELL_TOP| Angle (b,c), alpha [degree]:                                   90.000
 CELL_TOP| Angle (a,c), beta  [degree]:                                   90.000
 CELL_TOP| Angle (a,b), gamma [degree]:                                  120.000
 CELL_TOP| Numerically orthorhombic:                                          NO
 RESTRAINT| Active restraint on COLLECTIVE section Nr.     1. K [a.u.]= 2.000000
 
 GENERATE|  Preliminary Number of Bonds generated:                             0
 GENERATE|  Achieved consistency in connectivity generation.

 CELL| Volume [angstrom^3]:                                             4586.323
 CELL| Vector a [angstrom]:      12.864     0.000     0.000    |a| =      12.864
 CELL| Vector b [angstrom]:      -6.432    11.141     0.000    |b| =      12.864
 CELL| Vector c [angstrom]:       0.000     0.000    32.000    |c| =      32.000
 CELL| Angle (b,c), alpha [degree]:                                       90.000
 CELL| Angle (a,c), beta  [degree]:                                       90.000
 CELL| Angle (a,b), gamma [degree]:                                      120.000
 CELL| Numerically orthorhombic:                                              NO

 CELL_REF| Volume [angstrom^3]:                                         4670.759
 CELL_REF| Vector a [angstrom    12.982     0.000     0.000    |a| =      12.982
 CELL_REF| Vector b [angstrom    -6.491    11.243     0.000    |b| =      12.982
 CELL_REF| Vector c [angstrom     0.000     0.000    32.000    |c| =      32.000
 CELL_REF| Angle (b,c), alpha [degree]:                                   90.000
 CELL_REF| Angle (a,c), beta  [degree]:                                   90.000
 CELL_REF| Angle (a,b), gamma [degree]:                                  120.000
 CELL_REF| Numerically orthorhombic:                                          NO

 *******************************************************************************
 *******************************************************************************
 **                                                                           **
 **     #####                         ##              ##                      **
 **    ##   ##            ##          ##              ##                      **
 **   ##     ##                       ##            ######                    **
 **   ##     ##  ##   ##  ##   #####  ##  ##   ####   ##    #####    #####    **
 **   ##     ##  ##   ##  ##  ##      ## ##   ##      ##   ##   ##  ##   ##   **
 **   ##  ## ##  ##   ##  ##  ##      ####     ###    ##   ######   ######    **
 **    ##  ###   ##   ##  ##  ##      ## ##      ##   ##   ##       ##        **
 **     #######   #####   ##   #####  ##  ##  ####    ##    #####   ##        **
 **           ##                                                    ##        **
 **                                                                           **
 **                                                ... make the atoms dance   **
 **                                                                           **
 **            Copyright (C) by CP2K developers group (2000 - 2018)           **
 **                                                                           **
 *******************************************************************************

 DFT| Spin unrestricted (spin-polarized) Kohn-Sham calculation               UKS
 DFT| Multiplicity                                                             1
 DFT| Number of spin states                                                    2
 DFT| Charge                                                                   0
 DFT| Self-interaction correction (SIC)                                       NO
 DFT| Cutoffs: density                                              1.000000E-10
 DFT|          gradient                                             1.000000E-10
 DFT|          tau                                                  1.000000E-10
 DFT|          cutoff_smoothing_range                               0.000000E+00
 DFT| XC density smoothing                                                  NONE
 DFT| XC derivatives                                                          PW
 FUNCTIONAL| ROUTINE=NEW
 FUNCTIONAL| PBE:
 FUNCTIONAL| J.P.Perdew, K.Burke, M.Ernzerhof, Phys. Rev. Letter, vol. 77, n 18,
 FUNCTIONAL|  pp. 3865-3868, (1996){spin polarized}                             
 vdW POTENTIAL|                                                   Pair Potential
 vdW POTENTIAL|          DFT-D3 (Version 3.1)
 vdW POTENTIAL|          Potential Form: S. Grimme et al, JCP 132: 154104 (2010)
 vdW POTENTIAL|          Zero Damping
 vdW POTENTIAL|          Cutoff Radius [Bohr]:                             18.90
 vdW POTENTIAL|          s6 Scaling Factor:                               1.0000
 vdW POTENTIAL|          sr6 Scaling Factor:                              1.2170
 vdW POTENTIAL|          s8 Scaling Factor:                               0.7220
 vdW POTENTIAL|          Cutoff for CN calculation:                   0.1000E-05

 QS| Method:                                                                 GPW
 QS| Density plane wave grid type                        NON-SPHERICAL FULLSPACE
 QS| Number of grid levels:                                                    5
 QS| Density cutoff [a.u.]:                                                600.0
 QS| Multi grid cutoff [a.u.]: 1) grid level                               600.0
 QS|                           2) grid level                               200.0
 QS|                           3) grid level                                66.7
 QS|                           4) grid level                                22.2
 QS|                           5) grid level                                 7.4
 QS| Grid level progression factor:                                          3.0
 QS| Relative density cutoff [a.u.]:                                        20.0
 QS| Consistent realspace mapping and integration 
 QS| Interaction thresholds: eps_pgf_orb:                                1.0E-07
 QS|                         eps_filter_matrix:                          0.0E+00
 QS|                         eps_core_charge:                            1.0E-16
 QS|                         eps_rho_gspace:                             1.0E-14
 QS|                         eps_rho_rspace:                             1.0E-14
 QS|                         eps_gvg_rspace:                             1.0E-07
 QS|                         eps_ppl:                                    1.0E-02
 QS|                         eps_ppnl:                                   1.0E-09


 ATOMIC KIND INFORMATION

  1. Atomic kind: N                                     Number of atoms:     100

     Orbital Basis Set                                        DZVP-MOLOPT-SR-GTH

       Number of orbital shell sets:                                           1
       Number of orbital shells:                                               5
       Number of primitive Cartesian functions:                                5
       Number of Cartesian basis functions:                                   14
       Number of spherical basis functions:                                   13
       Norm type:                                                              2

       Normalised Cartesian orbitals:

                        Set   Shell   Orbital            Exponent    Coefficient

                          1       1    2s                7.341988       0.360561
                                                         2.542637       0.139177
                                                         0.888575      -0.289383
                                                         0.333802      -0.182244
                                                         0.112012      -0.019197

                          1       2    3s                7.341988       0.282000
                                                         2.542637       0.177875
                                                         0.888575      -0.278381
                                                         0.333802       0.008577
                                                         0.112012       0.154176

                          1       3    3px               7.341988      -1.188719
                                                         2.542637      -0.973969
                                                         0.888575      -0.501079
                                                         0.333802      -0.144894
                                                         0.112012      -0.013986
                          1       3    3py               7.341988      -1.188719
                                                         2.542637      -0.973969
                                                         0.888575      -0.501079
                                                         0.333802      -0.144894
                                                         0.112012      -0.013986
                          1       3    3pz               7.341988      -1.188719
                                                         2.542637      -0.973969
                                                         0.888575      -0.501079
                                                         0.333802      -0.144894
                                                         0.112012      -0.013986

                          1       4    4px               7.341988      -0.094798
                                                         2.542637       0.050069
                                                         0.888575      -0.114797
                                                         0.333802       0.144793
                                                         0.112012       0.066710
                          1       4    4py               7.341988      -0.094798
                                                         2.542637       0.050069
                                                         0.888575      -0.114797
                                                         0.333802       0.144793
                                                         0.112012       0.066710
                          1       4    4pz               7.341988      -0.094798
                                                         2.542637       0.050069
                                                         0.888575      -0.114797
                                                         0.333802       0.144793
                                                         0.112012       0.066710

                          1       5    4dx2              7.341988       1.354688
                                                         2.542637       0.690378
                                                         0.888575       0.855359
                                                         0.333802       0.091746
                                                         0.112012       0.001253
                          1       5    4dxy              7.341988       2.346389
                                                         2.542637       1.195770
                                                         0.888575       1.481524
                                                         0.333802       0.158910
                                                         0.112012       0.002169
                          1       5    4dxz              7.341988       2.346389
                                                         2.542637       1.195770
                                                         0.888575       1.481524
                                                         0.333802       0.158910
                                                         0.112012       0.002169
                          1       5    4dy2              7.341988       1.354688
                                                         2.542637       0.690378
                                                         0.888575       0.855359
                                                         0.333802       0.091746
                                                         0.112012       0.001253
                          1       5    4dyz              7.341988       2.346389
                                                         2.542637       1.195770
                                                         0.888575       1.481524
                                                         0.333802       0.158910
                                                         0.112012       0.002169
                          1       5    4dz2              7.341988       1.354688
                                                         2.542637       0.690378
                                                         0.888575       0.855359
                                                         0.333802       0.091746
                                                         0.112012       0.001253

     GTH Potential information for                                    GTH-PBE-q5

       Description:                       Goedecker-Teter-Hutter pseudopotential
                                           Goedecker et al., PRB 54, 1703 (1996)
                                          Hartwigsen et al., PRB 58, 3641 (1998)
                                                      Krack, TCA 114, 145 (2005)

       Gaussian exponent of the core charge distribution:               6.208322
       Electronic configuration (s p d ...):                               2   3

       Parameters of the local part of the GTH pseudopotential:

                          rloc        C1          C2          C3          C4
                        0.283791  -12.415226    1.868096

       Parameters of the non-local part of the GTH pseudopotential:

                   l      r(l)      h(i,j,l)

                   0    0.255405   13.630263
                   1    0.245495

  2. Atomic kind: Ga                                    Number of atoms:     100

     Orbital Basis Set                                        DZVP-MOLOPT-SR-GTH

       Number of orbital shell sets:                                           1
       Number of orbital shells:                                               7
       Number of primitive Cartesian functions:                                6
       Number of Cartesian basis functions:                                   30
       Number of spherical basis functions:                                   25
       Norm type:                                                              2

       Normalised Cartesian orbitals:

                        Set   Shell   Orbital            Exponent    Coefficient

                          1       1    2s                7.066654       0.013136
                                                         3.428369      -0.094392
                                                         1.430064       0.265435
                                                         0.571611       0.056465
                                                         0.232197      -0.192187
                                                         0.076562      -0.044987

                          1       2    3s                7.066654      -0.098564
                                                         3.428369       0.010390
                                                         1.430064       0.351249
                                                         0.571611       0.182615
                                                         0.232197      -0.425358
                                                         0.076562       0.190349

                          1       3    3px               7.066654       0.002364
                                                         3.428369       0.019222
                                                         1.430064       0.250132
                                                         0.571611      -0.058486
                                                         0.232197      -0.159451
                                                         0.076562      -0.020696
                          1       3    3py               7.066654       0.002364
                                                         3.428369       0.019222
                                                         1.430064       0.250132
                                                         0.571611      -0.058486
                                                         0.232197      -0.159451
                                                         0.076562      -0.020696
                          1       3    3pz               7.066654       0.002364
                                                         3.428369       0.019222
                                                         1.430064       0.250132
                                                         0.571611      -0.058486
                                                         0.232197      -0.159451
                                                         0.076562      -0.020696

                          1       4    4px               7.066654       0.492448
                                                         3.428369      -0.614736
                                                         1.430064      -0.191654
                                                         0.571611       0.037801
                                                         0.232197       0.302315
                                                         0.076562      -0.071336
                          1       4    4py               7.066654       0.492448
                                                         3.428369      -0.614736
                                                         1.430064      -0.191654
                                                         0.571611       0.037801
                                                         0.232197       0.302315
                                                         0.076562      -0.071336
                          1       4    4pz               7.066654       0.492448
                                                         3.428369      -0.614736
                                                         1.430064      -0.191654
                                                         0.571611       0.037801
                                                         0.232197       0.302315
                                                         0.076562      -0.071336

                          1       5    4dx2              7.066654     -15.264855
                                                         3.428369      -5.345726
                                                         1.430064      -1.022732
                                                         0.571611      -0.123148
                                                         0.232197      -0.006983
                                                         0.076562      -0.000022
                          1       5    4dxy              7.066654     -26.439504
                                                         3.428369      -9.259069
                                                         1.430064      -1.771423
                                                         0.571611      -0.213299
                                                         0.232197      -0.012094
                                                         0.076562      -0.000037
                          1       5    4dxz              7.066654     -26.439504
                                                         3.428369      -9.259069
                                                         1.430064      -1.771423
                                                         0.571611      -0.213299
                                                         0.232197      -0.012094
                                                         0.076562      -0.000037
                          1       5    4dy2              7.066654     -15.264855
                                                         3.428369      -5.345726
                                                         1.430064      -1.022732
                                                         0.571611      -0.123148
                                                         0.232197      -0.006983
                                                         0.076562      -0.000022
                          1       5    4dyz              7.066654     -26.439504
                                                         3.428369      -9.259069
                                                         1.430064      -1.771423
                                                         0.571611      -0.213299
                                                         0.232197      -0.012094
                                                         0.076562      -0.000037
                          1       5    4dz2              7.066654     -15.264855
                                                         3.428369      -5.345726
                                                         1.430064      -1.022732
                                                         0.571611      -0.123148
                                                         0.232197      -0.006983
                                                         0.076562      -0.000022

                          1       6    5dx2              7.066654      -5.739265
                                                         3.428369      -2.129289
                                                         1.430064      -0.700423
                                                         0.571611       0.161606
                                                         0.232197       0.043513
                                                         0.076562       0.011205
                          1       6    5dxy              7.066654      -9.940698
                                                         3.428369      -3.688037
                                                         1.430064      -1.213168
                                                         0.571611       0.279909
                                                         0.232197       0.075368
                                                         0.076562       0.019407
                          1       6    5dxz              7.066654      -9.940698
                                                         3.428369      -3.688037
                                                         1.430064      -1.213168
                                                         0.571611       0.279909
                                                         0.232197       0.075368
                                                         0.076562       0.019407
                          1       6    5dy2              7.066654      -5.739265
                                                         3.428369      -2.129289
                                                         1.430064      -0.700423
                                                         0.571611       0.161606
                                                         0.232197       0.043513
                                                         0.076562       0.011205
                          1       6    5dyz              7.066654      -9.940698
                                                         3.428369      -3.688037
                                                         1.430064      -1.213168
                                                         0.571611       0.279909
                                                         0.232197       0.075368
                                                         0.076562       0.019407
                          1       6    5dz2              7.066654      -5.739265
                                                         3.428369      -2.129289
                                                         1.430064      -0.700423
                                                         0.571611       0.161606
                                                         0.232197       0.043513
                                                         0.076562       0.011205

                          1       7    5fx3              7.066654       0.705879
                                                         3.428369      -0.273976
                                                         1.430064       0.113667
                                                         0.571611       0.132480
                                                         0.232197       0.012437
                                                         0.076562       0.003241
                          1       7    5fx2y             7.066654       1.578393
                                                         3.428369      -0.612629
                                                         1.430064       0.254167
                                                         0.571611       0.296234
                                                         0.232197       0.027811
                                                         0.076562       0.007246
                          1       7    5fx2z             7.066654       1.578393
                                                         3.428369      -0.612629
                                                         1.430064       0.254167
                                                         0.571611       0.296234
                                                         0.232197       0.027811
                                                         0.076562       0.007246
                          1       7    5fxy2             7.066654       1.578393
                                                         3.428369      -0.612629
                                                         1.430064       0.254167
                                                         0.571611       0.296234
                                                         0.232197       0.027811
                                                         0.076562       0.007246
                          1       7    5fxyz             7.066654       2.733856
                                                         3.428369      -1.061105
                                                         1.430064       0.440230
                                                         0.571611       0.513092
                                                         0.232197       0.048170
                                                         0.076562       0.012551
                          1       7    5fxz2             7.066654       1.578393
                                                         3.428369      -0.612629
                                                         1.430064       0.254167
                                                         0.571611       0.296234
                                                         0.232197       0.027811
                                                         0.076562       0.007246
                          1       7    5fy3              7.066654       0.705879
                                                         3.428369      -0.273976
                                                         1.430064       0.113667
                                                         0.571611       0.132480
                                                         0.232197       0.012437
                                                         0.076562       0.003241
                          1       7    5fy2z             7.066654       1.578393
                                                         3.428369      -0.612629
                                                         1.430064       0.254167
                                                         0.571611       0.296234
                                                         0.232197       0.027811
                                                         0.076562       0.007246
                          1       7    5fyz2             7.066654       1.578393
                                                         3.428369      -0.612629
                                                         1.430064       0.254167
                                                         0.571611       0.296234
                                                         0.232197       0.027811
                                                         0.076562       0.007246
                          1       7    5fz3              7.066654       0.705879
                                                         3.428369      -0.273976
                                                         1.430064       0.113667
                                                         0.571611       0.132480
                                                         0.232197       0.012437
                                                         0.076562       0.003241

     GTH Potential information for                                   GTH-PBE-q13

       Description:                       Goedecker-Teter-Hutter pseudopotential
                                           Goedecker et al., PRB 54, 1703 (1996)
                                          Hartwigsen et al., PRB 58, 3641 (1998)
                                                      Krack, TCA 114, 145 (2005)

       Gaussian exponent of the core charge distribution:               2.082466
       Electronic configuration (s p d ...):                           2   1  10

       Parameters of the local part of the GTH pseudopotential:

                          rloc        C1          C2          C3          C4
                        0.490000

       Parameters of the non-local part of the GTH pseudopotential:

                   l      r(l)      h(i,j,l)

                   0    0.416777   10.475690   -4.921768    0.870706
                                   -4.921768    7.770178   -2.248152
                                    0.870706   -2.248152    1.784415
                   1    0.569627    1.777985    0.195860
                                    0.195860   -0.231744
                   2    0.238126  -16.248680

  3. Atomic kind: O                                     Number of atoms:       2

     Orbital Basis Set                                     DZVP-MOLOPT-SR-GTH-q6

       Number of orbital shell sets:                                           1
       Number of orbital shells:                                               5
       Number of primitive Cartesian functions:                                5
       Number of Cartesian basis functions:                                   14
       Number of spherical basis functions:                                   13
       Norm type:                                                              2

       Normalised Cartesian orbitals:

                        Set   Shell   Orbital            Exponent    Coefficient

                          1       1    2s               10.389228       0.396646
                                                         3.849621       0.208811
                                                         1.388401      -0.301641
                                                         0.496955      -0.274061
                                                         0.162492      -0.033677

                          1       2    3s               10.389228       0.303673
                                                         3.849621       0.240943
                                                         1.388401      -0.313066
                                                         0.496955      -0.043055
                                                         0.162492       0.213991

                          1       3    3px              10.389228      -1.530415
                                                         3.849621      -1.371928
                                                         1.388401      -0.761951
                                                         0.496955      -0.253695
                                                         0.162492      -0.035541
                          1       3    3py              10.389228      -1.530415
                                                         3.849621      -1.371928
                                                         1.388401      -0.761951
                                                         0.496955      -0.253695
                                                         0.162492      -0.035541
                          1       3    3pz              10.389228      -1.530415
                                                         3.849621      -1.371928
                                                         1.388401      -0.761951
                                                         0.496955      -0.253695
                                                         0.162492      -0.035541

                          1       4    4px              10.389228      -0.565392
                                                         3.849621      -0.038231
                                                         1.388401      -0.382373
                                                         0.496955       0.179070
                                                         0.162492       0.122714
                          1       4    4py              10.389228      -0.565392
                                                         3.849621      -0.038231
                                                         1.388401      -0.382373
                                                         0.496955       0.179070
                                                         0.162492       0.122714
                          1       4    4pz              10.389228      -0.565392
                                                         3.849621      -0.038231
                                                         1.388401      -0.382373
                                                         0.496955       0.179070
                                                         0.162492       0.122714

                          1       5    4dx2             10.389228       1.867377
                                                         3.849621       0.670994
                                                         1.388401       1.353441
                                                         0.496955       0.273538
                                                         0.162492       0.006620
                          1       5    4dxy             10.389228       3.234392
                                                         3.849621       1.162195
                                                         1.388401       2.344229
                                                         0.496955       0.473781
                                                         0.162492       0.011466
                          1       5    4dxz             10.389228       3.234392
                                                         3.849621       1.162195
                                                         1.388401       2.344229
                                                         0.496955       0.473781
                                                         0.162492       0.011466
                          1       5    4dy2             10.389228       1.867377
                                                         3.849621       0.670994
                                                         1.388401       1.353441
                                                         0.496955       0.273538
                                                         0.162492       0.006620
                          1       5    4dyz             10.389228       3.234392
                                                         3.849621       1.162195
                                                         1.388401       2.344229
                                                         0.496955       0.473781
                                                         0.162492       0.011466
                          1       5    4dz2             10.389228       1.867377
                                                         3.849621       0.670994
                                                         1.388401       1.353441
                                                         0.496955       0.273538
                                                         0.162492       0.006620

     GTH Potential information for                                    GTH-PBE-q6

       Description:                       Goedecker-Teter-Hutter pseudopotential
                                           Goedecker et al., PRB 54, 1703 (1996)
                                          Hartwigsen et al., PRB 58, 3641 (1998)
                                                      Krack, TCA 114, 145 (2005)

       Gaussian exponent of the core charge distribution:               8.360253
       Electronic configuration (s p d ...):                               2   4

       Parameters of the local part of the GTH pseudopotential:

                          rloc        C1          C2          C3          C4
                        0.244554  -16.667215    2.487311

       Parameters of the non-local part of the GTH pseudopotential:

                   l      r(l)      h(i,j,l)

                   0    0.220956   18.337458
                   1    0.211332

  4. Atomic kind: H                                     Number of atoms:       8

     Orbital Basis Set                                     DZVP-MOLOPT-SR-GTH-q1

       Number of orbital shell sets:                                           1
       Number of orbital shells:                                               3
       Number of primitive Cartesian functions:                                5
       Number of Cartesian basis functions:                                    5
       Number of spherical basis functions:                                    5
       Norm type:                                                              2

       Normalised Cartesian orbitals:

                        Set   Shell   Orbital            Exponent    Coefficient

                          1       1    2s               10.068468      -0.133023
                                                         2.680223      -0.177618
                                                         0.791502      -0.258419
                                                         0.239116      -0.107525
                                                         0.082193      -0.014019

                          1       2    3s               10.068468       0.344673
                                                         2.680223       1.819821
                                                         0.791502      -0.999069
                                                         0.239116       0.017430
                                                         0.082193       0.082660

                          1       3    3px              10.068468       0.155326
                                                         2.680223       0.367157
                                                         0.791502       0.311480
                                                         0.239116       0.080105
                                                         0.082193       0.033440
                          1       3    3py              10.068468       0.155326
                                                         2.680223       0.367157
                                                         0.791502       0.311480
                                                         0.239116       0.080105
                                                         0.082193       0.033440
                          1       3    3pz              10.068468       0.155326
                                                         2.680223       0.367157
                                                         0.791502       0.311480
                                                         0.239116       0.080105
                                                         0.082193       0.033440

     GTH Potential information for                                    GTH-PBE-q1

       Description:                       Goedecker-Teter-Hutter pseudopotential
                                           Goedecker et al., PRB 54, 1703 (1996)
                                          Hartwigsen et al., PRB 58, 3641 (1998)
                                                      Krack, TCA 114, 145 (2005)

       Gaussian exponent of the core charge distribution:              12.500000
       Electronic configuration (s p d ...):                                   1

       Parameters of the local part of the GTH pseudopotential:

                          rloc        C1          C2          C3          C4
                        0.200000   -4.178900    0.724463

  5. Atomic kind: C                                     Number of atoms:       2

     Orbital Basis Set                                     DZVP-MOLOPT-SR-GTH-q4

       Number of orbital shell sets:                                           1
       Number of orbital shells:                                               5
       Number of primitive Cartesian functions:                                5
       Number of Cartesian basis functions:                                   14
       Number of spherical basis functions:                                   13
       Norm type:                                                              2

       Normalised Cartesian orbitals:

                        Set   Shell   Orbital            Exponent    Coefficient

                          1       1    2s                5.605331       0.322515
                                                         2.113016       0.213043
                                                         0.769911      -0.209686
                                                         0.348157      -0.219794
                                                         0.128212      -0.022789

                          1       2    3s                5.605331       0.552234
                                                         2.113016       0.082072
                                                         0.769911       0.007843
                                                         0.348157       0.136893
                                                         0.128212       0.074283

                          1       3    3px               5.605331      -0.703879
                                                         2.113016      -0.642521
                                                         0.769911      -0.374851
                                                         0.348157      -0.139743
                                                         0.128212      -0.027849
                          1       3    3py               5.605331      -0.703879
                                                         2.113016      -0.642521
                                                         0.769911      -0.374851
                                                         0.348157      -0.139743
                                                         0.128212      -0.027849
                          1       3    3pz               5.605331      -0.703879
                                                         2.113016      -0.642521
                                                         0.769911      -0.374851
                                                         0.348157      -0.139743
                                                         0.128212      -0.027849

                          1       4    4px               5.605331      -0.480376
                                                         2.113016      -0.552894
                                                         0.769911      -0.316145
                                                         0.348157       0.210505
                                                         0.128212       0.076095
                          1       4    4py               5.605331      -0.480376
                                                         2.113016      -0.552894
                                                         0.769911      -0.316145
                                                         0.348157       0.210505
                                                         0.128212       0.076095
                          1       4    4pz               5.605331      -0.480376
                                                         2.113016      -0.552894
                                                         0.769911      -0.316145
                                                         0.348157       0.210505
                                                         0.128212       0.076095

                          1       5    4dx2              5.605331       0.640026
                                                         2.113016       0.274300
                                                         0.769911       0.446711
                                                         0.348157       0.028674
                                                         0.128212       0.029790
                          1       5    4dxy              5.605331       1.108557
                                                         2.113016       0.475102
                                                         0.769911       0.773726
                                                         0.348157       0.049666
                                                         0.128212       0.051599
                          1       5    4dxz              5.605331       1.108557
                                                         2.113016       0.475102
                                                         0.769911       0.773726
                                                         0.348157       0.049666
                                                         0.128212       0.051599
                          1       5    4dy2              5.605331       0.640026
                                                         2.113016       0.274300
                                                         0.769911       0.446711
                                                         0.348157       0.028674
                                                         0.128212       0.029790
                          1       5    4dyz              5.605331       1.108557
                                                         2.113016       0.475102
                                                         0.769911       0.773726
                                                         0.348157       0.049666
                                                         0.128212       0.051599
                          1       5    4dz2              5.605331       0.640026
                                                         2.113016       0.274300
                                                         0.769911       0.446711
                                                         0.348157       0.028674
                                                         0.128212       0.029790

     GTH Potential information for                                    GTH-PBE-q4

       Description:                       Goedecker-Teter-Hutter pseudopotential
                                           Goedecker et al., PRB 54, 1703 (1996)
                                          Hartwigsen et al., PRB 58, 3641 (1998)
                                                      Krack, TCA 114, 145 (2005)

       Gaussian exponent of the core charge distribution:               4.364419
       Electronic configuration (s p d ...):                               2   2

       Parameters of the local part of the GTH pseudopotential:

                          rloc        C1          C2          C3          C4
                        0.338471   -8.803674    1.339211

       Parameters of the non-local part of the GTH pseudopotential:

                   l      r(l)      h(i,j,l)

                   0    0.302576    9.622487
                   1    0.291507


 MOLECULE KIND INFORMATION


 All atoms are their own molecule, skipping detailed information


 TOTAL NUMBERS AND MAXIMUM NUMBERS

  Total number of            - Atomic kinds:                                   5
                             - Atoms:                                        212
                             - Shell sets:                                   212
                             - Shells:                                      1244
                             - Primitive Cartesian functions:               1160
                             - Cartesian basis functions:                   4496
                             - Spherical basis functions:                   3892

  Maximum angular momentum of- Orbital basis functions:                        3
                             - Local part of the GTH pseudopotential:          2
                             - Non-local part of the GTH pseudopotential:      4


 MODULE QUICKSTEP:  ATOMIC COORDINATES IN angstrom

  Atom  Kind  Element       X           Y           Z          Z(eff)       Mass

       1     1 N    7    0.006301    2.050498    2.458565      5.00      14.0067
       2     2 Ga  31    0.020186    0.092334    2.798840     13.00      69.7230
       3     1 N    7   -0.008078    0.051959    4.971055      5.00      14.0067
       4     2 Ga  31    0.008205    1.886844    5.738368     13.00      69.7230
       5     1 N    7    0.000612    1.892099    7.745163      5.00      14.0067
       6     2 Ga  31    0.002329    0.047957    8.390526     13.00      69.7230
       7     1 N    7   -0.001747    0.046070   10.369306      5.00      14.0067
       8     2 Ga  31   -0.002168    1.885180   11.022510     13.00      69.7230
       9     1 N    7   -0.003116    1.865657   13.019388      5.00      14.0067
      10     2 Ga  31   -0.000169    0.044739   13.818542     13.00      69.7230
      11     1 N    7   -0.001385    0.043872   16.025466      5.00      14.0067
      12     2 Ga  31   -0.002223    2.076375   16.425666     13.00      69.7230
      13     2 Ga  31   -0.024536    3.709025    1.244450     13.00      69.7230
      14     1 N    7   -1.466463    4.624046    2.444919      5.00      14.0067
      15     2 Ga  31   -1.662964    2.794798    3.223760     13.00      69.7230
      16     1 N    7   -1.610640    2.833202    5.205713      5.00      14.0067
      17     2 Ga  31   -1.626677    4.700753    5.750338     13.00      69.7230
      18     1 N    7   -1.616928    4.697368    7.749548      5.00      14.0067
      19     2 Ga  31   -1.594893    2.837938    8.388310     13.00      69.7230
      20     1 N    7   -1.598929    2.838597   10.385545      5.00      14.0067
      21     2 Ga  31   -1.627660    4.696471   11.026980     13.00      69.7230
      22     1 N    7   -1.644137    4.706312   13.022974      5.00      14.0067
      23     2 Ga  31   -1.599527    2.836962   13.575304     13.00      69.7230
      24     1 N    7   -1.623954    2.820485   15.541873      5.00      14.0067
      25     2 Ga  31   -1.466868    4.604427   16.425458     13.00      69.7230
      26     1 N    7   -0.010251    3.761165   17.553713      5.00      14.0067
      27     1 N    7   -3.237059    7.574083    2.446176      5.00      14.0067
      28     2 Ga  31   -3.178152    5.601098    2.803628     13.00      69.7230
      29     1 N    7   -3.213247    5.607469    4.974730      5.00      14.0067
      30     2 Ga  31   -3.237110    7.437869    5.734009     13.00      69.7230
      31     1 N    7   -3.223790    7.463922    7.735777      5.00      14.0067
      32     2 Ga  31   -3.216624    5.618417    8.394951     13.00      69.7230
      33     1 N    7   -3.218349    5.617505   10.371263      5.00      14.0067
      34     2 Ga  31   -3.220532    7.455853   11.024990     13.00      69.7230
      35     1 N    7   -3.219657    7.436810   13.018747      5.00      14.0067
      36     2 Ga  31   -3.222361    5.617720   13.826074     13.00      69.7230
      37     1 N    7   -3.223382    5.618026   16.026066      5.00      14.0067
      38     2 Ga  31   -3.220236    7.664722   16.444495     13.00      69.7230
      39     2 Ga  31   -3.249383    9.358492    1.241915     13.00      69.7230
      40     1 N    7   -4.744082   10.185700    2.452807      5.00      14.0067
      41     2 Ga  31   -4.943972    8.333238    3.156657     13.00      69.7230
      42     1 N    7   -4.847365    8.386811    5.149943      5.00      14.0067
      43     2 Ga  31   -4.857108   10.263313    5.722253     13.00      69.7230
      44     1 N    7   -4.838281   10.257401    7.731686      5.00      14.0067
      45     2 Ga  31   -4.818041    8.408917    8.389148     13.00      69.7230
      46     1 N    7   -4.815929    8.407982   10.383349      5.00      14.0067
      47     2 Ga  31   -4.841114   10.267498   11.020765     13.00      69.7230
      48     1 N    7   -4.858101   10.276299   13.015690      5.00      14.0067
      49     2 Ga  31   -4.815885    8.408705   13.577726     13.00      69.7230
      50     1 N    7   -4.844923    8.393252   15.538100      5.00      14.0067
      51     2 Ga  31   -4.659754   10.161472   16.444231     13.00      69.7230
      52     1 N    7   -3.221421    9.328960   17.583302      5.00      14.0067
      53     1 N    7    3.207265    1.896504    2.562728      5.00      14.0067
      54     2 Ga  31    3.195141    0.132120    3.202508     13.00      69.7230
      55     1 N    7    3.209477    0.042018    5.185523      5.00      14.0067
      56     2 Ga  31    3.200401    1.903820    5.809827     13.00      69.7230
      57     1 N    7    3.211124    1.901567    7.793528      5.00      14.0067
      58     2 Ga  31    3.207918    0.034367    8.377780     13.00      69.7230
      59     1 N    7    3.211777    0.032159   10.377097      5.00      14.0067
      60     2 Ga  31    3.212031    1.899636   10.980791     13.00      69.7230
      61     1 N    7    3.211969    1.901507   12.953850      5.00      14.0067
      62     2 Ga  31    3.212784    0.032787   13.577240     13.00      69.7230
      63     1 N    7    3.211471    0.064949   15.537381      5.00      14.0067
      64     2 Ga  31    3.213743    1.901906   15.816537     13.00      69.7230
      65     1 N    7    1.502202    4.641891    2.329581      5.00      14.0067
      66     2 Ga  31    1.692524    2.815932    3.190770     13.00      69.7230
      67     1 N    7    1.609265    2.847630    5.178586      5.00      14.0067
      68     2 Ga  31    1.657852    4.709483    5.766961     13.00      69.7230
      69     1 N    7    1.606107    4.690847    7.773605      5.00      14.0067
      70     2 Ga  31    1.595730    2.834745    8.392966     13.00      69.7230
      71     1 N    7    1.594614    2.835558   10.389606      5.00      14.0067
      72     2 Ga  31    1.621277    4.695432   11.024532     13.00      69.7230
      73     1 N    7    1.637120    4.705831   13.021547      5.00      14.0067
      74     2 Ga  31    1.594536    2.836806   13.573807     13.00      69.7230
      75     1 N    7    1.618269    2.822826   15.539540      5.00      14.0067
      76     2 Ga  31    1.453710    4.599122   16.425563     13.00      69.7230
      77     1 N    7   -0.018037    7.472089    2.642412      5.00      14.0067
      78     2 Ga  31    0.036646    5.603608    3.243109     13.00      69.7230
      79     1 N    7    0.010833    5.627206    5.186894      5.00      14.0067
      80     2 Ga  31   -0.011528    7.460697    5.852607     13.00      69.7230
      81     1 N    7   -0.005714    7.471640    7.813760      5.00      14.0067
      82     2 Ga  31   -0.002911    5.600586    8.406365     13.00      69.7230
      83     1 N    7   -0.004909    5.605247   10.397258      5.00      14.0067
      84     2 Ga  31   -0.007016    7.474184   10.987140     13.00      69.7230
      85     1 N    7   -0.003939    7.473319   12.959237      5.00      14.0067
      86     2 Ga  31   -0.002608    5.602429   13.575513     13.00      69.7230
      87     1 N    7   -0.000627    5.632381   15.541858      5.00      14.0067
      88     2 Ga  31   -0.004530    7.473219   15.818039     13.00      69.7230
      89     1 N    7   -1.713530   10.191701    2.465442      5.00      14.0067
      90     2 Ga  31   -1.638799    8.392126    3.252600     13.00      69.7230
      91     1 N    7   -1.605314    8.389809    5.194187      5.00      14.0067
      92     2 Ga  31   -1.594990   10.274825    5.749542     13.00      69.7230
      93     1 N    7   -1.602230   10.260865    7.745227      5.00      14.0067
      94     2 Ga  31   -1.628063    8.406927    8.391130     13.00      69.7230
      95     1 N    7   -1.624585    8.407556   10.384367      5.00      14.0067
      96     2 Ga  31   -1.600153   10.267232   11.023092     13.00      69.7230
      97     1 N    7   -1.580469   10.276725   13.017576      5.00      14.0067
      98     2 Ga  31   -1.623854    8.409181   13.578550     13.00      69.7230
      99     1 N    7   -1.594194    8.391881   15.538461      5.00      14.0067
     100     2 Ga  31   -1.779100   10.162444   16.444224     13.00      69.7230
     101     1 N    7    6.438539    2.016885    2.511621      5.00      14.0067
     102     2 Ga  31    6.405383    0.042213    2.841586     13.00      69.7230
     103     1 N    7    6.431191    0.044239    4.985882      5.00      14.0067
     104     2 Ga  31    6.425458    1.877287    5.764109     13.00      69.7230
     105     1 N    7    6.429704    1.889236    7.758449      5.00      14.0067
     106     2 Ga  31    6.425208    0.045295    8.403412     13.00      69.7230
     107     1 N    7    6.427503    0.044766   10.376442      5.00      14.0067
     108     2 Ga  31    6.428432    1.885446   11.026766     13.00      69.7230
     109     1 N    7    6.429676    1.866299   13.020235      5.00      14.0067
     110     2 Ga  31    6.425832    0.048352   13.826062     13.00      69.7230
     111     1 N    7    6.424955    0.047759   16.025570      5.00      14.0067
     112     2 Ga  31    6.428102    2.099094   16.448681     13.00      69.7230
     113     2 Ga  31    6.462369    3.720879    1.494520     13.00      69.7230
     114     1 N    7    4.939040    4.595742    2.457484      5.00      14.0067
     115     2 Ga  31    4.700345    2.769668    3.258904     13.00      69.7230
     116     1 N    7    4.822600    2.832195    5.213736      5.00      14.0067
     117     2 Ga  31    4.777209    4.709072    5.774780     13.00      69.7230
     118     1 N    7    4.822372    4.688054    7.777941      5.00      14.0067
     119     2 Ga  31    4.827847    2.832095    8.396191     13.00      69.7230
     120     1 N    7    4.830903    2.833859   10.390906      5.00      14.0067
     121     2 Ga  31    4.806221    4.695238   11.024053     13.00      69.7230
     122     1 N    7    4.790637    4.705402   13.018996      5.00      14.0067
     123     2 Ga  31    4.831903    2.837070   13.577456     13.00      69.7230
     124     1 N    7    4.801981    2.821485   15.537487      5.00      14.0067
     125     2 Ga  31    4.992291    4.588664   16.448846     13.00      69.7230
     126     1 N    7    6.426370    3.757963   17.588958      5.00      14.0067
     127     1 N    7    3.188812    7.618223    2.475502      5.00      14.0067
     128     1 N    7    3.221012    5.623562    5.091190      5.00      14.0067
     129     2 Ga  31    3.216056    7.416911    5.788800     13.00      69.7230
     130     1 N    7    3.211427    7.475987    7.783385      5.00      14.0067
     131     2 Ga  31    3.213547    5.614729    8.398742     13.00      69.7230
     132     1 N    7    3.213313    5.616852   10.378751      5.00      14.0067
     133     2 Ga  31    3.213342    7.455007   11.026616     13.00      69.7230
     134     1 N    7    3.213352    7.436939   13.022566      5.00      14.0067
     135     2 Ga  31    3.216421    5.614476   13.820186     13.00      69.7230
     136     1 N    7    3.215157    5.614467   16.026391      5.00      14.0067
     137     2 Ga  31    3.213582    7.648379   16.428066     13.00      69.7230
     138     2 Ga  31    3.228910    9.366275    1.477652     13.00      69.7230
     139     1 N    7    1.706214   10.192310    2.493612      5.00      14.0067
     140     2 Ga  31    1.564777    8.373320    3.308411     13.00      69.7230
     141     1 N    7    1.592387    8.396273    5.225952      5.00      14.0067
     142     2 Ga  31    1.577287   10.278917    5.774714     13.00      69.7230
     143     1 N    7    1.594518   10.263597    7.762124      5.00      14.0067
     144     2 Ga  31    1.612236    8.409391    8.409911     13.00      69.7230
     145     1 N    7    1.612253    8.409493   10.399052      5.00      14.0067
     146     2 Ga  31    1.588405   10.269246   11.030509     13.00      69.7230
     147     1 N    7    1.572777   10.278094   13.024870      5.00      14.0067
     148     2 Ga  31    1.616495    8.408196   13.576581     13.00      69.7230
     149     1 N    7    1.590625    8.390563   15.542435      5.00      14.0067
     150     2 Ga  31    1.750699   10.174102   16.427315     13.00      69.7230
     151     1 N    7    3.204809    9.331469   17.556880      5.00      14.0067
     152     1 N    7    9.665047    1.912374    2.576705      5.00      14.0067
     153     2 Ga  31    9.656996    0.179545    3.262707     13.00      69.7230
     154     1 N    7    9.643437    0.044695    5.217981      5.00      14.0067
     155     2 Ga  31    9.658926    1.908749    5.839691     13.00      69.7230
     156     1 N    7    9.647686    1.902681    7.811780      5.00      14.0067
     157     2 Ga  31    9.647526    0.035696    8.398848     13.00      69.7230
     158     1 N    7    9.644858    0.032843   10.391072      5.00      14.0067
     159     2 Ga  31    9.646333    1.904238   10.980604     13.00      69.7230
     160     1 N    7    9.646672    1.902686   12.954329      5.00      14.0067
     161     2 Ga  31    9.646338    0.034099   13.576380     13.00      69.7230
     162     1 N    7    9.648399    0.063281   15.541797      5.00      14.0067
     163     2 Ga  31    9.644384    1.903532   15.819719     13.00      69.7230
     164     1 N    7    7.934295    4.622935    2.499024      5.00      14.0067
     165     2 Ga  31    8.159824    2.769334    3.272667     13.00      69.7230
     166     1 N    7    8.041583    2.827778    5.225224      5.00      14.0067
     167     2 Ga  31    8.067802    4.703139    5.760047     13.00      69.7230
     168     1 N    7    8.048081    4.694573    7.754853      5.00      14.0067
     169     2 Ga  31    8.028125    2.836793    8.395160     13.00      69.7230
     170     1 N    7    8.026106    2.837676   10.388504      5.00      14.0067
     171     2 Ga  31    8.053904    4.696959   11.026661     13.00      69.7230
     172     1 N    7    8.069842    4.706182   13.019915      5.00      14.0067
     173     2 Ga  31    8.026604    2.837723   13.578660     13.00      69.7230
     174     1 N    7    8.055834    2.821097   15.538053      5.00      14.0067
     175     2 Ga  31    7.864437    4.588974   16.449469     13.00      69.7230
     176     1 N    7    6.351349    7.430840    2.456238      5.00      14.0067
     177     2 Ga  31    6.415191    5.706356    3.270685     13.00      69.7230
     178     1 N    7    6.429178    5.619085    5.210447      5.00      14.0067
     179     2 Ga  31    6.431735    7.473528    5.839925     13.00      69.7230
     180     1 N    7    6.427711    7.472249    7.808119      5.00      14.0067
     181     2 Ga  31    6.431671    5.602965    8.403885     13.00      69.7230
     182     1 N    7    6.431811    5.605391   10.394755      5.00      14.0067
     183     2 Ga  31    6.431050    7.474277   10.985293     13.00      69.7230
     184     1 N    7    6.429359    7.474266   12.956452      5.00      14.0067
     185     2 Ga  31    6.429680    5.603055   13.578203     13.00      69.7230
     186     1 N    7    6.428517    5.636622   15.537722      5.00      14.0067
     187     2 Ga  31    6.430066    7.472272   15.816600     13.00      69.7230
     188     1 N    7    4.720213   10.197582    2.492079      5.00      14.0067
     189     2 Ga  31    4.900325    8.344913    3.280260     13.00      69.7230
     190     1 N    7    4.819452    8.401458    5.217004      5.00      14.0067
     191     2 Ga  31    4.853843   10.279982    5.762187     13.00      69.7230
     192     1 N    7    4.831413   10.264813    7.755986      5.00      14.0067
     193     2 Ga  31    4.812857    8.411605    8.405047     13.00      69.7230
     194     1 N    7    4.812231    8.409794   10.395681      5.00      14.0067
     195     2 Ga  31    4.838424   10.269347   11.025764     13.00      69.7230
     196     1 N    7    4.853612   10.277710   13.020904      5.00      14.0067
     197     2 Ga  31    4.810789    8.408499   13.575521     13.00      69.7230
     198     1 N    7    4.835463    8.393992   15.540277      5.00      14.0067
     199     2 Ga  31    4.666338   10.168080   16.428216     13.00      69.7230
     200     3 O    8    0.029417    3.664500   -0.575154      6.00      15.9994
     201     4 H    1   -0.003162    7.483021    1.616007      1.00       1.0079
     202     5 C    6    0.065488    2.359735   -1.174022      4.00      12.0107
     203     4 H    1    0.913042    1.753012   -0.813328      1.00       1.0079
     204     4 H    1   -0.862393    1.792583   -0.993008      1.00       1.0079
     205     4 H    1    0.178043    2.499443   -2.259494      1.00       1.0079
     206     2 Ga  31    3.228198    5.616226    2.261325     13.00      69.7230
     207     3 O    8    3.899672    6.166278    0.213790      6.00      15.9994
     208     4 H    1    3.756626    5.505079   -0.484823      1.00       1.0079
     209     5 C    6    5.296845    6.695290    0.120965      4.00      12.0107
     210     4 H    1    5.289056    7.491913   -0.636210      1.00       1.0079
     211     4 H    1    5.779212    7.092452    1.217874      1.00       1.0079
     212     4 H    1    5.953699    5.888391   -0.248198      1.00       1.0079




 SCF PARAMETERS         Density guess:                                    ATOMIC
                        --------------------------------------------------------
                        max_scf:                                              80
                        max_scf_history:                                       0
                        max_diis:                                              4
                        --------------------------------------------------------
                        eps_scf:                                        5.00E-06
                        eps_scf_history:                                0.00E+00
                        eps_diis:                                       1.00E-01
                        eps_eigval:                                     1.00E-05
                        --------------------------------------------------------
                        level_shift [a.u.]:                                 0.00
                        --------------------------------------------------------
                        Outer loop SCF in use 
                        No variables optimised in outer loop
                        eps_scf                                         5.00E-06
                        max_scf                                                4
                        No outer loop optimization
                        step_size                                       5.00E-01

 PW_GRID| Information for grid number                                          1
 PW_GRID| Grid distributed over                                    80 processors
 PW_GRID| Real space group dimensions                                    80    1
 PW_GRID| the grid is blocked:                                                NO
 PW_GRID| Cutoff [a.u.]                                                    600.0
 PW_GRID| spherical cutoff:                                                   NO
 PW_GRID|   Bounds   1           -144     143                Points:         288
 PW_GRID|   Bounds   2           -144     143                Points:         288
 PW_GRID|   Bounds   3           -337     337                Points:         675
 PW_GRID| Volume element (a.u.^3)  0.5630E-03     Volume (a.u.^3)     31519.8467
 PW_GRID| Grid span                                                    FULLSPACE
 PW_GRID|   Distribution                         Average         Max         Min
 PW_GRID|   G-Vectors                           699840.0      699840      699840
 PW_GRID|   G-Rays                                2430.0        2430        2430
 PW_GRID|   Real Space Points                   699840.0      777600      583200

 PW_GRID| Information for grid number                                          2
 PW_GRID| Grid distributed over                                    80 processors
 PW_GRID| Real space group dimensions                                    80    1
 PW_GRID| the grid is blocked:                                                NO
 PW_GRID| Cutoff [a.u.]                                                    200.0
 PW_GRID| spherical cutoff:                                                   NO
 PW_GRID|   Bounds   1            -80      79                Points:         160
 PW_GRID|   Bounds   2            -80      79                Points:         160
 PW_GRID|   Bounds   3           -200     199                Points:         400
 PW_GRID| Volume element (a.u.^3)  0.3078E-02     Volume (a.u.^3)     31519.8467
 PW_GRID| Grid span                                                    FULLSPACE
 PW_GRID|   Distribution                         Average         Max         Min
 PW_GRID|   G-Vectors                           128000.0      128160      127840
 PW_GRID|   G-Rays                                 800.0         801         799
 PW_GRID|   Real Space Points                   128000.0      128000      128000

 PW_GRID| Information for grid number                                          3
 PW_GRID| Grid distributed over                                    80 processors
 PW_GRID| Real space group dimensions                                    80    1
 PW_GRID| the grid is blocked:                                                NO
 PW_GRID| Cutoff [a.u.]                                                     66.7
 PW_GRID| spherical cutoff:                                                   NO
 PW_GRID|   Bounds   1            -48      47                Points:          96
 PW_GRID|   Bounds   2            -48      47                Points:          96
 PW_GRID|   Bounds   3           -112     112                Points:         225
 PW_GRID| Volume element (a.u.^3)  0.1520E-01     Volume (a.u.^3)     31519.8467
 PW_GRID| Grid span                                                    FULLSPACE
[...]
     20       N      1       5.000    2.062   2.063           -0.001      0.875
     21       Ga     2      13.000    6.938   6.939           -0.001     -0.877
     22       N      1       5.000    2.060   2.060           -0.000      0.880
     23       Ga     2      13.000    6.950   6.949            0.001     -0.899
     24       N      1       5.000    2.058   2.043            0.015      0.900
     25       Ga     2      13.000    6.928   6.910            0.017     -0.838
     26       N      1       5.000    2.405   2.046            0.359      0.549
     27       N      1       5.000    2.070   2.146           -0.076      0.784
     28       Ga     2      13.000    6.891   6.903           -0.011     -0.794
     29       N      1       5.000    2.093   2.103           -0.010      0.805
     30       Ga     2      13.000    6.937   6.940           -0.003     -0.877
     31       N      1       5.000    2.062   2.063           -0.002      0.875
     32       Ga     2      13.000    6.950   6.951           -0.001     -0.900
     33       N      1       5.000    2.052   2.053           -0.000      0.895
     34       Ga     2      13.000    6.939   6.940           -0.001     -0.879
     35       N      1       5.000    2.059   2.059           -0.000      0.881
     36       Ga     2      13.000    6.872   6.874           -0.002     -0.747
     37       N      1       5.000    2.132   2.133           -0.002      0.735
     38       Ga     2      13.000    6.918   6.910            0.008     -0.828
     39       Ga     2      13.000    6.497   6.921           -0.424     -0.417
     40       N      1       5.000    2.057   2.143           -0.086      0.800
     41       Ga     2      13.000    6.951   6.962           -0.011     -0.914
     42       N      1       5.000    2.055   2.061           -0.006      0.884
     43       Ga     2      13.000    6.940   6.943           -0.003     -0.882
     44       N      1       5.000    2.062   2.064           -0.001      0.874
     45       Ga     2      13.000    6.939   6.940           -0.001     -0.879
     46       N      1       5.000    2.061   2.062           -0.001      0.877
     47       Ga     2      13.000    6.939   6.939           -0.001     -0.878
     48       N      1       5.000    2.059   2.060           -0.000      0.881
     49       Ga     2      13.000    6.950   6.950            0.000     -0.901
     50       N      1       5.000    2.053   2.047            0.006      0.900
     51       Ga     2      13.000    6.918   6.910            0.008     -0.828
     52       N      1       5.000    2.321   2.142            0.179      0.537
     53       N      1       5.000    2.123   2.123            0.000      0.754
     54       Ga     2      13.000    6.958   6.969           -0.011     -0.928
     55       N      1       5.000    2.051   2.058           -0.007      0.891
     56       Ga     2      13.000    6.930   6.932           -0.002     -0.861
     57       N      1       5.000    2.057   2.058           -0.001      0.884
     58       Ga     2      13.000    6.936   6.938           -0.001     -0.874
     59       N      1       5.000    2.062   2.063           -0.001      0.875
     60       Ga     2      13.000    6.946   6.947           -0.001     -0.893
     61       N      1       5.000    2.063   2.061            0.002      0.876
     62       Ga     2      13.000    6.950   6.950            0.000     -0.900
     63       N      1       5.000    2.055   2.047            0.008      0.897
     64       Ga     2      13.000    6.858   6.857            0.001     -0.714
     65       N      1       5.000    2.100   2.101           -0.000      0.799
     66       Ga     2      13.000    6.957   6.958           -0.000     -0.915
     67       N      1       5.000    2.055   2.055           -0.000      0.890
     68       Ga     2      13.000    6.958   6.959           -0.001     -0.917
     69       N      1       5.000    2.059   2.060           -0.000      0.881
     70       Ga     2      13.000    6.939   6.940           -0.001     -0.879
     71       N      1       5.000    2.061   2.062           -0.000      0.877
     72       Ga     2      13.000    6.937   6.938           -0.001     -0.875
     73       N      1       5.000    2.060   2.060           -0.000      0.879
     74       Ga     2      13.000    6.950   6.948            0.002     -0.898
     75       N      1       5.000    2.061   2.038            0.022      0.901
     76       Ga     2      13.000    6.927   6.910            0.017     -0.837
     77       N      1       5.000    2.237   2.237            0.000      0.527
     78       Ga     2      13.000    6.985   6.986           -0.000     -0.971
     79       N      1       5.000    2.052   2.053           -0.000      0.895
     80       Ga     2      13.000    6.942   6.944           -0.002     -0.886
     81       N      1       5.000    2.055   2.056           -0.001      0.889
     82       Ga     2      13.000    6.940   6.941           -0.001     -0.881
     83       N      1       5.000    2.061   2.061           -0.001      0.878
     84       Ga     2      13.000    6.946   6.947           -0.001     -0.893
     85       N      1       5.000    2.063   2.061            0.002      0.877
     86       Ga     2      13.000    6.949   6.948            0.001     -0.897
     87       N      1       5.000    2.059   2.042            0.017      0.898
     88       Ga     2      13.000    6.859   6.857            0.002     -0.715
     89       N      1       5.000    2.065   2.141           -0.076      0.794
     90       Ga     2      13.000    6.986   6.998           -0.012     -0.983
     91       N      1       5.000    2.048   2.056           -0.008      0.895
     92       Ga     2      13.000    6.938   6.942           -0.004     -0.880
     93       N      1       5.000    2.060   2.062           -0.002      0.878
     94       Ga     2      13.000    6.937   6.939           -0.001     -0.876
     95       N      1       5.000    2.062   2.062           -0.000      0.876
     96       Ga     2      13.000    6.938   6.939           -0.001     -0.877
     97       N      1       5.000    2.060   2.061           -0.000      0.879
     98       Ga     2      13.000    6.951   6.950            0.001     -0.901
     99       N      1       5.000    2.057   2.043            0.013      0.900
    100       Ga     2      13.000    6.916   6.907            0.008     -0.823
    101       N      1       5.000    2.093   2.095           -0.003      0.812
    102       Ga     2      13.000    6.900   6.911           -0.012     -0.811
    103       N      1       5.000    2.089   2.102           -0.013      0.808
    104       Ga     2      13.000    6.943   6.947           -0.003     -0.890
    105       N      1       5.000    2.059   2.061           -0.001      0.880
    106       Ga     2      13.000    6.950   6.951           -0.001     -0.902
    107       N      1       5.000    2.052   2.052           -0.000      0.897
    108       Ga     2      13.000    6.939   6.940           -0.001     -0.879
    109       N      1       5.000    2.059   2.060           -0.000      0.881
    110       Ga     2      13.000    6.873   6.875           -0.001     -0.748
    111       N      1       5.000    2.135   2.136           -0.001      0.730
    112       Ga     2      13.000    6.913   6.907            0.006     -0.819
    113       Ga     2      13.000    6.806   6.827           -0.021     -0.633
    114       N      1       5.000    2.085   2.087           -0.002      0.827
    115       Ga     2      13.000    6.960   6.960           -0.001     -0.920
    116       N      1       5.000    2.051   2.051           -0.000      0.898
    117       Ga     2      13.000    6.959   6.960           -0.001     -0.919
    118       N      1       5.000    2.059   2.059           -0.000      0.882
    119       Ga     2      13.000    6.939   6.940           -0.001     -0.880
    120       N      1       5.000    2.061   2.062           -0.001      0.877
    121       Ga     2      13.000    6.938   6.939           -0.001     -0.877
    122       N      1       5.000    2.059   2.060           -0.000      0.881
    123       Ga     2      13.000    6.951   6.950            0.000     -0.901
    124       N      1       5.000    2.053   2.048            0.005      0.899
    125       Ga     2      13.000    6.915   6.909            0.006     -0.824
    126       N      1       5.000    2.294   2.177            0.117      0.529
    127       N      1       5.000    2.085   2.086           -0.001      0.828
    128       N      1       5.000    2.132   2.133           -0.001      0.735
    129       Ga     2      13.000    6.958   6.958           -0.001     -0.916
    130       N      1       5.000    2.058   2.058           -0.000      0.884
    131       Ga     2      13.000    6.943   6.943           -0.001     -0.886
    132       N      1       5.000    2.052   2.052           -0.000      0.896
    133       Ga     2      13.000    6.938   6.939           -0.001     -0.877
    134       N      1       5.000    2.059   2.060           -0.000      0.881
    135       Ga     2      13.000    6.873   6.875           -0.002     -0.747
    136       N      1       5.000    2.132   2.133           -0.002      0.735
    137       Ga     2      13.000    6.917   6.913            0.004     -0.830
    138       Ga     2      13.000    6.754   6.774           -0.020     -0.528
    139       N      1       5.000    2.100   2.103           -0.002      0.797
    140       Ga     2      13.000    6.984   6.985           -0.001     -0.969
    141       N      1       5.000    2.049   2.049           -0.000      0.902
    142       Ga     2      13.000    6.943   6.946           -0.003     -0.888
    143       N      1       5.000    2.059   2.060           -0.001      0.881
    144       Ga     2      13.000    6.940   6.941           -0.001     -0.881
    145       N      1       5.000    2.060   2.061           -0.001      0.879
    146       Ga     2      13.000    6.939   6.940           -0.001     -0.879
    147       N      1       5.000    2.060   2.060           -0.000      0.880
    148       Ga     2      13.000    6.951   6.951           -0.000     -0.901
    149       N      1       5.000    2.052   2.050            0.002      0.898
    150       Ga     2      13.000    6.915   6.911            0.004     -0.826
    151       N      1       5.000    2.277   2.199            0.078      0.524
    152       N      1       5.000    2.123   2.123           -0.000      0.754
    153       Ga     2      13.000    6.955   6.956           -0.001     -0.912
    154       N      1       5.000    2.051   2.051           -0.000      0.897
    155       Ga     2      13.000    6.934   6.935           -0.001     -0.869
    156       N      1       5.000    2.056   2.056           -0.000      0.888
    157       Ga     2      13.000    6.937   6.938           -0.001     -0.875
    158       N      1       5.000    2.061   2.062           -0.001      0.876
    159       Ga     2      13.000    6.945   6.946           -0.001     -0.891
    160       N      1       5.000    2.063   2.061            0.002      0.875
    161       Ga     2      13.000    6.950   6.950           -0.000     -0.900
    162       N      1       5.000    2.053   2.051            0.002      0.896
    163       Ga     2      13.000    6.859   6.856            0.002     -0.715
    164       N      1       5.000    2.097   2.099           -0.003      0.804
    165       Ga     2      13.000    6.958   6.959           -0.001     -0.917
    166       N      1       5.000    2.050   2.050           -0.000      0.900
    167       Ga     2      13.000    6.941   6.944           -0.003     -0.885
    168       N      1       5.000    2.060   2.061           -0.001      0.879
    169       Ga     2      13.000    6.937   6.938           -0.001     -0.875
    170       N      1       5.000    2.062   2.062           -0.000      0.876
    171       Ga     2      13.000    6.939   6.940           -0.001     -0.879
    172       N      1       5.000    2.059   2.059           -0.000      0.882
    173       Ga     2      13.000    6.951   6.950            0.001     -0.901
    174       N      1       5.000    2.055   2.045            0.010      0.899
    175       Ga     2      13.000    6.916   6.910            0.006     -0.826
    176       N      1       5.000    2.215   2.221           -0.006      0.564
    177       Ga     2      13.000    6.981   6.982           -0.001     -0.963
    178       N      1       5.000    2.050   2.049            0.000      0.901
    179       Ga     2      13.000    6.936   6.938           -0.002     -0.874
    180       N      1       5.000    2.055   2.057           -0.001      0.888
    181       Ga     2      13.000    6.940   6.942           -0.001     -0.882
    182       N      1       5.000    2.060   2.061           -0.001      0.878
    183       Ga     2      13.000    6.946   6.947           -0.001     -0.893
    184       N      1       5.000    2.062   2.061            0.001      0.876
    185       Ga     2      13.000    6.950   6.950           -0.000     -0.900
    186       N      1       5.000    2.053   2.049            0.004      0.898
    187       Ga     2      13.000    6.859   6.858            0.001     -0.716
    188       N      1       5.000    2.096   2.098           -0.002      0.806
    189       Ga     2      13.000    6.979   6.980           -0.001     -0.959
    190       N      1       5.000    2.050   2.050            0.000      0.901
    191       Ga     2      13.000    6.943   6.946           -0.003     -0.889
    192       N      1       5.000    2.059   2.060           -0.001      0.880
    193       Ga     2      13.000    6.940   6.941           -0.001     -0.880
    194       N      1       5.000    2.061   2.061           -0.000      0.878
    195       Ga     2      13.000    6.939   6.940           -0.001     -0.879
    196       N      1       5.000    2.059   2.059           -0.000      0.882
    197       Ga     2      13.000    6.950   6.950            0.000     -0.901
    198       N      1       5.000    2.054   2.047            0.007      0.900
    199       Ga     2      13.000    6.918   6.914            0.004     -0.832
    200       O      3       6.000    3.017   3.018           -0.001     -0.035
    201       H      4       1.000    0.234   0.234           -0.000      0.533
    202       C      5       4.000    2.439   2.439           -0.000     -0.877
    203       H      4       1.000    0.280   0.280           -0.000      0.439
    204       H      4       1.000    0.281   0.281           -0.000      0.437
    205       H      4       1.000    0.281   0.281           -0.000      0.438
    206       Ga     2      13.000    6.950   6.952           -0.002     -0.902
    207       O      3       6.000    3.195   3.196           -0.001     -0.392
    208       H      4       1.000    0.217   0.217           -0.000      0.566
    209       C      5       4.000    2.366   2.374           -0.008     -0.740
    210       H      4       1.000    0.281   0.281           -0.000      0.438
    211       H      4       1.000    0.221   0.221           -0.000      0.558
    212       H      4       1.000    0.274   0.274           -0.000      0.452

  Total Charge                                                            0.003
 !-----------------------------------------------------------------------------!

 ENERGY| Total FORCE_EVAL ( QS ) energy (a.u.):            -8504.681707391393502


 --------  Informations at step =    89 ------------
  Optimization Method        =                 BFGS
  Total Energy               =     -8504.6817073914
  Real energy change         =         0.0001872898
  Predicted change in energy =        -0.0001380732
  Scaling factor             =         0.0803125613
  Step size                  =         0.0148520943
  Trust radius               =         0.4724315332
  Decrease in energy         =                   NO
  Used time                  =              482.196

  Convergence check :
  Max. step size             =         0.0148520943
  Conv. limit for step size  =         0.0030000000
  Convergence in step size   =                   NO
  RMS step size              =         0.0025149860
  Conv. limit for RMS step   =         0.0015000000
  Convergence in RMS step    =                   NO
  Max. gradient              =         0.0024205949
  Conv. limit for gradients  =         0.0004500000
  Conv. for gradients        =                   NO
  RMS gradient               =         0.0004740661
  Conv. limit for RMS grad.  =         0.0003000000
  Conv. for gradients        =                   NO
 ---------------------------------------------------

 --------------------------
 OPTIMIZATION STEP:     90
 --------------------------

 Spin 1

 Number of electrons:                                                        914
 Number of occupied orbitals:                                                914
 Number of molecular orbitals:                                               914

 Spin 2

 Number of electrons:                                                        914
 Number of occupied orbitals:                                                914
 Number of molecular orbitals:                                               914

 Number of orbital functions:                                               3892
 Number of independent orbital functions:                                   3892

 Parameters for the always stable predictor-corrector (ASPC) method:

  ASPC order: 3

  B(1) =   3.000000
  B(2) =  -3.428571
  B(3) =   1.928571
  B(4) =  -0.571429
  B(5) =   0.071429

 Parameters for the always stable predictor-corrector (ASPC) method:

  ASPC order: 3

  B(1) =   3.000000
  B(2) =  -3.428571
  B(3) =   1.928571
  B(4) =  -0.571429
  B(5) =   0.071429

 Extrapolation method: ASPC


 SCF WAVEFUNCTION OPTIMIZATION

  ----------------------------------- OT ---------------------------------------
  Minimizer      : CG                  : conjugate gradient
  Preconditioner : FULL_ALL            : diagonalization, state selective
  Precond_solver : DEFAULT
  Line search    : 2PNT                : 2 energies, one gradient
  stepsize       :    0.15000000                  energy_gap     :    0.08000000
  eps_taylor     :   0.10000E-15                  max_taylor     :             4
  ----------------------------------- OT ---------------------------------------

  Step     Update method      Time    Convergence         Total energy    Change
  ------------------------------------------------------------------------------
     1 OT CG       0.15E+00   29.8     0.00019291     -8504.6694425875 -8.50E+03
     2 OT LS       0.80E-01    8.0                    -8504.6719060783
     3 OT CG       0.80E-01   16.5     0.00003346     -8504.6800251531 -1.06E-02
     4 OT LS       0.25E+00    8.6                    -8504.6805589722
     5 OT CG       0.25E+00   18.9     0.00003070     -8504.6810143348 -9.89E-04
     6 OT LS       0.17E+00    8.5                    -8504.6814277214
     7 OT CG       0.17E+00   19.0     0.00001514     -8504.6815696429 -5.55E-04
     8 OT LS       0.18E+00    8.5                    -8504.6817142568
     9 OT CG       0.18E+00   19.0     0.00001142     -8504.6817150492 -1.45E-04
    10 OT LS       0.25E+00    8.6                    -8504.6818205793
    11 OT CG       0.25E+00   18.6     0.00001138     -8504.6818290348 -1.14E-04
    12 OT LS       0.19E+00    8.8                    -8504.6819110164
    13 OT CG       0.19E+00   19.1     0.00000941     -8504.6819174134 -8.84E-05
    14 OT LS       0.30E+00    8.6                    -8504.6819998613
    15 OT CG       0.30E+00   19.0     0.00000727     -8504.6820114447 -9.40E-05
