     212
 i =        1, E =     -8503.6799444939
  N         0.0022697672        2.0475555794        2.4621053359
 Ga         0.0209870064        0.0868488580        2.7954505041
  N        -0.0091128482        0.0537258288        4.9760919888
 Ga         0.0041819175        1.8853184999        5.7475161912
  N        -0.0009094987        1.8924405314        7.7523950119
 Ga         0.0006634435        0.0482648631        8.3956207151
  N        -0.0022944634        0.0448335288       10.3736344744
 Ga        -0.0023748877        1.8838803779       11.0246376460
  N        -0.0039786110        1.8638816760       13.0241745360
 Ga        -0.0050128555        0.0389960801       13.8224914426
  N        -0.0040988003        0.0388958917       16.0288166328
 Ga        -0.0044630990        2.0571159683       16.4170727531
 Ga        -0.0136816432        3.7138059286        1.2565168951
  N        -1.4717077301        4.6215271419        2.4457710535
 Ga        -1.6668852701        2.7924076173        3.2272735870
  N        -1.6115703778        2.8321524083        5.2098954374
 Ga        -1.6301027204        4.6971499314        5.7587879604
  N        -1.6171855297        4.6948825144        7.7563452723
 Ga        -1.5963831937        2.8363691855        8.3923696635
  N        -1.5991271626        2.8375048886       10.3888843293
 Ga        -1.6274343286        4.6958675739       11.0260776978
  N        -1.6449321614        4.7064295719       13.0238603381
 Ga        -1.6012517537        2.8368892730       13.5757128756
  N        -1.6252898578        2.8260343421       15.5461940537
 Ga        -1.4696011687        4.6054722740       16.4179948486
  N         0.0047327987        3.7539902545       17.5416276190
  N        -3.2535202865        7.5860024509        2.4629431094
 Ga        -3.1829333159        5.6047039995        2.7988892632
  N        -3.2120639380        5.6052178073        4.9788405671
 Ga        -3.2352750298        7.4375408548        5.7409815827
  N        -3.2216235992        7.4625924112        7.7454450146
 Ga        -3.2166034706        5.6162474081        8.3991920477
  N        -3.2192927076        5.6172183597       10.3752179727
 Ga        -3.2213120503        7.4560266563       11.0259104240
  N        -3.2211582502        7.4374114244       13.0199982746
 Ga        -3.2237920633        5.6187238141       13.8187957724
  N        -3.2234561304        5.6179493655       16.0283992281
 Ga        -3.2218583071        7.6625023682       16.4410187226
 Ga        -3.2511319732        9.3543713763        1.2546316865
  N        -4.7428236901       10.1637021735        2.4700228373
 Ga        -5.0439272760        8.2748314004        3.1136288604
  N        -4.8419473018        8.3893837431        5.1326376383
 Ga        -4.8563848135       10.2644423619        5.7293674137
  N        -4.8381387055       10.2592334034        7.7415529668
 Ga        -4.8178740251        8.4087117025        8.3927339573
  N        -4.8165290194        8.4074929203       10.3872445146
 Ga        -4.8421597376       10.2664518847       11.0236628966
  N        -4.8594816575       10.2751070631       13.0189141944
 Ga        -4.8182010240        8.4077900330       13.5782879870
  N        -4.8440577048        8.3922181567       15.5395001717
 Ga        -4.6634246066       10.1611440026       16.4412311377
  N        -3.2108972241        9.3312616226       17.5758327318
  N         3.2054127501        1.8985595756        2.5685941823
 Ga         3.1946865953        0.1313723904        3.2040444269
  N         3.2126600874        0.0429449953        5.1904195855
 Ga         3.2001409575        1.9020792898        5.8181382275
  N         3.2105778091        1.9009382266        7.8009846410
 Ga         3.2091639697        0.0343772254        8.3840662963
  N         3.2114708945        0.0313827906       10.3830724207
 Ga         3.2123051823        1.8997957623       10.9817109991
  N         3.2114193368        1.9013232934       12.9572384069
 Ga         3.2107997993        0.0316110823       13.5788890783
  N         3.2074127565        0.0649014645       15.5410199673
 Ga         3.2125228894        1.9016392864       15.8218438122
  N         1.4910552153        4.6338300225        2.3814130540
 Ga         1.6851563092        2.8036260810        3.2067890701
  N         1.6071755550        2.8420773217        5.1923547251
 Ga         1.6537142931        4.7065336068        5.7617671380
  N         1.6090507529        4.6917523877        7.7673697784
 Ga         1.5952220817        2.8354223286        8.3926707741
  N         1.5943607945        2.8358617994       10.3909449406
 Ga         1.6211818855        4.6952145210       11.0265868165
  N         1.6371396005        4.7066404402       13.0257623463
 Ga         1.5932078200        2.8368480708       13.5751934596
  N         1.6160627165        2.8240272758       15.5471595340
 Ga         1.4696019598        4.6109612910       16.4170314608
  N        -0.0152568839        7.4692270464        2.6493927938
 Ga         0.0199388187        5.6021411477        3.2592408529
  N         0.0052345614        5.6269034874        5.2009606124
 Ga        -0.0119808039        7.4608262442        5.8595403441
  N        -0.0057486399        7.4707028166        7.8195527032
 Ga        -0.0019397302        5.5991393572        8.4046493529
  N        -0.0039906777        5.6037558653       10.3964241056
 Ga        -0.0053078392        7.4731800811       10.9873563239
  N        -0.0052886316        7.4726449421       12.9600506041
 Ga        -0.0041547051        5.6036232213       13.5759005491
  N        -0.0065464745        5.6300723426       15.5462851329
 Ga        -0.0033337837        7.4753608983       15.8210059463
  N        -1.7100719961       10.1929317826        2.4673865341
 Ga        -1.6374069270        8.3920387750        3.2550795224
  N        -1.6021265722        8.3915364104        5.1986624633
 Ga        -1.5920446534       10.2761477767        5.7556056682
  N        -1.6021791679       10.2605293019        7.7516966037
 Ga        -1.6262891673        8.4072416594        8.3968773862
  N        -1.6243965360        8.4070560683       10.3894635335
 Ga        -1.5997443227       10.2668099344       11.0271448498
  N        -1.5810267022       10.2763025643       13.0227503134
 Ga        -1.6249056892        8.4080798940       13.5798715003
  N        -1.5979632233        8.3882633781       15.5426138736
 Ga        -1.7680908638       10.1684243918       16.4399830958
  N         6.4370826471        2.0148257255        2.5154269795
 Ga         6.4064529285        0.0430317806        2.8453348387
  N         6.4320952115        0.0443929824        4.9898406826
 Ga         6.4264932645        1.8752095071        5.7682121777
  N         6.4293808800        1.8891101351        7.7624446433
 Ga         6.4256711969        0.0449151566        8.4060361648
  N         6.4270376469        0.0440465188       10.3790820279
 Ga         6.4278403452        1.8846764679       11.0283605208
  N         6.4283528728        1.8650762474       13.0243117743
 Ga         6.4299895761        0.0438263343       13.8309631041
  N         6.4296821937        0.0437980109       16.0288464423
 Ga         6.4274386672        2.0797444199       16.4382271277
 Ga         6.4552504163        3.7221785669        1.5027528450
  N         4.9463682853        4.6030938815        2.4826072780
 Ga         4.7028595439        2.7662005711        3.2643643418
  N         4.8215363369        2.8278738122        5.2199141730
 Ga         4.7777977413        4.7080038275        5.7646285996
  N         4.8164926942        4.6894782025        7.7709700455
 Ga         4.8274282376        2.8328190530        8.3951462109
  N         4.8307471159        2.8349953180       10.3914726639
 Ga         4.8058473679        4.6954678433       11.0252261958
  N         4.7896021037        4.7061066461       13.0211343464
 Ga         4.8308781006        2.8378996716       13.5779365673
  N         4.8006707237        2.8244370067       15.5409331692
 Ga         4.9853935779        4.5931233013       16.4396016536
  N         6.4313167363        3.7491066601       17.5728875906
  N         3.2007923604        7.6243687693        2.4974586629
  N         3.2162166532        5.6199567251        5.0356874519
 Ga         3.2163385448        7.4168095465        5.7757770175
  N         3.2106680057        7.4694700715        7.7741246795
 Ga         3.2120741565        5.6139280501        8.4014998498
  N         3.2129099681        5.6166239015       10.3797185956
 Ga         3.2136579032        7.4555747995       11.0288098773
  N         3.2129668563        7.4382142843       13.0222204569
 Ga         3.2170899791        5.6209732333       13.8228741383
  N         3.2176960478        5.6197678679       16.0294691603
 Ga         3.2130416913        7.6761422119       16.4596668230
 Ga         3.2256496140        9.3648088025        1.4832252297
  N         1.7033662743       10.1945961790        2.4975006711
 Ga         1.5651323523        8.3789889797        3.3123625889
  N         1.5893617106        8.3969081727        5.2304935139
 Ga         1.5765051053       10.2800273899        5.7787386575
  N         1.5945562131       10.2627344735        7.7653195269
 Ga         1.6135563644        8.4077349479        8.4077827328
  N         1.6136802182        8.4078725156       10.3970150002
 Ga         1.5889939266       10.2675675557       11.0317068224
  N         1.5726939904       10.2765925496       13.0242848439
 Ga         1.6160810386        8.4081923123       13.5837459697
  N         1.5866862679        8.3900909084       15.5424862905
 Ga         1.7788683806       10.1572319586       16.4596641908
  N         3.2141520808        9.3290505829       17.6057146989
  N         9.6619487347        1.9110993547        2.5805535355
 Ga         9.6563010312        0.1783809035        3.2660479609
  N         9.6412361995        0.0455317912        5.2218252125
 Ga         9.6584927831        1.9082565274        5.8430692054
  N         9.6475734542        1.9021980297        7.8151327908
 Ga         9.6465533691        0.0356525068        8.4007511976
  N         9.6449095656        0.0321365525       10.3924685926
 Ga         9.6461929848        1.9026673732       10.9831894658
  N         9.6453954770        1.9031237012       12.9575309421
 Ga         9.6451083691        0.0320200446       13.5832387460
  N         9.6455238416        0.0662699037       15.5420761550
 Ga         9.6430327941        1.9004668663       15.8218154315
  N         7.9300060933        4.6243872746        2.5015027791
 Ga         8.1575897714        2.7700889535        3.2748435539
  N         8.0413188755        2.8250237658        5.2284448055
 Ga         8.0669894627        4.7010642903        5.7630472789
  N         8.0480357146        4.6927042210        7.7606136961
 Ga         8.0282028072        2.8348379575        8.3974758024
  N         8.0258710481        2.8368062214       10.3914553809
 Ga         8.0519255610        4.6964159148       11.0257857107
  N         8.0676834008        4.7062974191       13.0207215637
 Ga         8.0252234496        2.8379121690       13.5787809718
  N         8.0547552099        2.8243235471       15.5425314119
 Ga         7.8719293933        4.5940516777       16.4395208194
  N         6.2844949897        7.3911060792        2.2272763349
 Ga         6.4223894626        5.7575548146        3.2459307911
  N         6.4300135224        5.6161335897        5.2039320172
 Ga         6.4341247779        7.4742333349        5.8384359894
  N         6.4278733652        7.4717802270        7.8128506786
 Ga         6.4294115940        5.6014135886        8.4013335058
  N         6.4299979005        5.6044665962       10.3940912326
 Ga         6.4301940784        7.4732984318       10.9849961665
  N         6.4293219939        7.4730383637       12.9565334028
 Ga         6.4281640323        5.6043139802       13.5775352438
  N         6.4280512289        5.6341059313       15.5396680230
 Ga         6.4270045821        7.4735553331       15.8183102194
  N         4.7189540647       10.1946773598        2.4957564485
 Ga         4.9498387352        8.3257781720        3.2538284588
  N         4.8187209926        8.4030597800        5.2081942611
 Ga         4.8520217192       10.2797062533        5.7650518590
  N         4.8304623715       10.2647335601        7.7610817122
 Ga         4.8107582765        8.4097115185        8.4027385344
  N         4.8116428104        8.4078761998       10.3945021848
 Ga         4.8371596376       10.2669896098       11.0276047532
  N         4.8517118438       10.2756321260       13.0209769898
 Ga         4.8099017075        8.4079544898       13.5825872810
  N         4.8376814545        8.3913947567       15.5417810882
 Ga         4.6451251596       10.1561629287       16.4595364561
  O         0.1032154428        3.6923791546       -0.5623896874
  H        -0.0007322545        7.4749214924        1.6229963384
  C         0.1879096306        2.3949353585       -1.1721702425
  H         1.0044724140        1.7817627078       -0.7551817897
  H        -0.7518859394        1.8274831473       -1.0741787632
  H         0.3860056072        2.5524743945       -2.2427071335
 Ga         3.2119297494        5.6075753160        2.4207153464
  O         3.7700672628        6.0805817299        0.2074021252
  H         3.5135921474        5.3850263516       -0.4293490178
  C         5.1494128291        6.6271230343        0.1147305192
  H         5.0496091134        7.3338763520       -0.7459083826
  H         5.6520428312        7.0018235563        1.1236869199
  H         5.7043714279        5.7956270535       -0.3867310357
     212
 i =        2, E =     -8504.6990718534
  N         0.0033424097        2.0466383147        2.4600510254
 Ga         0.0132536682        0.0926520737        2.8006565388
  N        -0.0062661241        0.0506016462        4.9744864408
 Ga         0.0043959219        1.8832905663        5.7457727541
  N        -0.0007184407        1.8912022060        7.7505189453
 Ga         0.0015944729        0.0463294943        8.3957086584
  N        -0.0023610635        0.0453127266       10.3728114623
 Ga        -0.0022797835        1.8844027548       11.0259648928
  N        -0.0041252267        1.8644848628       13.0224353529
 Ga        -0.0050378945        0.0413066626       13.8239458279
  N        -0.0016209797        0.0443694399       16.0266307010
 Ga        -0.0039644374        2.0690007864       16.4241106657
 Ga        -0.0138499785        3.7134358257        1.2612177849
  N        -1.4715134427        4.6228029258        2.4441310266
 Ga        -1.6657853661        2.7926410032        3.2253816961
  N        -1.6110492535        2.8324692881        5.2075495596
 Ga        -1.6315624121        4.6983029520        5.7571851308
  N        -1.6181462966        4.6957641801        7.7545938328
 Ga        -1.5962871536        2.8364341820        8.3938870716
  N        -1.5991952068        2.8375567830       10.3890743011
 Ga        -1.6272138816        4.6957684654       11.0274733726
  N        -1.6447494470        4.7061903416       13.0219500552
 Ga        -1.6017391938        2.8368625889       13.5747756357
  N        -1.6275371958        2.8238701036       15.5404833022
 Ga        -1.4602206318        4.5999713492       16.4244727755
  N         0.0044510399        3.7540565164       17.5633131523
  N        -3.2311922091        7.5706668258        2.4489062105
 Ga        -3.1818233297        5.5954230179        2.8031442088
  N        -3.2132417780        5.6093390744        4.9772568380
 Ga        -3.2365051718        7.4376760234        5.7400627947
  N        -3.2227127736        7.4637864670        7.7399811330
 Ga        -3.2177251090        5.6181461414        8.3994734186
  N        -3.2190021359        5.6168715644       10.3743115293
 Ga        -3.2210154820        7.4558147237       11.0267406787
  N        -3.2206747262        7.4360886270       13.0194286828
 Ga        -3.2221334678        5.6173075163       13.8212298804
  N        -3.2200716626        5.6159737699       16.0250561204
 Ga        -3.2206274591        7.6626197408       16.4435133030
 Ga        -3.2539457350        9.3524107450        1.2735705280
  N        -4.7458254949       10.1912515678        2.4564339281
 Ga        -4.9439324099        8.3326807885        3.1602188206
  N        -4.8429197537        8.3889411943        5.1544991477
 Ga        -4.8571681119       10.2633006445        5.7283630595
  N        -4.8377191969       10.2576496896        7.7359488188
 Ga        -4.8178401190        8.4087224232        8.3928571969
  N        -4.8162446132        8.4075674862       10.3854271889
 Ga        -4.8419374755       10.2667283891       11.0244586613
  N        -4.8600798557       10.2759955254       13.0185006153
 Ga        -4.8175279990        8.4079664393       13.5787796051
  N        -4.8451985223        8.3926200093       15.5396202611
 Ga        -4.6614637892       10.1620711445       16.4442760117
  N        -3.2119319004        9.3302425873       17.5766960907
  N         3.2044164025        1.8970927490        2.5690962565
 Ga         3.1964002975        0.1339290766        3.2076004444
  N         3.2105473191        0.0392662550        5.1891423150
 Ga         3.2003204768        1.9001212963        5.8167065630
  N         3.2110163002        1.8996617937        7.7985186672
 Ga         3.2080062659        0.0331800671        8.3847782490
  N         3.2118598220        0.0315386031       10.3819066530
 Ga         3.2123792336        1.9000444806       10.9821266642
  N         3.2116952498        1.9015131384       12.9545258473
 Ga         3.2110747004        0.0328367750       13.5789525644
  N         3.2086970596        0.0654924751       15.5392876093
 Ga         3.2125393324        1.9017802383       15.8241124672
  N         1.4904167393        4.6334880605        2.3800533596
 Ga         1.6846542853        2.8043286211        3.2057018821
  N         1.6076399768        2.8411974527        5.1902593514
 Ga         1.6544421167        4.7069305792        5.7605324841
  N         1.6094802105        4.6920307546        7.7661033386
 Ga         1.5956959742        2.8350289174        8.3940826755
  N         1.5942929655        2.8360018684       10.3907401998
 Ga         1.6210172482        4.6950490436       11.0278042702
  N         1.6367844361        4.7064650893       13.0238713606
 Ga         1.5937914690        2.8365574816       13.5741169966
  N         1.6184370474        2.8225595347       15.5408781075
 Ga         1.4595602726        4.6044942757       16.4240641558
  N        -0.0171028693        7.4695246713        2.6496671307
 Ga         0.0205797702        5.6016945161        3.2580966728
  N         0.0047288308        5.6279704825        5.1988039501
 Ga        -0.0133083199        7.4620467019        5.8581351545
  N        -0.0066920218        7.4717303394        7.8171940062
 Ga        -0.0020052515        5.5997396693        8.4059764533
  N        -0.0040031607        5.6036834147       10.3963878086
 Ga        -0.0051663566        7.4730912951       10.9881234925
  N        -0.0044849088        7.4731318122       12.9586627144
 Ga        -0.0043382654        5.6036967763       13.5749739065
  N        -0.0058763193        5.6330650744       15.5406431267
 Ga        -0.0025710114        7.4756096993       15.8222577768
  N        -1.7100420822       10.1930000541        2.4676111492
 Ga        -1.6348515303        8.3922328100        3.2577864416
  N        -1.6059352633        8.3912957487        5.1974958089
 Ga        -1.5939152165       10.2749949559        5.7560676236
  N        -1.6028321994       10.2600576298        7.7496801933
 Ga        -1.6279560348        8.4068448232        8.3975405537
  N        -1.6240995751        8.4072417753       10.3884358709
 Ga        -1.5996333084       10.2669293807       11.0283460709
  N        -1.5805623094       10.2765232965       13.0222536240
 Ga        -1.6243480690        8.4078173671       13.5800998895
  N        -1.5960592489        8.3897539159       15.5414592196
 Ga        -1.7707110421       10.1675816431       16.4428850740
  N         6.4363440985        2.0158700849        2.5140074526
 Ga         6.4098927847        0.0448056776        2.8455785878
  N         6.4295129058        0.0427704861        4.9896366253
 Ga         6.4263155280        1.8758664696        5.7673985270
  N         6.4292345906        1.8887965932        7.7611631017
 Ga         6.4250803986        0.0445735246        8.4073003191
  N         6.4271479501        0.0442183740       10.3790259637
 Ga         6.4277468701        1.8847511280       11.0297306356
  N         6.4285098135        1.8650205493       13.0236532350
 Ga         6.4300384315        0.0443380964       13.8316792439
  N         6.4273178442        0.0452537301       16.0272717803
 Ga         6.4269696096        2.0825918192       16.4407095846
 Ga         6.4554195360        3.7253067304        1.5032610202
  N         4.9430559464        4.6010382967        2.4819265683
 Ga         4.7021756660        2.7657657625        3.2644963125
  N         4.8206988709        2.8286678263        5.2192623251
 Ga         4.7799303183        4.7099312908        5.7624069710
  N         4.8175075088        4.6899720629        7.7678908317
 Ga         4.8272549433        2.8334443685        8.3961272147
  N         4.8310497772        2.8347866928       10.3908618483
 Ga         4.8056800318        4.6951401209       11.0261007679
  N         4.7886770327        4.7060987361       13.0204532607
 Ga         4.8303085827        2.8373284639       13.5779292201
  N         4.8009500395        2.8230152731       15.5389308408
 Ga         4.9857337905        4.5908832707       16.4422392015
  N         6.4317696186        3.7505029471       17.5738141222
  N         3.1942448751        7.6211198840        2.4947449159
  N         3.2174781271        5.6208824446        5.0343478034
 Ga         3.2187248888        7.4176991345        5.7736180823
  N         3.2116179544        7.4701078526        7.7707315634
 Ga         3.2131670155        5.6146419593        8.4021941498
  N         3.2126709076        5.6163564197       10.3793963842
 Ga         3.2133592517        7.4553460470       11.0295833390
  N         3.2125006372        7.4376805805       13.0221847595
 Ga         3.2154872608        5.6196130730       13.8240616471
  N         3.2142750798        5.6148708503       16.0269736677
 Ga         3.2117472531        7.6678164292       16.4576416493
 Ga         3.2285732600        9.3641263177        1.4837335987
  N         1.7038903164       10.1933054059        2.4965778288
 Ga         1.5644221578        8.3787729238        3.3128628531
  N         1.5897133047        8.3957922339        5.2300519413
 Ga         1.5772318053       10.2795133088        5.7777542836
  N         1.5941791156       10.2627204325        7.7639354478
 Ga         1.6141139675        8.4072282340        8.4083701573
  N         1.6135830123        8.4082188852       10.3964707092
 Ga         1.5888509355       10.2676415908       11.0329777064
  N         1.5728841075       10.2766423308       13.0242913247
 Ga         1.6157610363        8.4082586072       13.5846524445
  N         1.5887465108        8.3930648119       15.5442120954
 Ga         1.7730962395       10.1606731973       16.4576659392
  N         3.2154146943        9.3285072593       17.5975788606
  N         9.6622625120        1.9109797667        2.5814921084
 Ga         9.6571130956        0.1777284385        3.2656640397
  N         9.6430666696        0.0441509902        5.2206912362
 Ga         9.6582873168        1.9078504049        5.8420810615
  N         9.6471166945        1.9019924354        7.8139611441
 Ga         9.6473944988        0.0347692089        8.4015250670
  N         9.6445341013        0.0322101513       10.3921616826
 Ga         9.6462022603        1.9027306274       10.9841143972
  N         9.6451669008        1.9023305849       12.9561025159
 Ga         9.6448588559        0.0326665859       13.5841851534
  N         9.6440763044        0.0630654174       15.5437946609
 Ga         9.6431146102        1.8997467208       15.8227244842
  N         7.9320067662        4.6259223929        2.5003969764
 Ga         8.1575802703        2.7710648106        3.2741613694
  N         8.0411833091        2.8270426696        5.2274066931
 Ga         8.0656274237        4.7037324764        5.7602663607
  N         8.0475955286        4.6937115482        7.7569189554
 Ga         8.0278226425        2.8359088709        8.3986164293
  N         8.0257737965        2.8365082534       10.3912901023
 Ga         8.0520827686        4.6962165494       11.0268189711
  N         8.0688013284        4.7062255294       13.0200372052
 Ga         8.0257262730        2.8375540820       13.5788776395
  N         8.0544214265        2.8219577531       15.5410079942
 Ga         7.8724317047        4.5928112215       16.4416336677
  N         6.3821605803        7.4724768596        2.3902181943
 Ga         6.4218916384        5.7554436163        3.2440036026
  N         6.4304757695        5.6216717824        5.1998513972
 Ga         6.4334114686        7.4736489580        5.8408309310
  N         6.4289710651        7.4724327234        7.8096777466
 Ga         6.4295177426        5.6027311650        8.4016852262
  N         6.4300115781        5.6039372980       10.3928939412
 Ga         6.4301018527        7.4731433538       10.9852722917
  N         6.4285227822        7.4731946107       12.9561713389
 Ga         6.4283210693        5.6032192848       13.5779036032
  N         6.4272352192        5.6348210285       15.5395338079
 Ga         6.4262688495        7.4738754286       15.8224501216
  N         4.7212399094       10.1995787208        2.4931294216
 Ga         4.9292164846        8.3384130518        3.2612368193
  N         4.8233611454        8.4010106561        5.2095914341
 Ga         4.8537585887       10.2777159375        5.7621173339
  N         4.8310915813       10.2638109365        7.7568385628
 Ga         4.8118848519        8.4092262483        8.4027464214
  N         4.8111818348        8.4080797339       10.3931731675
 Ga         4.8370268174       10.2672183192       11.0285035067
  N         4.8517100809       10.2763506259       13.0210934570
 Ga         4.8089841965        8.4084824212       13.5837720573
  N         4.8348501685        8.3931217618       15.5448394035
 Ga         4.6517601309       10.1615751446       16.4574772589
  O         0.1028193775        3.6904385855       -0.5564172654
  H         0.0001675258        7.4745793035        1.6240904647
  C         0.1875283309        2.3961924199       -1.1723937255
  H         1.0030163520        1.7827581919       -0.7557681960
  H        -0.7507469190        1.8278674861       -1.0740456029
  H         0.3855862624        2.5509314711       -2.2426136562
 Ga         3.2095709172        5.6053928041        2.4261561842
  O         3.7239762781        6.0745168249        0.2282543878
  H         3.5251457330        5.3879797872       -0.4301051671
  C         5.0897827240        6.5728795856       -0.0028278606
  H         5.0563749283        7.3714904961       -0.7586042865
  H         5.5186937707        6.8872732688        1.0372592780
  H         5.7392644710        5.7710208609       -0.3875129068
     212
 i =        3, E =     -8504.7020665125
  N         0.0031188417        2.0468137287        2.4601311096
 Ga         0.0121313453        0.0923265881        2.8000822757
  N        -0.0069729290        0.0504497479        4.9731958463
 Ga         0.0046489794        1.8838267899        5.7462362032
  N        -0.0007682833        1.8909602159        7.7498738533
 Ga         0.0008210415        0.0461817556        8.3958081274
  N        -0.0022974056        0.0449255525       10.3716828668
 Ga        -0.0022556960        1.8841770410       11.0261830799
  N        -0.0040855675        1.8649500045       13.0206604724
 Ga        -0.0041160876        0.0429113238       13.8257361901
  N        -0.0017521034        0.0448358330       16.0269423691
 Ga        -0.0035324795        2.0739316498       16.4288377398
 Ga        -0.0128707358        3.7138609523        1.2601734424
  N        -1.4713721567        4.6225491176        2.4438378005
 Ga        -1.6666297921        2.7923343876        3.2254418884
  N        -1.6113485456        2.8323846534        5.2071101523
 Ga        -1.6315591477        4.6984472804        5.7574409951
  N        -1.6183849297        4.6957895576        7.7538116615
 Ga        -1.5964941261        2.8362834413        8.3940988572
  N        -1.5992297741        2.8374698779       10.3879488393
 Ga        -1.6273187706        4.6958250779       11.0279393335
  N        -1.6444889171        4.7060822412       13.0206320659
 Ga        -1.6017866941        2.8367747008       13.5762724914
  N        -1.6269144953        2.8236518531       15.5394277222
 Ga        -1.4570024286        4.5980327936       16.4289193272
  N         0.0039052618        3.7545966792       17.5694983630
  N        -3.2324128738        7.5749706149        2.4495837078
 Ga        -3.1810751940        5.5951098987        2.8035068915
  N        -3.2142171320        5.6086160880        4.9758584572
 Ga        -3.2374666867        7.4366223688        5.7406097325
  N        -3.2231326738        7.4638191435        7.7393524385
 Ga        -3.2187266247        5.6172835930        8.3990039256
  N        -3.2190654779        5.6172874898       10.3728061199
 Ga        -3.2209106545        7.4557057181       11.0283626219
  N        -3.2206165908        7.4361578642       13.0198281434