 DBCSR| Multiplication driver                                               BLAS
 DBCSR| Multrec recursion limit                                              512
 DBCSR| Multiplication stack size                                           1000
 DBCSR| Maximum elements for images                                    UNLIMITED
 DBCSR| Multiplicative factor virtual images                                   1
 DBCSR| Multiplication size stacks                                             3
 DBCSR| Number of 3D layers                                               SINGLE
 DBCSR| Use MPI memory allocation                                              T
 DBCSR| Use RMA algorithm                                                      F
 DBCSR| Use Communication thread                                               T
 DBCSR| Communication thread load                                             87


  **** **** ******  **  PROGRAM STARTED AT               2019-05-15 18:23:04.658
 ***** ** ***  *** **   PROGRAM STARTED ON        blg8418.int.ets1.calculquebec.
 **    ****   ******    PROGRAM STARTED BY                                   rzk
 ***** **    ** ** **   PROGRAM PROCESS ID                                304583
  **** **  *******  **  PROGRAM STARTED IN /lustre03/project/6004141/rzk/GaN-car
                                           bene/00-Surface/00-Preoptimization/11
                                           4-native/Trial6

 CP2K| version string:                    CP2K version 7.0 (Development Version)
 CP2K| source code revision number:                                    svn:18619
 CP2K| cp2kflags: libint fftw3 libxc parallel mpi3 scalapack mkl                
 CP2K| is freely available from                            https://www.cp2k.org/
 CP2K| Program compiled at                          Sun Apr  7 00:48:11 EDT 2019
 CP2K| Program compiled on                      beluga2.int.ets1.calculquebec.ca
 CP2K| Program compiled for                    Beluga-Linux-x86-64-intel-openmpi
 CP2K| Data directory path    /home/rzk/projects/def-rzk/group/cp2k/cp2k-mcgill/
 CP2K| Input file name                                            114-native.inp
 
 GLOBAL| Force Environment number                                              1
 GLOBAL| Basis set file name                                        BASIS_MOLOPT
 GLOBAL| Potential file name                                      GTH_POTENTIALS
 GLOBAL| MM Potential file name                                     MM_POTENTIAL
 GLOBAL| Coordinate file name                                     114-native.xyz
 GLOBAL| Method name                                                        CP2K
 GLOBAL| Project name                                                       TEST
 GLOBAL| Preferred FFT library                                             FFTW3
 GLOBAL| Preferred diagonalization lib.                                       SL
 GLOBAL| Run type                                                       CELL_OPT
 GLOBAL| All-to-all communication in single precision                          F
 GLOBAL| FFTs using library dependent lengths                                  F
 GLOBAL| Global print level                                                  LOW
 GLOBAL| MPI I/O enabled                                                       T
 GLOBAL| Total number of message passing processes                            40
 GLOBAL| Number of threads for this process                                    1
 GLOBAL| This output is from process                                           0
 GLOBAL| CPU model name :  Intel(R) Xeon(R) Gold 6148 CPU @ 2.40GHz

 MEMORY| system memory details [Kb]
 MEMORY|                        rank 0           min           max       average
 MEMORY| MemTotal             97523924      97523924      97523924      97523924
 MEMORY| MemFree              82750260      82749764      82750260      82749962
 MEMORY| Buffers                     0             0             0             0
 MEMORY| Cached                1409988       1409988       1409988       1409988
 MEMORY| Slab                  1186824       1186824       1186824       1186824
 MEMORY| SReclaimable           157576        157576        157576        157576
 MEMORY| MemLikelyFree        84317824      84317328      84317824      84317526

 
 GENERATE|  Preliminary Number of Bonds generated:                             0
 GENERATE|  Achieved consistency in connectivity generation.

 *** WARNING in cryssym.F:163 :: Symmetry library SPGLIB not available ***


 *******************************************************************************
 *******************************************************************************
 **                                                                           **
 **     #####                         ##              ##                      **
 **    ##   ##            ##          ##              ##                      **
 **   ##     ##                       ##            ######                    **
 **   ##     ##  ##   ##  ##   #####  ##  ##   ####   ##    #####    #####    **
 **   ##     ##  ##   ##  ##  ##      ## ##   ##      ##   ##   ##  ##   ##   **
 **   ##  ## ##  ##   ##  ##  ##      ####     ###    ##   ######   ######    **
 **    ##  ###   ##   ##  ##  ##      ## ##      ##   ##   ##       ##        **
 **     #######   #####   ##   #####  ##  ##  ####    ##    #####   ##        **
 **           ##                                                    ##        **
 **                                                                           **
 **                                                ... make the atoms dance   **
 **                                                                           **
 **            Copyright (C) by CP2K developers group (2000 - 2018)           **
 **                                                                           **
 *******************************************************************************


 TOTAL NUMBERS AND MAXIMUM NUMBERS

  Total number of            - Atomic kinds:                                   2
                             - Atoms:                                         16
                             - Shell sets:                                    16
                             - Shells:                                        96
                             - Primitive Cartesian functions:                 88
                             - Cartesian basis functions:                    352
                             - Spherical basis functions:                    304

  Maximum angular momentum of- Orbital basis functions:                        3
                             - Local part of the GTH pseudopotential:          2
                             - Non-local part of the GTH pseudopotential:      4


 SCF PARAMETERS         Density guess:                                    ATOMIC
                        --------------------------------------------------------
                        max_scf:                                              50
                        max_scf_history:                                       0
                        max_diis:                                              4
                        --------------------------------------------------------
                        eps_scf:                                        1.00E-06
                        eps_scf_history:                                0.00E+00
                        eps_diis:                                       1.00E-01
                        eps_eigval:                                     1.00E-05
                        --------------------------------------------------------
                        level_shift [a.u.]:                                 0.00
                        --------------------------------------------------------
                        Mixing method:                              PULAY_MIXING
                                                charge density mixing in g-space
                        --------------------------------------------------------
                        Outer loop SCF in use 
                        No variables optimised in outer loop
                        eps_scf                                         1.00E-06
                        max_scf                                               50
                        DIIS optimization
                        DIIS buffer length                                     3
                        step_size                                       5.00E-01
 
 KPOINTS| Number of kpoint groups                                              1
 KPOINTS| Size of each kpoint group                                           40
 KPOINTS| Number of kpoints per group                                         16

 CELL_OPT| Pressure tolerance [bar]:                                       100.0
 CELL_OPT| Keep angles between the cell vectors:                             YES
 CELL_OPT| Keep cell symmetry:                                               YES
 CELL_OPT| Constraint:                                                         Z

 BFGS| Use rational function optimization for step estimation:                NO
 BFGS| Use model Hessian for initial guess:                                   NO
 BFGS| Restart Hessian:                                                       NO
 BFGS| Trust radius:                                                       0.472

 *******************************************************************************
 ***                     STARTING   CELL   OPTIMIZATION                      ***
 ***                                   BFGS                                  ***
 *******************************************************************************

 CELL| Volume [angstrom^3]:                                              439.534
 CELL| Vector a [angstrom]:       3.186     0.000     0.000    |a| =       3.186
 CELL| Vector b [angstrom]:      -1.593     2.759     0.000    |b| =       3.186
 CELL| Vector c [angstrom]:       0.000     0.000    50.000    |c| =      50.000
 CELL| Angle (b,c), alpha [degree]:                                       90.000
 CELL| Angle (a,c), beta  [degree]:                                       90.000
 CELL| Angle (a,b), gamma [degree]:                                      120.000
 CELL| Numerically orthorhombic:                                              NO

 Number of electrons:                                                        144
 Number of occupied orbitals:                                                 72
 Number of molecular orbitals:                                                72

 Number of orbital functions:                                                304
 Number of independent orbital functions:                                    304

 Extrapolation method: initial_guess


 SCF WAVEFUNCTION OPTIMIZATION

  Step     Update method      Time    Convergence         Total energy    Change
  ------------------------------------------------------------------------------
     1 NoMix/Diag. 0.40E+00    1.4     2.02069364      -677.0651206428 -6.77E+02
     2 Pulay/Diag. 0.40E+00    1.6     4.56136148      -667.5396390973  9.53E+00
     3 Pulay/Diag. 0.40E+00    1.6    56.99816074      -679.0865311286 -1.15E+01
     4 Pulay/Diag. 0.40E+00    1.6    32.49344146      -686.5086256601 -7.42E+00
     5 Pulay/Diag. 0.40E+00    1.6    10.26684102      -689.9693676092 -3.46E+00
     6 Pulay/Diag. 0.40E+00    1.6    31.14694960      -675.7938781343  1.42E+01
     7 Pulay/Diag. 0.40E+00    1.6   576.46012333      -584.0295562465  9.18E+01
     8 Pulay/Diag. 0.40E+00    1.6   329.36875216      -525.5250516070  5.85E+01
     9 Pulay/Diag. 0.40E+00    1.9   293.14588121      -587.8313631520 -6.23E+01
    10 Pulay/Diag. 0.40E+00    1.6    50.25630591      -603.0853195745 -1.53E+01
    11 Pulay/Diag. 0.40E+00    1.6   727.59331981      -498.5601142618  1.05E+02
    12 Pulay/Diag. 0.40E+00    1.6   720.13703580      -479.0481689700  1.95E+01
    13 Pulay/Diag. 0.40E+00    1.6   191.63823302      -521.4608189986 -4.24E+01
    14 Pulay/Diag. 0.40E+00    1.6    35.08774723      -568.5604386566 -4.71E+01
    15 Pulay/Diag. 0.40E+00    1.6   562.94155176      -406.4348912709  1.62E+02
    16 Pulay/Diag. 0.40E+00    1.6   561.22617957      -459.5389329444 -5.31E+01
    17 Pulay/Diag. 0.40E+00    1.6   247.24838393      -458.7801656092  7.59E-01
    18 Pulay/Diag. 0.40E+00    1.9    48.55797313      -537.7638196967 -7.90E+01
    19 Pulay/Diag. 0.40E+00    1.6   727.02615798      -482.5202576618  5.52E+01
    20 Pulay/Diag. 0.40E+00    1.6   726.44019541      -472.3327873731  1.02E+01
    21 Pulay/Diag. 0.40E+00    1.6   208.66200881      -512.1049407228 -3.98E+01
    22 Pulay/Diag. 0.40E+00    1.6    35.56721738      -572.8939486517 -6.08E+01
    23 Pulay/Diag. 0.40E+00    1.6   156.15195401      -624.6202719072 -5.17E+01
    24 Pulay/Diag. 0.40E+00    1.6   156.15741579      -586.9659696056  3.77E+01
    25 Pulay/Diag. 0.40E+00    1.6    36.36218361      -612.1610663495 -2.52E+01
    26 Pulay/Diag. 0.40E+00    1.6   551.22534620      -597.1153807362  1.50E+01
    27 Pulay/Diag. 0.40E+00    2.0   551.19849887      -572.1659603466  2.49E+01
    28 Pulay/Diag. 0.40E+00    1.6    12.06210353      -604.9676087197 -3.28E+01
    29 Pulay/Diag. 0.40E+00    1.6   526.83674529      -613.7211814855 -8.75E+00
    30 Pulay/Diag. 0.40E+00    1.6   523.14263452      -550.9404889659  6.28E+01
    31 Pulay/Diag. 0.40E+00    1.6   537.09313432      -581.5628364566 -3.06E+01
    32 Pulay/Diag. 0.40E+00    1.6   537.09732896      -552.2849170428  2.93E+01
    33 Pulay/Diag. 0.40E+00    1.6   110.90830629      -541.6756989133  1.06E+01
    34 Pulay/Diag. 0.40E+00    1.6   106.98419855      -549.1270103401 -7.45E+00
    35 Pulay/Diag. 0.40E+00    1.6    36.19365907      -586.3398864320 -3.72E+01
    36 Pulay/Diag. 0.40E+00    2.0   538.69534820      -594.2332426172 -7.89E+00
    37 Pulay/Diag. 0.40E+00    1.6   538.75207752      -572.0635595019  2.22E+01
    38 Pulay/Diag. 0.40E+00    1.6   280.60656942      -582.1911859359 -1.01E+01
    39 Pulay/Diag. 0.40E+00    1.6    81.14563919      -554.3433772234  2.78E+01
    40 Pulay/Diag. 0.40E+00    1.6   116.92963057      -563.5685549359 -9.23E+00
    41 Pulay/Diag. 0.40E+00    1.6   133.39190433      -569.7408521348 -6.17E+00
    42 Pulay/Diag. 0.40E+00    1.6   506.62951091      -578.6949783058 -8.95E+00
    43 Pulay/Diag. 0.40E+00    1.6   506.59484700      -546.3436831677  3.24E+01
    44 Pulay/Diag. 0.40E+00    1.6   231.51748320      -512.1610882038  3.42E+01
    45 Pulay/Diag. 0.40E+00    1.8   231.30997298      -512.5459673281 -3.85E-01
    46 Pulay/Diag. 0.40E+00    2.0   553.16640408      -492.3308518787  2.02E+01
    47 Pulay/Diag. 0.40E+00    3.4   547.60269489      -494.7246659381 -2.39E+00
    48 Pulay/Diag. 0.40E+00    3.9    52.81405798      -561.6695791413 -6.69E+01
    49 Pulay/Diag. 0.40E+00    3.4   281.22500932      -583.3539750198 -2.17E+01
    50 Pulay/Diag. 0.40E+00    3.1   281.20469641      -482.9957310937  1.00E+02

  Leaving inner SCF loop after reaching    50 steps.


  Electronic density on regular grids:       -143.9999999983        0.0000000017
  Core density on regular grids:              143.9999999999       -0.0000000001
  Total charge density on r-space grids:        0.0000000016
  Total charge density g-space grids:           0.0000000016

  Overlap energy of the core charge distribution:               0.00000004275251
  Self energy of the core charge distribution:               -977.15629455119449
  Core Hamiltonian energy:                                    352.66823992044885
  Hartree energy:                                             223.68814950972506
  Exchange-correlation energy:                                -82.11240629627633
  Dispersion energy:                                           -0.08341971910932

  Total energy:                                              -482.99573109365372

  outer SCF iter =    1 RMS gradient =   0.28E+03 energy =       -482.9957310937
     1 Pulay/Diag. 0.40E+00    6.8  1139.62903139      1520.1135250655  2.00E+03
     2 Pulay/Diag. 0.40E+00    3.3  1140.44767147      -382.7184996007 -1.90E+03
     3 Pulay/Diag. 0.40E+00    3.7    51.27360062      -504.7778769004 -1.22E+02
     4 Pulay/Diag. 0.40E+00    2.2   194.55274145      -471.6010266404  3.32E+01
     5 Pulay/Diag. 0.40E+00    2.0   180.68838804      -472.5313851403 -9.30E-01
     6 Pulay/Diag. 0.40E+00    1.6   266.15154069      -504.3478331230 -3.18E+01
     7 Pulay/Diag. 0.40E+00    1.6   261.24331132      -489.6788211186  1.47E+01
     8 Pulay/Diag. 0.40E+00    1.6   102.27939705      -501.3997606333 -1.17E+01
     9 Pulay/Diag. 0.40E+00    1.6    61.44326424      -512.1460018811 -1.07E+01
    10 Pulay/Diag. 0.40E+00    1.6   340.14414008      -408.2631237382  1.04E+02
    11 Pulay/Diag. 0.40E+00    1.6   340.06614881      -464.2400389429 -5.60E+01
    12 Pulay/Diag. 0.40E+00    1.6   294.23152864      -439.3678948771  2.49E+01
    13 Pulay/Diag. 0.40E+00    1.6   291.88802506      -481.8213728623 -4.25E+01
    14 Pulay/Diag. 0.40E+00    2.0   145.36873146      -472.8297042579  8.99E+00
    15 Pulay/Diag. 0.40E+00    1.6   249.44171563      -475.2462561009 -2.42E+00
    16 Pulay/Diag. 0.40E+00    1.6   249.89785710      -478.8498833968 -3.60E+00
    17 Pulay/Diag. 0.40E+00    1.6   108.86005651      -561.4685661049 -8.26E+01
    18 Pulay/Diag. 0.40E+00    1.6   237.41950178      -525.0635703542  3.64E+01
    19 Pulay/Diag. 0.40E+00    1.6   200.59641648      -496.1235590053  2.89E+01
    20 Pulay/Diag. 0.40E+00    1.6    38.38321245      -559.6680511344 -6.35E+01
    21 Pulay/Diag. 0.40E+00    1.6   548.87490530      -488.3206189728  7.13E+01
    22 Pulay/Diag. 0.40E+00    3.0   546.74555850      -506.3023880786 -1.80E+01
    23 Pulay/Diag. 0.40E+00    3.7   296.35057562      -518.7417513174 -1.24E+01
    24 Pulay/Diag. 0.40E+00    3.4   719.39058335      -545.3805064560 -2.66E+01
    25 Pulay/Diag. 0.40E+00    3.0   719.15392358      -515.0904711601  3.03E+01
    26 Pulay/Diag. 0.40E+00    3.7   268.05269843      -533.6981404954 -1.86E+01
    27 Pulay/Diag. 0.40E+00    3.3    35.18754807      -575.4820201898 -4.18E+01
    28 Pulay/Diag. 0.40E+00    3.0   156.73610652      -579.3139152654 -3.83E+00
    29 Pulay/Diag. 0.40E+00    3.8   274.19132651      -577.0381875222  2.28E+00
    30 Pulay/Diag. 0.40E+00    2.0   274.21237873      -572.6543467661  4.38E+00
    31 Pulay/Diag. 0.40E+00    1.6    31.94358702      -562.9842723357  9.67E+00
    32 Pulay/Diag. 0.40E+00    1.6   543.05346658      -583.6884382815 -2.07E+01
    33 Pulay/Diag. 0.40E+00    1.9   544.08973420      -567.6884550245  1.60E+01
    34 Pulay/Diag. 0.40E+00    1.6   712.09275968      -608.4772083354 -4.08E+01
    35 Pulay/Diag. 0.40E+00    1.6   712.04584587      -563.6273269358  4.48E+01
    36 Pulay/Diag. 0.40E+00    1.6    57.40807229      -591.2142191451 -2.76E+01
    37 Pulay/Diag. 0.40E+00    1.6    59.27285346      -579.9741850099  1.12E+01
    38 Pulay/Diag. 0.40E+00    2.4    31.41890303      -595.2484413389 -1.53E+01
    39 Pulay/Diag. 0.40E+00    3.0   242.65228034      -620.7770824005 -2.55E+01
    40 Pulay/Diag. 0.40E+00    3.4   554.02756699      -577.5793091596  4.32E+01
    41 Pulay/Diag. 0.40E+00    3.4   552.73276383      -569.4120819419  8.17E+00
    42 Pulay/Diag. 0.40E+00    3.3    40.18500968      -604.2998988914 -3.49E+01
    43 Pulay/Diag. 0.40E+00    3.5    42.61477821      -576.5407160002  2.78E+01
    44 Pulay/Diag. 0.40E+00    3.3   699.95200641      -587.4735707029 -1.09E+01
    45 Pulay/Diag. 0.40E+00    3.3   700.28863411      -561.1329111608  2.63E+01
    46 Pulay/Diag. 0.40E+00    3.2    87.90167954      -613.2748663115 -5.21E+01
    47 Pulay/Diag. 0.40E+00    2.3    48.52962188      -570.6614667573  4.26E+01
    48 Pulay/Diag. 0.40E+00    1.6    25.21678970      -564.9857189143  5.68E+00
    49 Pulay/Diag. 0.40E+00    1.6    20.87903986      -583.6900709979 -1.87E+01
    50 Pulay/Diag. 0.40E+00    1.6   545.53685792      -569.9906483538  1.37E+01

  Leaving inner SCF loop after reaching    50 steps.


  Electronic density on regular grids:       -143.9999999978        0.0000000022
  Core density on regular grids:              143.9999999999       -0.0000000001
  Total charge density on r-space grids:        0.0000000021
  Total charge density g-space grids:           0.0000000021

  Overlap energy of the core charge distribution:               0.00000004275251
  Self energy of the core charge distribution:               -977.15629455119449
  Core Hamiltonian energy:                                    297.79828910366581
  Hartree energy:                                             205.35446715762222
  Exchange-correlation energy:                                -95.90369038752659
  Dispersion energy:                                           -0.08341971910932

  Total energy:                                              -569.99064835378988

  outer SCF iter =    2 RMS gradient =   0.55E+03 energy =       -569.9906483538
     1 Pulay/Diag. 0.40E+00    3.2  1114.99903725     29003.2234913882  2.96E+04
     2 Pulay/Diag. 0.40E+00    1.9  1114.99723149      -385.3371842283 -2.94E+04
     3 Pulay/Diag. 0.40E+00    1.6   538.65097515      -501.7924144074 -1.16E+02
     4 Pulay/Diag. 0.40E+00    1.6    60.82326240      -573.2322983621 -7.14E+01
     5 Pulay/Diag. 0.40E+00    1.6   425.92389024      -482.4523969432  9.08E+01
     6 Pulay/Diag. 0.40E+00    1.6   724.20107402      -132.9325657196  3.50E+02
     7 Pulay/Diag. 0.40E+00    1.6   720.94734995      -413.5826083099 -2.81E+02
     8 Pulay/Diag. 0.40E+00    1.6   221.17010244      -432.4981909891 -1.89E+01
     9 Pulay/Diag. 0.40E+00    1.6   303.66764350      -422.1242480388  1.04E+01
    10 Pulay/Diag. 0.40E+00    1.6   281.40780179      -347.4029561576  7.47E+01
    11 Pulay/Diag. 0.40E+00    2.0   281.34945771      -455.6809725981 -1.08E+02
    12 Pulay/Diag. 0.40E+00    1.6   151.10386671      -488.8670360069 -3.32E+01
    13 Pulay/Diag. 0.40E+00    1.6   189.75153501      -496.3002046595 -7.43E+00
    14 Pulay/Diag. 0.40E+00    1.6    89.91499657      -505.9744455584 -9.67E+00
    15 Pulay/Diag. 0.40E+00    1.6   239.10460939      -550.3919169312 -4.44E+01
    16 Pulay/Diag. 0.40E+00    1.6   247.82970657      -509.5344257126  4.09E+01
    17 Pulay/Diag. 0.40E+00    1.6   496.42855124      -542.9805491927 -3.34E+01
    18 Pulay/Diag. 0.40E+00    1.6   497.98600873      -488.0377745886  5.49E+01
    19 Pulay/Diag. 0.40E+00    1.6   419.26286941      -448.8613793660  3.92E+01
    20 Pulay/Diag. 0.40E+00    2.0   356.09108331      -460.8009267685 -1.19E+01
    21 Pulay/Diag. 0.40E+00    1.6    25.91955389      -532.1518940264 -7.14E+01
    22 Pulay/Diag. 0.40E+00    1.6   250.68310978      -545.1480492567 -1.30E+01
    23 Pulay/Diag. 0.40E+00    1.6   530.42522221      -486.5660688715  5.86E+01
    24 Pulay/Diag. 0.40E+00    1.6   528.37707771      -506.2635728893 -1.97E+01
    25 Pulay/Diag. 0.40E+00    1.6    62.26984151      -528.2929525757 -2.20E+01
    26 Pulay/Diag. 0.40E+00    1.6   220.26804220      -543.6085496460 -1.53E+01
    27 Pulay/Diag. 0.40E+00    1.6   730.29038195      -474.1675775255  6.94E+01
    28 Pulay/Diag. 0.40E+00    1.6   729.73152463      -473.5556106241  6.12E-01
    29 Pulay/Diag. 0.40E+00    2.0    63.53525216      -531.1392326372 -5.76E+01
    30 Pulay/Diag. 0.40E+00    1.6    62.54937948      -550.6800757438 -1.95E+01
    31 Pulay/Diag. 0.40E+00    1.6   102.76905516      -598.2431933049 -4.76E+01
    32 Pulay/Diag. 0.40E+00    1.6   698.11421068      -561.6709179006  3.66E+01
    33 Pulay/Diag. 0.40E+00    1.6   697.89720381      -534.3431537473  2.73E+01
    34 Pulay/Diag. 0.40E+00    1.6    12.16243710      -578.3252447449 -4.40E+01
    35 Pulay/Diag. 0.40E+00    1.6   183.91887939      -596.2436028404 -1.79E+01
    36 Pulay/Diag. 0.40E+00    1.6   183.96546338      -591.2684311614  4.98E+00
    37 Pulay/Diag. 0.40E+00    1.6    89.17168517      -636.1323318773 -4.49E+01
    38 Pulay/Diag. 0.40E+00    1.7    89.17366549      -625.3658904474  1.08E+01
    39 Pulay/Diag. 0.40E+00    2.3    62.07041000      -570.3916535614  5.50E+01
    40 Pulay/Diag. 0.40E+00    2.0    62.11961828      -563.7330853376  6.66E+00
    41 Pulay/Diag. 0.40E+00    3.2    50.54033642      -594.7293897503 -3.10E+01
    42 Pulay/Diag. 0.40E+00    3.6   509.17018181      -573.2750591597  2.15E+01
    43 Pulay/Diag. 0.40E+00    3.6   504.17745640      -544.9074663597  2.84E+01
    44 Pulay/Diag. 0.40E+00    3.5    89.36774149      -603.9535923260 -5.90E+01
    45 Pulay/Diag. 0.40E+00    3.1   408.48133104      -606.7127809822 -2.76E+00
    46 Pulay/Diag. 0.40E+00    3.2   408.34428234      -451.9389878491  1.55E+02
    47 Pulay/Diag. 0.40E+00    3.2   276.11571480      -441.5076050516  1.04E+01
    48 Pulay/Diag. 0.40E+00    3.1    36.12817117      -546.7616790476 -1.05E+02
    49 Pulay/Diag. 0.40E+00    3.0   306.54138790      -502.0543388141  4.47E+01
    50 Pulay/Diag. 0.40E+00    3.4   306.35118700      -496.8491190858  5.21E+00

  Leaving inner SCF loop after reaching    50 steps.


  Electronic density on regular grids:       -143.9999999982        0.0000000018
  Core density on regular grids:              143.9999999999       -0.0000000001
  Total charge density on r-space grids:        0.0000000017
  Total charge density g-space grids:           0.0000000017

  Overlap energy of the core charge distribution:               0.00000004275251
  Self energy of the core charge distribution:               -977.15629455119449
  Core Hamiltonian energy:                                    360.03699898098785
  Hartree energy:                                             204.07420008451524
  Exchange-correlation energy:                                -83.72060392372204
  Dispersion energy:                                           -0.08341971910932

  Total energy:                                              -496.84911908577027

  outer SCF iter =    3 RMS gradient =   0.31E+03 energy =       -496.8491190858
     1 Pulay/Diag. 0.40E+00    7.3   561.05414306      1181.7271615879  1.68E+03
     2 Pulay/Diag. 0.40E+00    3.2   561.64948083      -489.8417073778 -1.67E+03
     3 Pulay/Diag. 0.40E+00    2.9   187.90366488      -484.4076333210  5.43E+00
     4 Pulay/Diag. 0.40E+00    3.5   216.91403361      -468.7665099894  1.56E+01
     5 Pulay/Diag. 0.40E+00    3.4   217.69050295      -470.3996153729 -1.63E+00
     6 Pulay/Diag. 0.40E+00    3.3   414.09476732      -497.1733459584 -2.68E+01
     7 Pulay/Diag. 0.40E+00    3.0   412.11745102      -501.9324575499 -4.76E+00
     8 Pulay/Diag. 0.40E+00    1.6   124.48775677      -503.1523636084 -1.22E+00
     9 Pulay/Diag. 0.40E+00    1.6   729.43206716      -516.2509568795 -1.31E+01
    10 Pulay/Diag. 0.40E+00    1.6   728.42062685      -468.1093702258  4.81E+01
    11 Pulay/Diag. 0.40E+00    1.6   153.40836934      -532.7005296578 -6.46E+01
    12 Pulay/Diag. 0.40E+00    1.6   180.84317510      -525.8014982154  6.90E+00
    13 Pulay/Diag. 0.40E+00    1.6    51.65979611      -565.5505956570 -3.97E+01
    14 Pulay/Diag. 0.40E+00    1.6   716.54460686      -594.3179861979 -2.88E+01
    15 Pulay/Diag. 0.40E+00    1.6   712.02276235      -537.7320189101  5.66E+01
    16 Pulay/Diag. 0.40E+00    1.6   431.15841509      -578.8814212004 -4.11E+01
    17 Pulay/Diag. 0.40E+00    1.9   431.48096227      -545.2207341404  3.37E+01
    18 Pulay/Diag. 0.40E+00    1.6    21.31716692      -587.3890200501 -4.22E+01
    19 Pulay/Diag. 0.40E+00    1.6   166.86798699      -613.4659282425 -2.61E+01
    20 Pulay/Diag. 0.40E+00    1.6   136.97749117      -582.4643352616  3.10E+01
    21 Pulay/Diag. 0.40E+00    1.6   537.89276855      -613.1594611761 -3.07E+01
    22 Pulay/Diag. 0.40E+00    1.6   536.03667976      -515.1441754667  9.80E+01
    23 Pulay/Diag. 0.40E+00    1.6    64.08361928      -555.9543150229 -4.08E+01
    24 Pulay/Diag. 0.40E+00    1.6    59.06850675      -569.1929457049 -1.32E+01
    25 Pulay/Diag. 0.40E+00    1.6   748.26084707      -490.9387371528  7.83E+01
    26 Pulay/Diag. 0.40E+00    2.0   742.61737599      -484.0240645432  6.91E+00
    27 Pulay/Diag. 0.40E+00    1.6   220.18341618      -532.7663321986 -4.87E+01
    28 Pulay/Diag. 0.40E+00    1.6    41.32082256      -586.9916623713 -5.42E+01
    29 Pulay/Diag. 0.40E+00    1.6    94.95987671      -583.0044581349  3.99E+00
    30 Pulay/Diag. 0.40E+00    1.6    95.01826549      -594.4642465991 -1.15E+01
    31 Pulay/Diag. 0.40E+00    1.6    89.67722584      -608.0005061583 -1.35E+01
    32 Pulay/Diag. 0.40E+00    1.6    16.55284831      -590.0552133107  1.79E+01
    33 Pulay/Diag. 0.40E+00    1.6    12.93920751      -602.8601982937 -1.28E+01
    34 Pulay/Diag. 0.40E+00    1.6    46.62811270      -623.9574701762 -2.11E+01
    35 Pulay/Diag. 0.40E+00    1.9   587.38547290      -620.7912504951  3.17E+00
    36 Pulay/Diag. 0.40E+00    1.6   580.01928616      -576.8395521057  4.40E+01
    37 Pulay/Diag. 0.40E+00    1.6    49.12162890      -613.8997672117 -3.71E+01
    38 Pulay/Diag. 0.40E+00    1.6   551.72235663      -575.1024284393  3.88E+01
    39 Pulay/Diag. 0.40E+00    1.6   552.31138917      -559.7403559885  1.54E+01
    40 Pulay/Diag. 0.40E+00    1.6   105.60173947      -596.5628607120 -3.68E+01
    41 Pulay/Diag. 0.40E+00    1.6    77.10575825      -623.3138891413 -2.68E+01
    42 Pulay/Diag. 0.40E+00    1.6   518.17962676      -557.8635400822  6.55E+01
    43 Pulay/Diag. 0.40E+00    1.6   517.93235246      -491.6453553517  6.62E+01
    44 Pulay/Diag. 0.40E+00    2.0    23.62127578      -541.3377622438 -4.97E+01
    45 Pulay/Diag. 0.40E+00    1.6   325.90254529      -524.9358207468  1.64E+01
    46 Pulay/Diag. 0.40E+00    1.6   323.51236759      -499.3187883111  2.56E+01
    47 Pulay/Diag. 0.40E+00    1.6   208.75920835      -552.3747337791 -5.31E+01
    48 Pulay/Diag. 0.40E+00    1.6   215.00330584      -548.5248874891  3.85E+00
    49 Pulay/Diag. 0.40E+00    1.6    37.97635876      -574.4519839576 -2.59E+01
    50 Pulay/Diag. 0.40E+00    1.6    34.89281787      -585.3647159659 -1.09E+01

  Leaving inner SCF loop after reaching    50 steps.


  Electronic density on regular grids:       -143.9999999980        0.0000000020
  Core density on regular grids:              143.9999999999       -0.0000000001
  Total charge density on r-space grids:        0.0000000019
  Total charge density g-space grids:           0.0000000019

  Overlap energy of the core charge distribution:               0.00000004275251
  Self energy of the core charge distribution:               -977.15629455119449
  Core Hamiltonian energy:                                    304.10635334516559
  Hartree energy:                                             175.60617241153790
  Exchange-correlation energy:                                -87.83752749502935
  Dispersion energy:                                           -0.08341971910932

  Total energy:                                              -585.36471596587717

  outer SCF iter =    4 RMS gradient =   0.35E+02 energy =       -585.3647159659
     1 Pulay/Diag. 0.40E+00    3.2  1117.99312672      3477.7074848847  4.06E+03
     2 Pulay/Diag. 0.40E+00    1.6  1118.01097234      -469.6702953570 -3.95E+03
     3 Pulay/Diag. 0.40E+00    2.0   183.40161401      -563.4964881860 -9.38E+01
     4 Pulay/Diag. 0.40E+00    1.6   108.92177856      -500.8431539277  6.27E+01
     5 Pulay/Diag. 0.40E+00    1.6    81.53684810      -511.2676130523 -1.04E+01
     6 Pulay/Diag. 0.40E+00    1.6   190.49251325      -487.2938179486  2.40E+01
     7 Pulay/Diag. 0.40E+00    1.6   211.03004697      -491.3515581744 -4.06E+00
     8 Pulay/Diag. 0.40E+00    1.6    36.19682695      -473.1069496446  1.82E+01
     9 Pulay/Diag. 0.40E+00    1.6   165.81638690      -507.4961724438 -3.44E+01
    10 Pulay/Diag. 0.40E+00    1.6   181.52206720      -290.4631090659  2.17E+02
    11 Pulay/Diag. 0.40E+00    1.6   527.73524388      -401.6170323904 -1.11E+02
    12 Pulay/Diag. 0.40E+00    1.9   492.79643804      -437.9009154060 -3.63E+01
    13 Pulay/Diag. 0.40E+00    1.6   411.02396617      -490.2650071262 -5.24E+01
    14 Pulay/Diag. 0.40E+00    1.6   448.24375438      -453.6815921032  3.66E+01
    15 Pulay/Diag. 0.40E+00    1.6   291.74781612      -477.4294648494 -2.37E+01
    16 Pulay/Diag. 0.40E+00    1.7   158.44548097      -519.8483507731 -4.24E+01
    17 Pulay/Diag. 0.40E+00    1.6    26.85404301      -538.5739295633 -1.87E+01
    18 Pulay/Diag. 0.40E+00    1.6   479.36649552      -556.5212282044 -1.79E+01
    19 Pulay/Diag. 0.40E+00    1.6   479.34789470      -516.3678771464  4.02E+01
    20 Pulay/Diag. 0.40E+00    1.6    77.22500998      -570.9511876180 -5.46E+01
    21 Pulay/Diag. 0.40E+00    3.6    81.51492554      -549.6201954356  2.13E+01
    22 Pulay/Diag. 0.40E+00    3.0    87.66573393      -548.1500020276  1.47E+00
    23 Pulay/Diag. 0.40E+00    3.5   706.04650333      -569.9343781889 -2.18E+01
    24 Pulay/Diag. 0.40E+00    3.4   706.29791937      -525.0196604865  4.49E+01
    25 Pulay/Diag. 0.40E+00    3.4    59.52545832      -565.4524660341 -4.04E+01
    26 Pulay/Diag. 0.40E+00    3.3   402.16191568      -529.6195244516  3.58E+01
    27 Pulay/Diag. 0.40E+00    3.5   402.16370826      -493.7117979221  3.59E+01
    28 Pulay/Diag. 0.40E+00    3.7   251.27520758      -532.3660673179 -3.87E+01
    29 Pulay/Diag. 0.40E+00    2.4   236.11722406      -521.9818948863  1.04E+01
    30 Pulay/Diag. 0.40E+00    1.6   226.02553447      -542.4185091298 -2.04E+01
    31 Pulay/Diag. 0.40E+00    1.9    85.68775503      -555.9243603135 -1.35E+01
    32 Pulay/Diag. 0.40E+00    1.6   263.81489388      -600.2004566450 -4.43E+01
    33 Pulay/Diag. 0.40E+00    1.6   263.70483682      -487.0943991602  1.13E+02
    34 Pulay/Diag. 0.40E+00    1.6   236.07752565      -476.0557769793  1.10E+01
    35 Pulay/Diag. 0.40E+00    1.6    14.41979090      -558.3055929556 -8.22E+01
    36 Pulay/Diag. 0.40E+00    1.9    35.09104989      -587.5911945740 -2.93E+01
    37 Pulay/Diag. 0.40E+00    2.6   684.64716107      -594.0479118227 -6.46E+00
    38 Pulay/Diag. 0.40E+00    3.2   684.72348636      -539.0024357481  5.50E+01
    39 Pulay/Diag. 0.40E+00    3.2    20.48407828      -592.5913015141 -5.36E+01
    40 Pulay/Diag. 0.40E+00    3.9   559.06849030      -554.6665016761  3.79E+01
    41 Pulay/Diag. 0.40E+00    3.4   557.20083522      -520.1331884453  3.45E+01
    42 Pulay/Diag. 0.40E+00    3.0   146.30885436      -536.3938875972 -1.63E+01
    43 Pulay/Diag. 0.40E+00    3.5    47.42912995      -611.6334534661 -7.52E+01
    44 Pulay/Diag. 0.40E+00    3.4   263.62566071      -596.1419057897  1.55E+01
    45 Pulay/Diag. 0.40E+00    3.8   262.94231817      -555.5017083901  4.06E+01
    46 Pulay/Diag. 0.40E+00    3.3    30.81061503      -552.3673811622  3.13E+00
    47 Pulay/Diag. 0.40E+00    3.1     3.28237243      -579.5688584013 -2.72E+01
    48 Pulay/Diag. 0.40E+00    3.7   391.81172121      -606.2865196148 -2.67E+01
    49 Pulay/Diag. 0.40E+00    4.0   430.63307417      -572.9603940103  3.33E+01
    50 Pulay/Diag. 0.40E+00    3.1   430.63290042      -568.8152569946  4.15E+00

  Leaving inner SCF loop after reaching    50 steps.


  Electronic density on regular grids:       -143.9999999979        0.0000000021
  Core density on regular grids:              143.9999999999       -0.0000000001
  Total charge density on r-space grids:        0.0000000020
  Total charge density g-space grids:           0.0000000020

  Overlap energy of the core charge distribution:               0.00000004275251
  Self energy of the core charge distribution:               -977.15629455119449
  Core Hamiltonian energy:                                    343.92268312187548
  Hartree energy:                                             154.47733213166626
  Exchange-correlation energy:                                -89.97555802061837
  Dispersion energy:                                           -0.08341971910932

  Total energy:                                              -568.81525699462793

  outer SCF iter =    5 RMS gradient =   0.43E+03 energy =       -568.8152569946
     1 Pulay/Diag. 0.40E+00    6.6  1260.62065867     12975.5644049579  1.35E+04
     2 Pulay/Diag. 0.40E+00    3.4  1260.62549279      -480.8648616661 -1.35E+04
     3 Pulay/Diag. 0.40E+00    3.6   312.34498471      -499.5450770494 -1.87E+01
     4 Pulay/Diag. 0.40E+00    1.8   265.78824984      -459.4546065687  4.01E+01
     5 Pulay/Diag. 0.40E+00    1.6    22.64988419      -539.5923975663 -8.01E+01
     6 Pulay/Diag. 0.40E+00    1.6   411.57573826      -566.0893464668 -2.65E+01
     7 Pulay/Diag. 0.40E+00    1.6   724.71232898      -448.0243044694  1.18E+02
     8 Pulay/Diag. 0.40E+00    2.0   721.15932600      -489.5353755154 -4.15E+01
     9 Pulay/Diag. 0.40E+00    1.6   204.94103397      -530.7265305633 -4.12E+01
    10 Pulay/Diag. 0.40E+00    1.6   121.66989581      -542.1248911132 -1.14E+01
    11 Pulay/Diag. 0.40E+00    1.6   555.58589706      -511.5079028299  3.06E+01
    12 Pulay/Diag. 0.40E+00    1.6   553.77696548      -513.2382820760 -1.73E+00
    13 Pulay/Diag. 0.40E+00    1.6    24.31686431      -547.7376996997 -3.45E+01
    14 Pulay/Diag. 0.40E+00    1.6    96.36932803      -590.9615907338 -4.32E+01
    15 Pulay/Diag. 0.40E+00    1.6    96.98505693      -618.7290087411 -2.78E+01
    16 Pulay/Diag. 0.40E+00    1.6    49.24005539      -604.4356824763  1.43E+01
    17 Pulay/Diag. 0.40E+00    2.0     3.88155473      -589.9787112140  1.45E+01
    18 Pulay/Diag. 0.40E+00    1.6    35.99033634      -553.9329219718  3.60E+01
    19 Pulay/Diag. 0.40E+00    1.6   452.89564850      -578.6688287093 -2.47E+01
    20 Pulay/Diag. 0.40E+00    1.6   450.21112908      -549.3114206509  2.94E+01
    21 Pulay/Diag. 0.40E+00    1.6   183.78875905      -573.3667933333 -2.41E+01
    22 Pulay/Diag. 0.40E+00    1.6   140.81571950      -593.2411895070 -1.99E+01
    23 Pulay/Diag. 0.40E+00    1.6   140.51177118      -565.5390047545  2.77E+01
    24 Pulay/Diag. 0.40E+00    1.6   456.74379511      -577.6629863530 -1.21E+01
    25 Pulay/Diag. 0.40E+00    1.6   456.45133366      -549.1809289798  2.85E+01
    26 Pulay/Diag. 0.40E+00    2.2   106.50106539      -590.1730482213 -4.10E+01
    27 Pulay/Diag. 0.40E+00    2.7    94.47225264      -604.3877130356 -1.42E+01
    28 Pulay/Diag. 0.40E+00    3.2   527.62049756      -634.5886938004 -3.02E+01
    29 Pulay/Diag. 0.40E+00    3.5   527.62081054      -568.8532941460  6.57E+01
    30 Pulay/Diag. 0.40E+00    3.9   248.78066856      -545.1962775831  2.37E+01
    31 Pulay/Diag. 0.40E+00    3.1   236.21271703      -524.8674317619  2.03E+01
    32 Pulay/Diag. 0.40E+00    3.1    30.65132354      -579.0610233478 -5.42E+01
    33 Pulay/Diag. 0.40E+00    3.7   179.24532856      -598.5542286921 -1.95E+01
    34 Pulay/Diag. 0.40E+00    3.7   721.53656360      -549.6029799079  4.90E+01
    35 Pulay/Diag. 0.40E+00    3.7   719.78802503      -531.5494638848  1.81E+01
    36 Pulay/Diag. 0.40E+00    1.6   130.29457550      -535.0845784630 -3.54E+00
    37 Pulay/Diag. 0.40E+00    1.6    47.18234289      -569.7609593303 -3.47E+01
    38 Pulay/Diag. 0.40E+00    1.7    53.80064053      -630.8554587924 -6.11E+01
    39 Pulay/Diag. 0.40E+00    1.6    94.15909818      -620.4960656907  1.04E+01
    40 Pulay/Diag. 0.40E+00    1.6    52.30186535      -597.5465752062  2.29E+01
    41 Pulay/Diag. 0.40E+00    1.6    57.60066019      -570.5021751634  2.70E+01
    42 Pulay/Diag. 0.40E+00    1.6    70.15485133      -551.9537026978  1.85E+01
    43 Pulay/Diag. 0.40E+00    1.6    70.51206622      -560.2929999683 -8.34E+00
    44 Pulay/Diag. 0.40E+00    2.0    32.03291434      -565.4693092905 -5.18E+00
    45 Pulay/Diag. 0.40E+00    1.6   484.24627548      -573.2377569125 -7.77E+00
    46 Pulay/Diag. 0.40E+00    1.6   483.79346991      -535.8702303223  3.74E+01
    47 Pulay/Diag. 0.40E+00    1.6   516.72684163      -587.1321460450 -5.13E+01
    48 Pulay/Diag. 0.40E+00    1.6   516.70920932      -550.1332147921  3.70E+01
    49 Pulay/Diag. 0.40E+00    1.6    42.24416041      -571.1637852703 -2.10E+01
    50 Pulay/Diag. 0.40E+00    1.6    42.45727330      -576.9719553948 -5.81E+00

  Leaving inner SCF loop after reaching    50 steps.


  Electronic density on regular grids:       -143.9999999980        0.0000000020
  Core density on regular grids:              143.9999999999       -0.0000000001
  Total charge density on r-space grids:        0.0000000019
  Total charge density g-space grids:           0.0000000019

  Overlap energy of the core charge distribution:               0.00000004275251
  Self energy of the core charge distribution:               -977.15629455119449
  Core Hamiltonian energy:                                    318.25319848430138
  Hartree energy:                                             168.33808049552019
  Exchange-correlation energy:                                -86.32352014710455
  Dispersion energy:                                           -0.08341971910932

  Total energy:                                              -576.97195539483425

  outer SCF iter =    6 RMS gradient =   0.42E+02 energy =       -576.9719553948
     1 Pulay/Diag. 0.40E+00    3.2   434.77967541      -464.6431203160  1.12E+02
     2 Pulay/Diag. 0.40E+00    1.6   435.20951522      -549.7717749280 -8.51E+01
     3 Pulay/Diag. 0.40E+00    2.0    26.78385964      -562.7619956047 -1.30E+01
     4 Pulay/Diag. 0.40E+00    1.9    29.62623865      -562.5212094541  2.41E-01
     5 Pulay/Diag. 0.40E+00    3.4   199.04023626      -542.4838243278  2.00E+01
     6 Pulay/Diag. 0.40E+00    3.0   740.35972154      -462.7739800848  7.97E+01
     7 Pulay/Diag. 0.40E+00    4.2   735.79871782      -479.5260822324 -1.68E+01
     8 Pulay/Diag. 0.40E+00    4.0   272.47589907      -503.3665730680 -2.38E+01
     9 Pulay/Diag. 0.40E+00    3.0   172.29563103      -526.5153428197 -2.31E+01
    10 Pulay/Diag. 0.40E+00    3.7   220.51618045      -426.7210536896  9.98E+01
    11 Pulay/Diag. 0.40E+00    3.6   214.84244233      -484.9946289347 -5.83E+01
    12 Pulay/Diag. 0.40E+00    3.1   144.70926708      -481.0953765052  3.90E+00
    13 Pulay/Diag. 0.40E+00    1.6   530.53532474      -474.3226207272  6.77E+00
    14 Pulay/Diag. 0.40E+00    1.6   529.50401329      -499.9064369338 -2.56E+01
    15 Pulay/Diag. 0.40E+00    1.6   199.69113527      -524.8973988379 -2.50E+01
    16 Pulay/Diag. 0.40E+00    1.6   199.86401466      -532.7874951328 -7.89E+00
    17 Pulay/Diag. 0.40E+00    1.6   154.35907172      -540.9455447144 -8.16E+00
    18 Pulay/Diag. 0.40E+00    1.6   232.02700550      -522.3326125980  1.86E+01
    19 Pulay/Diag. 0.40E+00    1.6   224.42161157      -500.7346160421  2.16E+01
    20 Pulay/Diag. 0.40E+00    1.6   541.82172137      -483.9425919639  1.68E+01
    21 Pulay/Diag. 0.40E+00    2.0   539.26994544      -485.1822478054 -1.24E+00
    22 Pulay/Diag. 0.40E+00    3.0    72.26726007      -525.3723477987 -4.02E+01
    23 Pulay/Diag. 0.40E+00    3.0    46.95492799      -574.1270163858 -4.88E+01
    24 Pulay/Diag. 0.40E+00    3.3   228.97711582      -511.4171718918  6.27E+01
    25 Pulay/Diag. 0.40E+00    3.4   285.52692224      -527.6389163940 -1.62E+01
    26 Pulay/Diag. 0.40E+00    3.3   246.11364114      -507.3794091412  2.03E+01
    27 Pulay/Diag. 0.40E+00    3.5   277.68380528      -573.6994053416 -6.63E+01
    28 Pulay/Diag. 0.40E+00    3.3   278.41399623      -521.9483240795  5.18E+01
    29 Pulay/Diag. 0.40E+00    3.5    33.97590788      -577.7542245568 -5.58E+01
    30 Pulay/Diag. 0.40E+00    3.2    49.26878893      -601.8989922863 -2.41E+01
    31 Pulay/Diag. 0.40E+00    1.9    61.90598773      -560.4359356423  4.15E+01
    32 Pulay/Diag. 0.40E+00    1.6   284.67527943      -549.5528372031  1.09E+01
    33 Pulay/Diag. 0.40E+00    1.6   284.41417231      -525.4639782020  2.41E+01
    34 Pulay/Diag. 0.40E+00    1.6    51.55799074      -552.9582451098 -2.75E+01
    35 Pulay/Diag. 0.40E+00    1.6   720.97658179      -489.1667174886  6.38E+01
    36 Pulay/Diag. 0.40E+00    1.6   716.69906039      -427.1938143868  6.20E+01
    37 Pulay/Diag. 0.40E+00    1.6   585.80137328      -465.0754058765 -3.79E+01
    38 Pulay/Diag. 0.40E+00    1.6   198.53382663      -537.1980566080 -7.21E+01
    39 Pulay/Diag. 0.40E+00    2.0   197.45622114      -485.5204255685  5.17E+01
    40 Pulay/Diag. 0.40E+00    1.6   181.28041497      -507.3178623434 -2.18E+01
    41 Pulay/Diag. 0.40E+00    1.6   137.92849278      -507.1224469627  1.95E-01
    42 Pulay/Diag. 0.40E+00    1.6   489.73286344      -536.5122288573 -2.94E+01
    43 Pulay/Diag. 0.40E+00    1.6   490.60464747      -532.4420054843  4.07E+00
    44 Pulay/Diag. 0.40E+00    1.6   534.16809015      -579.5415802101 -4.71E+01
    45 Pulay/Diag. 0.40E+00    1.6   533.26283473      -541.5087148019  3.80E+01
    46 Pulay/Diag. 0.40E+00    1.6    39.55584042      -553.7029518409 -1.22E+01
    47 Pulay/Diag. 0.40E+00    1.6   469.16104122      -589.5021579184 -3.58E+01
    48 Pulay/Diag. 0.40E+00    2.0   471.27396809      -566.6330666126  2.29E+01
    49 Pulay/Diag. 0.40E+00    1.6   427.04379081      -601.5306931060 -3.49E+01
    50 Pulay/Diag. 0.40E+00    1.6   426.42307411      -565.2377215595  3.63E+01

  Leaving inner SCF loop after reaching    50 steps.


  Electronic density on regular grids:       -143.9999999979        0.0000000021
  Core density on regular grids:              143.9999999999       -0.0000000001
  Total charge density on r-space grids:        0.0000000020
  Total charge density g-space grids:           0.0000000020

  Overlap energy of the core charge distribution:               0.00000004275251
  Self energy of the core charge distribution:               -977.15629455119449
  Core Hamiltonian energy:                                    343.79975125301945
  Hartree energy:                                             156.81487400584874
  Exchange-correlation energy:                                -88.61263259077796
  Dispersion energy:                                           -0.08341971910932

  Total energy:                                              -565.23772155946108

  outer SCF iter =    7 RMS gradient =   0.43E+03 energy =       -565.2377215595
     1 Pulay/Diag. 0.40E+00    3.2   933.94880017      -134.6600029275  4.31E+02
     2 Pulay/Diag. 0.40E+00    1.6   934.33910131      -398.6993746093 -2.64E+02
     3 Pulay/Diag. 0.40E+00    1.6   116.71177793      -490.9362861259 -9.22E+01
     4 Pulay/Diag. 0.40E+00    1.6    92.22329014      -533.8505035767 -4.29E+01
     5 Pulay/Diag. 0.40E+00    1.6   135.57433614      -541.6533511116 -7.80E+00
     6 Pulay/Diag. 0.40E+00    1.6   253.76493316      -520.0297419962  2.16E+01
     7 Pulay/Diag. 0.40E+00    2.0   252.63419265      -492.5036484446  2.75E+01
     8 Pulay/Diag. 0.40E+00    1.6    57.84725993      -511.0584629355 -1.86E+01
     9 Pulay/Diag. 0.40E+00    1.6    13.66844035      -545.4513911398 -3.44E+01
    10 Pulay/Diag. 0.40E+00    1.6   238.51955970      -533.2606305046  1.22E+01
    11 Pulay/Diag. 0.40E+00    1.6   235.83636109      -512.8270916711  2.04E+01
    12 Pulay/Diag. 0.40E+00    1.6   160.19252116      -521.1909160614 -8.36E+00
    13 Pulay/Diag. 0.40E+00    1.6    39.02658390      -522.7563519515 -1.57E+00
    14 Pulay/Diag. 0.40E+00    1.6   548.14086707      -449.7429776502  7.30E+01
    15 Pulay/Diag. 0.40E+00    1.6   544.90854624      -459.3938116056 -9.65E+00
    16 Pulay/Diag. 0.40E+00    2.0   284.06559141      -489.0584029771 -2.97E+01
    17 Pulay/Diag. 0.40E+00    1.6     6.50489657      -543.9939999489 -5.49E+01
    18 Pulay/Diag. 0.40E+00    1.6   185.42337930      -537.8133129405  6.18E+00
    19 Pulay/Diag. 0.40E+00    1.6   241.85909496      -567.3550700369 -2.95E+01
    20 Pulay/Diag. 0.40E+00    1.6   220.82332304      -545.8394379930  2.15E+01
    21 Pulay/Diag. 0.40E+00    2.4    32.02773552      -573.7146432595 -2.79E+01
    22 Pulay/Diag. 0.40E+00    3.3   417.22039058      -612.5433445454 -3.88E+01
    23 Pulay/Diag. 0.40E+00    3.5   417.39033602      -577.8699898005  3.47E+01
    24 Pulay/Diag. 0.40E+00    4.0   404.88320467      -574.9866324117  2.88E+00
    25 Pulay/Diag. 0.40E+00    2.9    25.84282505      -602.6631080472 -2.77E+01
    26 Pulay/Diag. 0.40E+00    4.0    45.98636882      -595.6654307334  7.00E+00
    27 Pulay/Diag. 0.40E+00    3.2   722.54097719      -593.8831162835  1.78E+00
    28 Pulay/Diag. 0.40E+00    3.6   722.56106490      -566.1346065961  2.77E+01
    29 Pulay/Diag. 0.40E+00    3.6     7.22621844      -609.3719593692 -4.32E+01
    30 Pulay/Diag. 0.40E+00    2.2   112.45814597      -640.8802869956 -3.15E+01
    31 Pulay/Diag. 0.40E+00    1.6   112.75912545      -641.1619580060 -2.82E-01
    32 Pulay/Diag. 0.40E+00    1.6    26.26353307      -648.1517431195 -6.99E+00
    33 Pulay/Diag. 0.40E+00    1.6     9.74149660      -645.2094226577  2.94E+00
    34 Pulay/Diag. 0.40E+00    1.9    14.08215264      -598.1745991192  4.70E+01
    35 Pulay/Diag. 0.40E+00    1.6   538.96064028      -589.1054894708  9.07E+00
    36 Pulay/Diag. 0.40E+00    1.6   536.58318078      -557.9753896137  3.11E+01
    37 Pulay/Diag. 0.40E+00    1.6    28.55976833      -616.4254415612 -5.85E+01
    38 Pulay/Diag. 0.40E+00    1.6   326.85444412      -602.6332272659  1.38E+01
    39 Pulay/Diag. 0.40E+00    1.6   327.09786239      -572.8528137075  2.98E+01
    40 Pulay/Diag. 0.40E+00    1.6   204.80031939      -566.6172409405  6.24E+00
    41 Pulay/Diag. 0.40E+00    1.6    47.48663551      -633.9470561371 -6.73E+01
    42 Pulay/Diag. 0.40E+00    1.6    76.47235469      -580.0030414819  5.39E+01
    43 Pulay/Diag. 0.40E+00    2.0   103.37478933      -547.3305330855  3.27E+01
    44 Pulay/Diag. 0.40E+00    1.6    25.59452817      -552.3977794804 -5.07E+00
    45 Pulay/Diag. 0.40E+00    1.6   723.28480990      -531.1000547021  2.13E+01
    46 Pulay/Diag. 0.40E+00    1.6   721.92043905      -506.0741794754  2.50E+01
    47 Pulay/Diag. 0.40E+00    1.6   405.43821810      -521.4668873004 -1.54E+01
    48 Pulay/Diag. 0.40E+00    1.6   406.67340112      -550.2638933830 -2.88E+01
    49 Pulay/Diag. 0.40E+00    1.6    45.42626269      -569.4216247221 -1.92E+01
    50 Pulay/Diag. 0.40E+00    1.6    74.61957425      -573.7550789948 -4.33E+00

  Leaving inner SCF loop after reaching    50 steps.


  Electronic density on regular grids:       -143.9999999980        0.0000000020
  Core density on regular grids:              143.9999999999       -0.0000000001
  Total charge density on r-space grids:        0.0000000019
  Total charge density g-space grids:           0.0000000019

  Overlap energy of the core charge distribution:               0.00000004275251
  Self energy of the core charge distribution:               -977.15629455119449
  Core Hamiltonian energy:                                    323.03551859938483
  Hartree energy:                                             167.94376994158716
  Exchange-correlation energy:                                -87.49465330826661
  Dispersion energy:                                           -0.08341971910932

  Total energy:                                              -573.75507899484592

  outer SCF iter =    8 RMS gradient =   0.75E+02 energy =       -573.7550789948
     1 Pulay/Diag. 0.40E+00    3.2  1260.51888034     19050.3079912012  1.96E+04
     2 Pulay/Diag. 0.40E+00    2.0  1260.51961616      -462.0076777342 -1.95E+04
     3 Pulay/Diag. 0.40E+00    1.6   138.42429379      -543.5206591154 -8.15E+01
     4 Pulay/Diag. 0.40E+00    1.6    51.92956128      -550.8566182152 -7.34E+00
     5 Pulay/Diag. 0.40E+00    1.6    81.14160307      -517.3976851576  3.35E+01
     6 Pulay/Diag. 0.40E+00    1.6   382.73802463      -473.3773208999  4.40E+01
     7 Pulay/Diag. 0.40E+00    1.6   380.63986685      -497.6048091453 -2.42E+01
     8 Pulay/Diag. 0.40E+00    1.6   682.98433458      -510.3385854236 -1.27E+01
     9 Pulay/Diag. 0.40E+00    1.6   682.53845565      -491.5626288221  1.88E+01
    10 Pulay/Diag. 0.40E+00    1.6   235.99668671      -474.1413800433  1.74E+01
    11 Pulay/Diag. 0.40E+00    2.0   235.82669566      -493.3737703077 -1.92E+01
    12 Pulay/Diag. 0.40E+00    1.6    54.45364910      -532.5441777021 -3.92E+01
    13 Pulay/Diag. 0.40E+00    1.6   736.57396071      -505.6502683313  2.69E+01
    14 Pulay/Diag. 0.40E+00    1.6   734.18820316      -484.6003618540  2.10E+01
    15 Pulay/Diag. 0.40E+00    1.6   232.58772292      -521.9177925213 -3.73E+01
    16 Pulay/Diag. 0.40E+00    1.6     9.04954146      -555.5500343040 -3.36E+01
    17 Pulay/Diag. 0.40E+00    1.6   536.85103151      -505.6887347009  4.99E+01
    18 Pulay/Diag. 0.40E+00    1.6   536.34296078      -490.7661406749  1.49E+01
    19 Pulay/Diag. 0.40E+00    1.6   197.93001972      -526.5662380260 -3.58E+01
    20 Pulay/Diag. 0.40E+00    2.5    35.63249302      -571.8139080410 -4.52E+01
    21 Pulay/Diag. 0.40E+00    3.0   113.08247000      -582.2560739084 -1.04E+01
    22 Pulay/Diag. 0.40E+00    3.6   112.88362985      -598.5899859853 -1.63E+01
    23 Pulay/Diag. 0.40E+00    3.6    22.07889579      -577.9079168436  2.07E+01
    24 Pulay/Diag. 0.40E+00    3.4    82.78948806      -620.3396099945 -4.24E+01
    25 Pulay/Diag. 0.40E+00    3.5   105.01809210      -618.7998790087  1.54E+00
    26 Pulay/Diag. 0.40E+00    3.3   175.45697901      -610.1476309547  8.65E+00
    27 Pulay/Diag. 0.40E+00    3.2   146.36507782      -589.2636508604  2.09E+01
    28 Pulay/Diag. 0.40E+00    3.2   548.11037207      -564.5381662688  2.47E+01
    29 Pulay/Diag. 0.40E+00    3.5   548.03642107      -527.0987789744  3.74E+01
    30 Pulay/Diag. 0.40E+00    1.6   508.11949806      -557.5929147780 -3.05E+01
    31 Pulay/Diag. 0.40E+00    1.6   507.43981672      -530.9265403816  2.67E+01
    32 Pulay/Diag. 0.40E+00    1.6    80.66179595      -545.5621783710 -1.46E+01
    33 Pulay/Diag. 0.40E+00    1.6   552.55908449      -565.3308560277 -1.98E+01
    34 Pulay/Diag. 0.40E+00    1.6   551.61156270      -541.4416458363  2.39E+01
    35 Pulay/Diag. 0.40E+00    1.6    15.57782899      -582.9215805700 -4.15E+01
    36 Pulay/Diag. 0.40E+00    1.6    48.65658336      -589.9162040521 -6.99E+00
    37 Pulay/Diag. 0.40E+00    2.0   242.18948518      -628.4379631854 -3.85E+01
    38 Pulay/Diag. 0.40E+00    1.6   242.29236833      -563.8143183678  6.46E+01
    39 Pulay/Diag. 0.40E+00    1.6   139.24294329      -569.0120153941 -5.20E+00
    40 Pulay/Diag. 0.40E+00    1.6   750.73510034      -497.1423532787  7.19E+01
    41 Pulay/Diag. 0.40E+00    1.6   744.42896561      -453.3297170083  4.38E+01
    42 Pulay/Diag. 0.40E+00    1.7   140.84326914      -533.2583561266 -7.99E+01
    43 Pulay/Diag. 0.40E+00    1.6   225.79728878      -570.1952806938 -3.69E+01
    44 Pulay/Diag. 0.40E+00    1.6   312.60886252      -506.0928405262  6.41E+01
    45 Pulay/Diag. 0.40E+00    1.6   458.47914265      -497.2777086691  8.82E+00
    46 Pulay/Diag. 0.40E+00    2.1   456.25555375      -472.9600121561  2.43E+01
    47 Pulay/Diag. 0.40E+00    1.6    44.18402090      -510.6841333612 -3.77E+01
    48 Pulay/Diag. 0.40E+00    1.6   243.93283956      -526.8536603408 -1.62E+01
    49 Pulay/Diag. 0.40E+00    2.6   244.03493806      -531.9204873076 -5.07E+00
    50 Pulay/Diag. 0.40E+00    3.5   496.93383011      -560.3450725681 -2.84E+01

  Leaving inner SCF loop after reaching    50 steps.


  Electronic density on regular grids:       -143.9999999979        0.0000000021
  Core density on regular grids:              143.9999999999       -0.0000000001
  Total charge density on r-space grids:        0.0000000020
  Total charge density g-space grids:           0.0000000020

  Overlap energy of the core charge distribution:               0.00000004275251
  Self energy of the core charge distribution:               -977.15629455119449
  Core Hamiltonian energy:                                    323.61983231158075
  Hartree energy:                                             181.85119562214766
  Exchange-correlation energy:                                -88.57638627425465
  Dispersion energy:                                           -0.08341971910932

  Total energy:                                              -560.34507256807751

  outer SCF iter =    9 RMS gradient =   0.50E+03 energy =       -560.3450725681
     1 Pulay/Diag. 0.40E+00    6.8  1260.34247026     29043.6795320255  2.96E+04
     2 Pulay/Diag. 0.40E+00    3.2  1260.34164254      -424.4252641187 -2.95E+04
     3 Pulay/Diag. 0.40E+00    3.4   769.62663093      -399.3254333619  2.51E+01
     4 Pulay/Diag. 0.40E+00    3.6   489.50101320      -430.6989074104 -3.14E+01
     5 Pulay/Diag. 0.40E+00    3.4   298.07456198      -414.9303070121  1.58E+01
     6 Pulay/Diag. 0.40E+00    3.2   369.81530325      -401.2810210847  1.36E+01
     7 Pulay/Diag. 0.40E+00    3.1   369.71686805      -473.8328106400 -7.26E+01
     8 Pulay/Diag. 0.40E+00    2.3   184.35314699      -459.0327341783  1.48E+01
     9 Pulay/Diag. 0.40E+00    1.7   116.10662442      -517.3372656249 -5.83E+01
    10 Pulay/Diag. 0.40E+00    1.6   116.10790911      -518.9343964550 -1.60E+00
    11 Pulay/Diag. 0.40E+00    1.6    39.91349791      -561.4644239260 -4.25E+01
    12 Pulay/Diag. 0.40E+00    1.6    36.86589053      -559.2289710127  2.24E+00
    13 Pulay/Diag. 0.40E+00    1.6    27.06312981      -553.0119072425  6.22E+00
    14 Pulay/Diag. 0.40E+00    2.1   726.13742165      -573.4301907300 -2.04E+01
    15 Pulay/Diag. 0.40E+00    2.2   724.99562699      -525.1606586481  4.83E+01
    16 Pulay/Diag. 0.40E+00    3.7   409.09461066      -534.6344878450 -9.47E+00
    17 Pulay/Diag. 0.40E+00    3.5   280.45571242      -559.7475232685 -2.51E+01
    18 Pulay/Diag. 0.40E+00    3.4   287.64640807      -519.6754592866  4.01E+01
    19 Pulay/Diag. 0.40E+00    3.4   699.69526198      -536.3448285276 -1.67E+01
    20 Pulay/Diag. 0.40E+00    3.0   679.55285156      -491.0842703672  4.53E+01
    21 Pulay/Diag. 0.40E+00    3.5    80.03738202      -493.5155124821 -2.43E+00
    22 Pulay/Diag. 0.40E+00    2.9   199.93403614      -465.5637609651  2.80E+01
    23 Pulay/Diag. 0.40E+00    3.7   193.03264649      -512.1509535610 -4.66E+01
    24 Pulay/Diag. 0.40E+00    2.5     5.30852560      -490.7235866748  2.14E+01
    25 Pulay/Diag. 0.40E+00    1.6   216.24478324      -507.8228925595 -1.71E+01
    26 Pulay/Diag. 0.40E+00    1.6   248.54263434      -511.8990711029 -4.08E+00
    27 Pulay/Diag. 0.40E+00    1.6   253.04745070      -478.8559399440  3.30E+01
    28 Pulay/Diag. 0.40E+00    1.6   244.07989762      -502.3470602370 -2.35E+01
    29 Pulay/Diag. 0.40E+00    1.6    35.74669084      -542.8307782738 -4.05E+01
    30 Pulay/Diag. 0.40E+00    1.6   444.39912326      -535.7616492101  7.07E+00
    31 Pulay/Diag. 0.40E+00    1.6   442.29186694      -526.0138992407  9.75E+00
    32 Pulay/Diag. 0.40E+00    2.1   169.54884126      -538.7268138834 -1.27E+01
    33 Pulay/Diag. 0.40E+00    1.6   301.02316653      -570.6698375722 -3.19E+01
    34 Pulay/Diag. 0.40E+00    1.6   301.02096965      -500.4282267695  7.02E+01
    35 Pulay/Diag. 0.40E+00    1.6   119.32010464      -523.5635440897 -2.31E+01
    36 Pulay/Diag. 0.40E+00    1.6   110.94450543      -533.3440955057 -9.78E+00
    37 Pulay/Diag. 0.40E+00    1.6    42.35329746      -573.9808035838 -4.06E+01
    38 Pulay/Diag. 0.40E+00    1.6   222.29963094      -586.0286830634 -1.20E+01
    39 Pulay/Diag. 0.40E+00    1.7   380.17536657      -553.8051981682  3.22E+01
    40 Pulay/Diag. 0.40E+00    1.6   380.01383124      -552.9903682018  8.15E-01
    41 Pulay/Diag. 0.40E+00    2.0   100.56262268      -541.8965721001  1.11E+01
    42 Pulay/Diag. 0.40E+00    1.6   101.04296181      -559.3242370673 -1.74E+01
    43 Pulay/Diag. 0.40E+00    1.7   550.57562111      -558.8098790653  5.14E-01
    44 Pulay/Diag. 0.40E+00    1.6   545.87601199      -530.2787629856  2.85E+01
    45 Pulay/Diag. 0.40E+00    1.7   159.00338690      -561.5372235593 -3.13E+01
    46 Pulay/Diag. 0.40E+00    1.6   736.32176286      -523.1423150199  3.84E+01
    47 Pulay/Diag. 0.40E+00    1.6   733.55209019      -526.7308717478 -3.59E+00
    48 Pulay/Diag. 0.40E+00    1.7   263.34229704      -550.9498222535 -2.42E+01
    49 Pulay/Diag. 0.40E+00    1.6    34.13423275      -574.1936527009 -2.32E+01
    50 Pulay/Diag. 0.40E+00    2.0   129.88945010      -600.5343739761 -2.63E+01

  Leaving inner SCF loop after reaching    50 steps.


  Electronic density on regular grids:       -143.9999999976        0.0000000024
  Core density on regular grids:              143.9999999999       -0.0000000001
  Total charge density on r-space grids:        0.0000000023
  Total charge density g-space grids:           0.0000000023

  Overlap energy of the core charge distribution:               0.00000004275251
  Self energy of the core charge distribution:               -977.15629455119449
  Core Hamiltonian energy:                                    331.74826841004062
  Hartree energy:                                             141.40728402136168
  Exchange-correlation energy:                                -96.45021217996214
  Dispersion energy:                                           -0.08341971910932

  Total energy:                                              -600.53437397611117

  outer SCF iter =   10 RMS gradient =   0.13E+03 energy =       -600.5343739761
     1 Pulay/Diag. 0.40E+00    3.6  1115.79870123      8381.3616869903  8.98E+03
     2 Pulay/Diag. 0.40E+00    1.6  1115.82000389      -493.4096041156 -8.87E+03
     3 Pulay/Diag. 0.40E+00    1.7   133.52091427      -601.2057222843 -1.08E+02
     4 Pulay/Diag. 0.40E+00    1.6   172.01706953      -569.9604042057  3.12E+01
     5 Pulay/Diag. 0.40E+00    1.7   238.43008471      -495.2577028568  7.47E+01
     6 Pulay/Diag. 0.40E+00    1.6   238.43813354      -507.0710277764 -1.18E+01
     7 Pulay/Diag. 0.40E+00    1.7   296.15247855      -518.7476451147 -1.17E+01
     8 Pulay/Diag. 0.40E+00    1.6   270.82724047      -514.5629487633  4.18E+00
     9 Pulay/Diag. 0.40E+00    2.0    97.47226306      -544.5204573050 -3.00E+01
    10 Pulay/Diag. 0.40E+00    1.6   539.26497905      -548.8189388339 -4.30E+00
    11 Pulay/Diag. 0.40E+00    1.7   539.26680518      -523.2990546438  2.55E+01
    12 Pulay/Diag. 0.40E+00    1.6   469.61839063      -540.1976842358 -1.69E+01
    13 Pulay/Diag. 0.40E+00    1.7    47.75563844      -562.5474244443 -2.23E+01
    14 Pulay/Diag. 0.40E+00    3.2   107.16850445      -572.0192124342 -9.47E+00
    15 Pulay/Diag. 0.40E+00    4.4   107.12349258      -562.6758613056  9.34E+00
    16 Pulay/Diag. 0.40E+00    3.4   727.29501228      -584.7773425216 -2.21E+01
    17 Pulay/Diag. 0.40E+00    3.2   723.44678327      -515.3607305383  6.94E+01
    18 Pulay/Diag. 0.40E+00    3.4    25.96720532      -581.7215785995 -6.64E+01
    19 Pulay/Diag. 0.40E+00    3.0    29.30424974      -579.9430235725  1.78E+00
    20 Pulay/Diag. 0.40E+00    4.0   527.14960549      -596.7887062670 -1.68E+01
    21 Pulay/Diag. 0.40E+00    3.3   525.79831525      -544.3409097692  5.24E+01
    22 Pulay/Diag. 0.40E+00    3.1    98.41585440      -588.5768842073 -4.42E+01
    23 Pulay/Diag. 0.40E+00    2.2    36.26019505      -582.8420354232  5.73E+00
    24 Pulay/Diag. 0.40E+00    1.6   110.60451444      -601.9311716643 -1.91E+01
    25 Pulay/Diag. 0.40E+00    1.6   171.34418326      -593.0073388333  8.92E+00
    26 Pulay/Diag. 0.40E+00    2.0   171.33707846      -586.6017036377  6.41E+00
    27 Pulay/Diag. 0.40E+00    1.7    71.74641662      -625.1250675578 -3.85E+01
    28 Pulay/Diag. 0.40E+00    1.6    87.00618149      -582.1162858968  4.30E+01
    29 Pulay/Diag. 0.40E+00    1.7    31.12402917      -599.6836413927 -1.76E+01
    30 Pulay/Diag. 0.40E+00    1.6   398.27558066      -561.5965706585  3.81E+01
    31 Pulay/Diag. 0.40E+00    1.7   396.75721390      -548.4122621187  1.32E+01
    32 Pulay/Diag. 0.40E+00    1.6    71.83682625      -577.2096759447 -2.88E+01
    33 Pulay/Diag. 0.40E+00    1.6   253.28990273      -587.1829594389 -9.97E+00
    34 Pulay/Diag. 0.40E+00    2.1   253.14361035      -566.6124448701  2.06E+01
    35 Pulay/Diag. 0.40E+00    1.7   434.48634092      -592.9379901077 -2.63E+01
    36 Pulay/Diag. 0.40E+00    1.6   434.48670103      -514.7813821336  7.82E+01
    37 Pulay/Diag. 0.40E+00    1.7   296.31037405      -504.4501713594  1.03E+01
    38 Pulay/Diag. 0.40E+00    1.7   246.67999318      -500.1740702595  4.28E+00
    39 Pulay/Diag. 0.40E+00    1.7    53.32611832      -545.3882821973 -4.52E+01
    40 Pulay/Diag. 0.40E+00    1.6   311.59203939      -550.6819424934 -5.29E+00
    41 Pulay/Diag. 0.40E+00    1.6   312.94695084      -470.1380962096  8.05E+01
    42 Pulay/Diag. 0.40E+00    1.7   302.54422619      -496.8856999457 -2.67E+01
    43 Pulay/Diag. 0.40E+00    2.1   272.08514658      -493.5670479973  3.32E+00
    44 Pulay/Diag. 0.40E+00    1.7    47.49931462      -543.0086408312 -4.94E+01
    45 Pulay/Diag. 0.40E+00    1.7   177.86546329      -604.9918528140 -6.20E+01
    46 Pulay/Diag. 0.40E+00    1.6   219.25898779      -565.0836273387  3.99E+01
    47 Pulay/Diag. 0.40E+00    1.7   198.87495250      -580.8833800777 -1.58E+01
    48 Pulay/Diag. 0.40E+00    1.6   260.30179583      -566.9951332417  1.39E+01
    49 Pulay/Diag. 0.40E+00    1.6   260.34556178      -536.9323794209  3.01E+01
    50 Pulay/Diag. 0.40E+00    1.7   554.76074703      -512.6192290998  2.43E+01

  Leaving inner SCF loop after reaching    50 steps.


  Electronic density on regular grids:       -143.9999999981        0.0000000019
  Core density on regular grids:              143.9999999999       -0.0000000001
  Total charge density on r-space grids:        0.0000000018
  Total charge density g-space grids:           0.0000000018

  Overlap energy of the core charge distribution:               0.00000004275251
  Self energy of the core charge distribution:               -977.15629455119449
  Core Hamiltonian energy:                                    316.93923723562534
  Hartree energy:                                             235.54637107693225
  Exchange-correlation energy:                                -87.86512318478236
  Dispersion energy:                                           -0.08341971910932

  Total energy:                                              -512.61922909977602

  outer SCF iter =   11 RMS gradient =   0.55E+03 energy =       -512.6192290998
     1 Pulay/Diag. 0.40E+00    3.3  1115.04241954     29886.9001364373  3.04E+04
     2 Pulay/Diag. 0.40E+00    2.1  1115.03908601      -373.2412548574 -3.03E+04
     3 Pulay/Diag. 0.40E+00    1.6   519.06781653      -430.0645130430 -5.68E+01
     4 Pulay/Diag. 0.40E+00    1.6   246.97832402      -478.8684448999 -4.88E+01
     5 Pulay/Diag. 0.40E+00    1.6   266.45672996      -419.3843350607  5.95E+01
     6 Pulay/Diag. 0.40E+00    1.6   633.16310264      -338.8291630082  8.06E+01
     7 Pulay/Diag. 0.40E+00    1.6   624.03957657      -435.6844766349 -9.69E+01
     8 Pulay/Diag. 0.40E+00    1.7    55.40091277      -527.2224288229 -9.15E+01
     9 Pulay/Diag. 0.40E+00    1.7   202.75577582      -487.1046208724  4.01E+01
    10 Pulay/Diag. 0.40E+00    1.7   244.92160733      -448.4202430695  3.87E+01
    11 Pulay/Diag. 0.40E+00    2.1   237.59918765      -462.3496480623 -1.39E+01
    12 Pulay/Diag. 0.40E+00    2.7   226.97875202      -533.9336575047 -7.16E+01
    13 Pulay/Diag. 0.40E+00    3.9   256.32270813      -517.1143367048  1.68E+01
    14 Pulay/Diag. 0.40E+00    3.7   128.99627931      -561.9288823045 -4.48E+01
    15 Pulay/Diag. 0.40E+00    3.7    82.79327983      -576.5522002460 -1.46E+01
    16 Pulay/Diag. 0.40E+00    3.2    26.41998836      -586.2792792803 -9.73E+00
    17 Pulay/Diag. 0.40E+00    3.5   740.34601296      -548.5749399265  3.77E+01
    18 Pulay/Diag. 0.40E+00    3.6   734.57347686      -519.0627458932  2.95E+01
    19 Pulay/Diag. 0.40E+00    3.3    42.81552293      -574.6097260102 -5.55E+01
    20 Pulay/Diag. 0.40E+00    3.2   434.73263384      -566.1075727069  8.50E+00
    21 Pulay/Diag. 0.40E+00    2.5   431.59802286      -463.5432405900  1.03E+02
    22 Pulay/Diag. 0.40E+00    1.6   224.10552263      -509.4934155890 -4.60E+01
    23 Pulay/Diag. 0.40E+00    1.7    42.23761126      -526.9852707628 -1.75E+01
    24 Pulay/Diag. 0.40E+00    1.6   313.92840642      -565.6514647685 -3.87E+01
    25 Pulay/Diag. 0.40E+00    1.6   314.27236695      -552.5058332848  1.31E+01
    26 Pulay/Diag. 0.40E+00    1.6   196.19533945      -574.9526986016 -2.24E+01
    27 Pulay/Diag. 0.40E+00    1.6    66.75494932      -557.3457065849  1.76E+01
    28 Pulay/Diag. 0.40E+00    2.0    69.49227566      -565.9682432262 -8.62E+00
    29 Pulay/Diag. 0.40E+00    1.6   106.01513766      -561.1994666371  4.77E+00
    30 Pulay/Diag. 0.40E+00    1.6   552.69419921      -559.1783419262  2.02E+00
    31 Pulay/Diag. 0.40E+00    1.6   550.85931756      -510.0395733185  4.91E+01
    32 Pulay/Diag. 0.40E+00    1.7    46.52128679      -533.0777164540 -2.30E+01
    33 Pulay/Diag. 0.40E+00    1.6   510.53349592      -556.9013476591 -2.38E+01
    34 Pulay/Diag. 0.40E+00    1.6   510.60982054      -518.3632207162  3.85E+01
    35 Pulay/Diag. 0.40E+00    1.6    37.37434328      -559.1092809035 -4.07E+01
    36 Pulay/Diag. 0.40E+00    1.6    62.56020429      -579.5230729092 -2.04E+01
    37 Pulay/Diag. 0.40E+00    2.0    48.89996280      -577.6897764381  1.83E+00
    38 Pulay/Diag. 0.40E+00    1.6   713.87376219      -527.1477777299  5.05E+01
    39 Pulay/Diag. 0.40E+00    2.4   711.47960547      -501.2791742791  2.59E+01
    40 Pulay/Diag. 0.40E+00    3.4    63.42680355      -524.8846994860 -2.36E+01
    41 Pulay/Diag. 0.40E+00    3.4    35.28212886      -575.9271231164 -5.10E+01
    42 Pulay/Diag. 0.40E+00    4.2   562.50607831      -454.9400078630  1.21E+02
    43 Pulay/Diag. 0.40E+00    3.1   560.05629289      -463.3684201974 -8.43E+00
    44 Pulay/Diag. 0.40E+00    3.9   277.19752954      -502.4887017416 -3.91E+01
    45 Pulay/Diag. 0.40E+00    3.1    13.31475076      -567.7381044894 -6.52E+01
    46 Pulay/Diag. 0.40E+00    3.3   751.30817415      -335.3072631926  2.32E+02
    47 Pulay/Diag. 0.40E+00    3.6   743.83708830      -375.0088789691 -3.97E+01
    48 Pulay/Diag. 0.40E+00    1.7   206.99067669      -495.3825999810 -1.20E+02
    49 Pulay/Diag. 0.40E+00    1.6   224.96318558      -544.6156647896 -4.92E+01
    50 Pulay/Diag. 0.40E+00    1.7   428.95210409      -383.9139498067  1.61E+02

  Leaving inner SCF loop after reaching    50 steps.


  Electronic density on regular grids:       -143.9999999982        0.0000000018
  Core density on regular grids:              143.9999999999       -0.0000000001
  Total charge density on r-space grids:        0.0000000017
  Total charge density g-space grids:           0.0000000017

  Overlap energy of the core charge distribution:               0.00000004275251
  Self energy of the core charge distribution:               -977.15629455119449
  Core Hamiltonian energy:                                    360.43279719050548
  Hartree energy:                                             323.83118123094852
  Exchange-correlation energy:                                -90.93821400064260
  Dispersion energy:                                           -0.08341971910932

  Total energy:                                              -383.91394980673988

  outer SCF iter =   12 RMS gradient =   0.43E+03 energy =       -383.9139498067
     1 Pulay/Diag. 0.40E+00    3.3  1115.00851837     28945.3220580867  2.93E+04
     2 Pulay/Diag. 0.40E+00    1.6  1115.00430227      -238.1951978878 -2.92E+04
     3 Pulay/Diag. 0.40E+00    1.7   556.76608491      -396.3213610588 -1.58E+02
     4 Pulay/Diag. 0.40E+00    2.0   215.18006091      -432.3207972602 -3.60E+01
     5 Pulay/Diag. 0.40E+00    1.7   243.70868515      -384.6243249249  4.77E+01
     6 Pulay/Diag. 0.40E+00    3.6   243.40149774      -346.1445575372  3.85E+01
     7 Pulay/Diag. 0.40E+00    3.3   222.65085930      -445.1162494531 -9.90E+01
     8 Pulay/Diag. 0.40E+00    3.6   172.38623802      -465.7552192295 -2.06E+01
     9 Pulay/Diag. 0.40E+00    3.8   200.27482229      -483.0969141343 -1.73E+01
    10 Pulay/Diag. 0.40E+00    3.8   200.26945745      -502.2605222307 -1.92E+01
    11 Pulay/Diag. 0.40E+00    3.5    98.46127406      -533.3546872076 -3.11E+01
    12 Pulay/Diag. 0.40E+00    3.3   150.76033461      -552.3147287432 -1.90E+01
    13 Pulay/Diag. 0.40E+00    3.0   261.77458906      -545.8568610030  6.46E+00
    14 Pulay/Diag. 0.40E+00    2.5   270.62921787      -515.8702879851  3.00E+01
    15 Pulay/Diag. 0.40E+00    1.6   152.15686677      -514.1985261081  1.67E+00
    16 Pulay/Diag. 0.40E+00    1.6   737.69351345      -501.5426653262  1.27E+01
    17 Pulay/Diag. 0.40E+00    1.6   736.58897872      -428.9075118478  7.26E+01
    18 Pulay/Diag. 0.40E+00    1.6   521.22558964      -468.4018487811 -3.95E+01
    19 Pulay/Diag. 0.40E+00    1.7    73.52641899      -544.9044293922 -7.65E+01
    20 Pulay/Diag. 0.40E+00    1.6   536.80494435      -564.6660432865 -1.98E+01
    21 Pulay/Diag. 0.40E+00    1.7   536.40562992      -527.9993736771  3.67E+01
    22 Pulay/Diag. 0.40E+00    2.0    19.88420538      -566.5079993618 -3.85E+01
    23 Pulay/Diag. 0.40E+00    1.7    19.07679825      -563.8539606533  2.65E+00
    24 Pulay/Diag. 0.40E+00    1.7    36.21700189      -597.2904618067 -3.34E+01
    25 Pulay/Diag. 0.40E+00    1.7   536.12292681      -602.2388194362 -4.95E+00
    26 Pulay/Diag. 0.40E+00    1.7   529.62041987      -547.8117734281  5.44E+01
    27 Pulay/Diag. 0.40E+00    1.7    98.07469889      -572.2970140158 -2.45E+01
    28 Pulay/Diag. 0.40E+00    1.7   107.44886312      -553.4475514771  1.88E+01
    29 Pulay/Diag. 0.40E+00    1.7   734.29617542      -504.2910732007  4.92E+01
    30 Pulay/Diag. 0.40E+00    1.7   729.92901420      -492.3437118792  1.19E+01
    31 Pulay/Diag. 0.40E+00    2.0   232.96284394      -529.2143986351 -3.69E+01
    32 Pulay/Diag. 0.40E+00    1.6    50.35127469      -573.2609158846 -4.40E+01
    33 Pulay/Diag. 0.40E+00    1.6   119.22733295      -607.6328949738 -3.44E+01
    34 Pulay/Diag. 0.40E+00    1.7   228.97745089      -614.1548008188 -6.52E+00
    35 Pulay/Diag. 0.40E+00    1.6   229.20971785      -583.3171363623  3.08E+01
    36 Pulay/Diag. 0.40E+00    1.7    54.71147297      -589.1210073210 -5.80E+00
    37 Pulay/Diag. 0.40E+00    1.7    51.87250214      -582.1233770169  7.00E+00
    38 Pulay/Diag. 0.40E+00    1.6    35.29658685      -569.5519183812  1.26E+01
    39 Pulay/Diag. 0.40E+00    1.8    21.88178385      -596.2005536806 -2.66E+01
    40 Pulay/Diag. 0.40E+00    1.8    29.32699164      -581.8400750917  1.44E+01
    41 Pulay/Diag. 0.40E+00    1.7   738.64830424      -537.3494550497  4.45E+01
    42 Pulay/Diag. 0.40E+00    1.6   735.71639385      -510.1510519263  2.72E+01
    43 Pulay/Diag. 0.40E+00    1.7   184.89408144      -540.7969446171 -3.06E+01
    44 Pulay/Diag. 0.40E+00    1.7    35.96689663      -575.8689022557 -3.51E+01
    45 Pulay/Diag. 0.40E+00    1.7   158.82411392      -566.8669963276  9.00E+00
    46 Pulay/Diag. 0.40E+00    1.7   161.25215283      -566.9182086572 -5.12E-02
    47 Pulay/Diag. 0.40E+00    1.7   165.81838497      -538.3180214320  2.86E+01
    48 Pulay/Diag. 0.40E+00    2.1   193.96754503      -582.6320760440 -4.43E+01
    49 Pulay/Diag. 0.40E+00    1.7   208.67923413      -568.9146601562  1.37E+01
    50 Pulay/Diag. 0.40E+00    1.7    33.52776483      -595.8576896654 -2.69E+01

  Leaving inner SCF loop after reaching    50 steps.


  Electronic density on regular grids:       -143.9999999979        0.0000000021
  Core density on regular grids:              143.9999999999       -0.0000000001
  Total charge density on r-space grids:        0.0000000019
  Total charge density g-space grids:           0.0000000019

  Overlap energy of the core charge distribution:               0.00000004275251
  Self energy of the core charge distribution:               -977.15629455119449
  Core Hamiltonian energy:                                    307.66276907881348
  Hartree energy:                                             162.20623293410995
  Exchange-correlation energy:                                -88.48697745073285
  Dispersion energy:                                           -0.08341971910932

  Total energy:                                              -595.85768966536068

  outer SCF iter =   13 RMS gradient =   0.34E+02 energy =       -595.8576896654
     1 Pulay/Diag. 0.40E+00    3.3  1013.04150030       495.8583233115  1.09E+03
     2 Pulay/Diag. 0.40E+00    1.6  1013.41891612      -516.2779771740 -1.01E+03
     3 Pulay/Diag. 0.40E+00    2.5    74.74622030      -543.6438966785 -2.74E+01
     4 Pulay/Diag. 0.40E+00    3.1   446.34384770      -522.3489824319  2.13E+01
     5 Pulay/Diag. 0.40E+00    3.6   428.16064029      -499.3701312726  2.30E+01
     6 Pulay/Diag. 0.40E+00    3.2   533.37651560      -517.2329196845 -1.79E+01
     7 Pulay/Diag. 0.40E+00    3.8   531.44017721      -487.4152326847  2.98E+01
     8 Pulay/Diag. 0.40E+00    3.2    64.14969895      -517.6968869370 -3.03E+01
     9 Pulay/Diag. 0.40E+00    3.2   161.91860988      -524.4994695702 -6.80E+00
    10 Pulay/Diag. 0.40E+00    3.7   203.43144577      -417.1097844080  1.07E+02
    11 Pulay/Diag. 0.40E+00    3.7   182.12250500      -493.5859007946 -7.65E+01
    12 Pulay/Diag. 0.40E+00    3.1   145.36181591      -485.2078990729  8.38E+00
    13 Pulay/Diag. 0.40E+00    1.6   101.54596384      -514.6046850857 -2.94E+01
    14 Pulay/Diag. 0.40E+00    1.7   416.12932816      -491.5432033346  2.31E+01
    15 Pulay/Diag. 0.40E+00    2.1   416.13279504      -495.0241483771 -3.48E+00
    16 Pulay/Diag. 0.40E+00    1.6   262.11556522      -514.0354683020 -1.90E+01
    17 Pulay/Diag. 0.40E+00    1.6    31.15913846      -548.8822987005 -3.48E+01
    18 Pulay/Diag. 0.40E+00    1.6   556.38610991      -512.1865539010  3.67E+01
    19 Pulay/Diag. 0.40E+00    1.7   553.25381590      -476.6898639371  3.55E+01
    20 Pulay/Diag. 0.40E+00    1.6    45.46871104      -557.4487629146 -8.08E+01
    21 Pulay/Diag. 0.40E+00    1.6    21.90749840      -569.3018333582 -1.19E+01
    22 Pulay/Diag. 0.40E+00    1.7   483.23304677      -571.7898683396 -2.49E+00
    23 Pulay/Diag. 0.40E+00    1.6   481.47886280      -533.7478613561  3.80E+01
    24 Pulay/Diag. 0.40E+00    2.1   240.57363310      -542.1702520559 -8.42E+00
    25 Pulay/Diag. 0.40E+00    1.6   379.79272656      -578.1954549611 -3.60E+01
    26 Pulay/Diag. 0.40E+00    1.7   380.44296359      -585.3959584005 -7.20E+00
    27 Pulay/Diag. 0.40E+00    1.6   220.43128266      -568.9183427320  1.65E+01
    28 Pulay/Diag. 0.40E+00    1.7   196.20027063      -564.5573952362  4.36E+00
    29 Pulay/Diag. 0.40E+00    1.6   101.14783213      -577.1032544296 -1.25E+01
    30 Pulay/Diag. 0.40E+00    1.7   546.50548311      -574.5645544607  2.54E+00
    31 Pulay/Diag. 0.40E+00    1.6   545.49720965      -553.4711919287  2.11E+01
    32 Pulay/Diag. 0.40E+00    1.7   717.01891215      -577.3241419186 -2.39E+01
    33 Pulay/Diag. 0.40E+00    2.0   712.95128639      -554.3103731496  2.30E+01
    34 Pulay/Diag. 0.40E+00    1.7    43.28144491      -600.7551439765 -4.64E+01
    35 Pulay/Diag. 0.40E+00    1.6   386.87068802      -611.3093350829 -1.06E+01
    36 Pulay/Diag. 0.40E+00    1.7   366.69340794      -585.4723388596  2.58E+01
    37 Pulay/Diag. 0.40E+00    1.7    69.42809363      -656.6348459033 -7.12E+01
    38 Pulay/Diag. 0.40E+00    1.7    96.73207337      -568.5100925903  8.81E+01
    39 Pulay/Diag. 0.40E+00    1.6    96.72948424      -520.6819926395  4.78E+01
    40 Pulay/Diag. 0.40E+00    1.7    29.71519499      -577.0606783625 -5.64E+01
    41 Pulay/Diag. 0.40E+00    1.6   544.92239341      -532.6266219577  4.44E+01
[...]
    45 Pulay/Diag. 0.40E+00    3.5   181.43461801      -585.0163717923 -4.51E+00
    46 Pulay/Diag. 0.40E+00    3.3   432.33639054      -589.5231728933 -4.51E+00
    47 Pulay/Diag. 0.40E+00    3.5   433.34063253      -577.0926552610  1.24E+01
    48 Pulay/Diag. 0.40E+00    3.7    39.73922193      -614.5137951137 -3.74E+01
    49 Pulay/Diag. 0.40E+00    3.8   186.06663864      -643.6737104569 -2.92E+01
    50 Pulay/Diag. 0.40E+00    4.6   185.83566553      -567.9529977027  7.57E+01

  Leaving inner SCF loop after reaching    50 steps.


  Electronic density on regular grids:       -143.9999999982        0.0000000018
  Core density on regular grids:              143.9999999999       -0.0000000001
  Total charge density on r-space grids:        0.0000000017
  Total charge density g-space grids:           0.0000000017

  Overlap energy of the core charge distribution:               0.00000004275251
  Self energy of the core charge distribution:               -977.15629455119449
  Core Hamiltonian energy:                                    309.39246382473351
  Hartree energy:                                             185.37346589642124
  Exchange-correlation energy:                                -85.47921319630366
  Dispersion energy:                                           -0.08341971910932

  Total energy:                                              -567.95299770270026

  outer SCF iter =   29 RMS gradient =   0.19E+03 energy =       -567.9529977027
     1 Pulay/Diag. 0.40E+00    8.4  1261.16399221      6226.4636659593  6.79E+03
     2 Pulay/Diag. 0.40E+00    3.0  1261.17300765      -457.1197232647 -6.68E+03
     3 Pulay/Diag. 0.40E+00    1.7    78.82593017      -545.7088170252 -8.86E+01
     4 Pulay/Diag. 0.40E+00    1.7    67.35688950      -518.8056994688  2.69E+01
     5 Pulay/Diag. 0.40E+00    1.7    63.78526535      -522.2574671453 -3.45E+00
     6 Pulay/Diag. 0.40E+00    1.7   198.37638090      -515.1688673888  7.09E+00
     7 Pulay/Diag. 0.40E+00    2.2   194.75497788      -532.5152299626 -1.73E+01
     8 Pulay/Diag. 0.40E+00    1.7    80.00331305      -503.5574009192  2.90E+01
     9 Pulay/Diag. 0.40E+00    1.7   157.34334923      -479.4028716659  2.42E+01
    10 Pulay/Diag. 0.40E+00    1.7   218.76692575      -433.5235288667  4.59E+01
    11 Pulay/Diag. 0.40E+00    1.7   218.67000226      -463.2036438799 -2.97E+01
    12 Pulay/Diag. 0.40E+00    1.7   158.57079917      -503.3948555230 -4.02E+01
    13 Pulay/Diag. 0.40E+00    1.7    33.60878687      -485.6065927675  1.78E+01
    14 Pulay/Diag. 0.40E+00    1.7   246.98412463      -465.2871200151  2.03E+01
    15 Pulay/Diag. 0.40E+00    1.9   269.68348692      -522.9977611783 -5.77E+01
    16 Pulay/Diag. 0.40E+00    2.0   269.68372862      -508.8637720184  1.41E+01
    17 Pulay/Diag. 0.40E+00    1.7    65.93069947      -570.2247243010 -6.14E+01
    18 Pulay/Diag. 0.40E+00    1.7   219.20807262      -532.7283383157  3.75E+01
    19 Pulay/Diag. 0.40E+00    1.7   217.79852008      -543.0217541766 -1.03E+01
    20 Pulay/Diag. 0.40E+00    1.7    12.18443866      -557.8520341494 -1.48E+01
    21 Pulay/Diag. 0.40E+00    1.7   186.68231317      -570.2712041691 -1.24E+01
    22 Pulay/Diag. 0.40E+00    1.7   186.67319445      -568.5778832000  1.69E+00
    23 Pulay/Diag. 0.40E+00    1.7    92.15402522      -581.6704962303 -1.31E+01
    24 Pulay/Diag. 0.40E+00    2.1    77.52532062      -575.2178152036  6.45E+00
    25 Pulay/Diag. 0.40E+00    1.7   269.94693520      -557.2485659420  1.80E+01
    26 Pulay/Diag. 0.40E+00    1.7   426.19659780      -547.4324680604  9.82E+00
    27 Pulay/Diag. 0.40E+00    1.7   426.18685044      -530.5966507216  1.68E+01
    28 Pulay/Diag. 0.40E+00    1.7    79.14468876      -563.9452865348 -3.33E+01
    29 Pulay/Diag. 0.40E+00    1.7    49.77192973      -562.3432547673  1.60E+00
    30 Pulay/Diag. 0.40E+00    1.7   544.23629385      -517.1468729592  4.52E+01
    31 Pulay/Diag. 0.40E+00    1.7   544.08190323      -485.9820763590  3.12E+01
    32 Pulay/Diag. 0.40E+00    1.7   179.10821232      -531.9736499543 -4.60E+01
    33 Pulay/Diag. 0.40E+00    2.6    35.85283764      -547.4210389109 -1.54E+01
    34 Pulay/Diag. 0.40E+00    2.0   131.65509760      -618.4638425922 -7.10E+01
    35 Pulay/Diag. 0.40E+00    3.8   218.39834538      -566.9388154547  5.15E+01
    36 Pulay/Diag. 0.40E+00    3.8   218.39877411      -562.4705934452  4.47E+00
    37 Pulay/Diag. 0.40E+00    3.3   146.05309173      -532.6997399234  2.98E+01
    38 Pulay/Diag. 0.40E+00    3.6    43.14222133      -581.2149365909 -4.85E+01
    39 Pulay/Diag. 0.40E+00    3.6    33.31446972      -574.9579637767  6.26E+00
    40 Pulay/Diag. 0.40E+00    3.2   180.57548527      -610.9260430809 -3.60E+01
    41 Pulay/Diag. 0.40E+00    3.6   553.50680011      -528.0326727693  8.29E+01
    42 Pulay/Diag. 0.40E+00    3.6   549.12162574      -518.0381300007  9.99E+00
    43 Pulay/Diag. 0.40E+00    3.1    66.75631459      -559.0142077863 -4.10E+01
    44 Pulay/Diag. 0.40E+00    3.0    46.78260346      -556.3485201872  2.67E+00
    45 Pulay/Diag. 0.40E+00    1.7   435.68934740      -519.8955500082  3.65E+01
    46 Pulay/Diag. 0.40E+00    1.7   431.95582505      -498.1448760598  2.18E+01
    47 Pulay/Diag. 0.40E+00    1.7   200.71913913      -532.3726929271 -3.42E+01
    48 Pulay/Diag. 0.40E+00    2.1   241.59033099      -531.6843230188  6.88E-01
    49 Pulay/Diag. 0.40E+00    1.7   241.62739860      -542.4734863736 -1.08E+01
    50 Pulay/Diag. 0.40E+00    1.7    51.38954600      -586.3177314434 -4.38E+01

  Leaving inner SCF loop after reaching    50 steps.


  Electronic density on regular grids:       -143.9999999979        0.0000000021
  Core density on regular grids:              143.9999999999       -0.0000000001
  Total charge density on r-space grids:        0.0000000020
  Total charge density g-space grids:           0.0000000020

  Overlap energy of the core charge distribution:               0.00000004275251
  Self energy of the core charge distribution:               -977.15629455119449
  Core Hamiltonian energy:                                    310.52219490546037
  Hartree energy:                                             168.93643654796077
  Exchange-correlation energy:                                -88.53664866925766
  Dispersion energy:                                           -0.08341971910932

  Total energy:                                              -586.31773144338774

  outer SCF iter =   30 RMS gradient =   0.51E+02 energy =       -586.3177314434
     1 Pulay/Diag. 0.40E+00    3.3  1260.61268444     14018.1568144483  1.46E+04
     2 Pulay/Diag. 0.40E+00    1.7  1260.61381821      -475.9227087796 -1.45E+04
     3 Pulay/Diag. 0.40E+00    1.7   111.69794708      -540.9216011395 -6.50E+01
     4 Pulay/Diag. 0.40E+00    1.7   119.81761242      -497.3916700872  4.35E+01
     5 Pulay/Diag. 0.40E+00    1.7   219.87970806      -517.8225625625 -2.04E+01
     6 Pulay/Diag. 0.40E+00    1.7   247.48369092      -480.6736836197  3.71E+01
     7 Pulay/Diag. 0.40E+00    2.1   235.68160628      -500.3949931511 -1.97E+01
     8 Pulay/Diag. 0.40E+00    1.7    46.57909153      -542.8935120118 -4.25E+01
     9 Pulay/Diag. 0.40E+00    1.7    88.61403346      -506.6577361213  3.62E+01
    10 Pulay/Diag. 0.40E+00    1.7   300.69566045      -488.8488172486  1.78E+01
    11 Pulay/Diag. 0.40E+00    1.7   300.57412379      -488.6906755967  1.58E-01
    12 Pulay/Diag. 0.40E+00    1.7    46.97699341      -549.0838157662 -6.04E+01
    13 Pulay/Diag. 0.40E+00    1.7    65.77938228      -523.7729374053  2.53E+01
    14 Pulay/Diag. 0.40E+00    1.7   542.70667630      -496.6325757413  2.71E+01
    15 Pulay/Diag. 0.40E+00    3.3   542.70604414      -480.2579696379  1.64E+01
    16 Pulay/Diag. 0.40E+00    3.5   308.94886285      -498.2162762353 -1.80E+01
    17 Pulay/Diag. 0.40E+00    3.6   106.22159466      -508.1164864457 -9.90E+00
    18 Pulay/Diag. 0.40E+00    3.0   313.53182133      -531.2949510423 -2.32E+01
    19 Pulay/Diag. 0.40E+00    3.8   313.54317383      -468.6170190075  6.27E+01
    20 Pulay/Diag. 0.40E+00    3.6   742.64294597      -469.3215373263 -7.05E-01
    21 Pulay/Diag. 0.40E+00    3.5   735.38815539      -443.5045279136  2.58E+01
    22 Pulay/Diag. 0.40E+00    3.2   265.92710571      -531.0548069185 -8.76E+01
    23 Pulay/Diag. 0.40E+00    3.6   266.21947716      -497.9388788669  3.31E+01
    24 Pulay/Diag. 0.40E+00    3.3   524.47934960      -492.0679284684  5.87E+00
    25 Pulay/Diag. 0.40E+00    3.5   522.39877338      -488.3609792056  3.71E+00
    26 Pulay/Diag. 0.40E+00    3.6    83.86622386      -515.2508421776 -2.69E+01
    27 Pulay/Diag. 0.40E+00    3.7    53.53057420      -538.5406180483 -2.33E+01
    28 Pulay/Diag. 0.40E+00    3.3   616.47146776      -555.8390346416 -1.73E+01
    29 Pulay/Diag. 0.40E+00    3.6   613.96468131      -511.8668059551  4.40E+01
    30 Pulay/Diag. 0.40E+00    3.9   334.18320152      -521.2091503496 -9.34E+00
    31 Pulay/Diag. 0.40E+00    3.6    28.92333789      -563.3733274967 -4.22E+01
    32 Pulay/Diag. 0.40E+00    3.8   185.65315726      -579.8309514285 -1.65E+01
    33 Pulay/Diag. 0.40E+00    3.1   155.79183912      -587.3818211114 -7.55E+00
    34 Pulay/Diag. 0.40E+00    3.2    62.31932545      -614.3598184930 -2.70E+01
    35 Pulay/Diag. 0.40E+00    1.8    53.52248308      -611.0047879962  3.36E+00
    36 Pulay/Diag. 0.40E+00    1.7   788.00291760      -509.2628205759  1.02E+02
    37 Pulay/Diag. 0.40E+00    1.7   729.33430618      -478.3672570955  3.09E+01
    38 Pulay/Diag. 0.40E+00    2.1   102.98583070      -566.6552052091 -8.83E+01
    39 Pulay/Diag. 0.40E+00    1.7    27.99299585      -583.6290648921 -1.70E+01
    40 Pulay/Diag. 0.40E+00    1.7   570.89341028      -430.6688273844  1.53E+02
    41 Pulay/Diag. 0.40E+00    1.7   567.52968653      -462.6333897721 -3.20E+01
    42 Pulay/Diag. 0.40E+00    1.7   250.45140862      -498.1850926649 -3.56E+01
    43 Pulay/Diag. 0.40E+00    1.7    32.92310443      -557.9976715550 -5.98E+01
    44 Pulay/Diag. 0.40E+00    1.7   240.93806581      -270.0421048217  2.88E+02
    45 Pulay/Diag. 0.40E+00    1.7   396.75403714      -406.5775144180 -1.37E+02
    46 Pulay/Diag. 0.40E+00    1.7   325.69844830      -422.2984222146 -1.57E+01
    47 Pulay/Diag. 0.40E+00    2.2    30.57573620      -482.8565508310 -6.06E+01
    48 Pulay/Diag. 0.40E+00    1.7   290.08148074      -431.1776388397  5.17E+01
    49 Pulay/Diag. 0.40E+00    1.6   290.06635941      -463.4553125251 -3.23E+01
    50 Pulay/Diag. 0.40E+00    1.7    38.07722491      -531.8534559503 -6.84E+01

  Leaving inner SCF loop after reaching    50 steps.


  Electronic density on regular grids:       -143.9999999983        0.0000000017
  Core density on regular grids:              143.9999999999       -0.0000000001
  Total charge density on r-space grids:        0.0000000015
  Total charge density g-space grids:           0.0000000015

  Overlap energy of the core charge distribution:               0.00000004275251
  Self energy of the core charge distribution:               -977.15629455119449
  Core Hamiltonian energy:                                    307.97730616504674
  Hartree energy:                                             219.36278374397170
  Exchange-correlation energy:                                -81.95383163178280
  Dispersion energy:                                           -0.08341971910932

  Total energy:                                              -531.85345595031561

  outer SCF iter =   31 RMS gradient =   0.38E+02 energy =       -531.8534559503
     1 Pulay/Diag. 0.40E+00    3.4   926.72101063      4333.5714015962  4.87E+03
     2 Pulay/Diag. 0.40E+00    1.6   926.72512875      -432.9837333395 -4.77E+03
     3 Pulay/Diag. 0.40E+00    1.7    68.42133273      -492.6300922183 -5.96E+01
     4 Pulay/Diag. 0.40E+00    2.8    85.56215464      -510.1955504181 -1.76E+01
     5 Pulay/Diag. 0.40E+00    3.4    86.86015199      -533.6187086267 -2.34E+01
     6 Pulay/Diag. 0.40E+00    3.1   207.90213566      -559.8443960092 -2.62E+01
     7 Pulay/Diag. 0.40E+00    3.7   207.89074625      -532.0809763953  2.78E+01
     8 Pulay/Diag. 0.40E+00    3.7   109.47774678      -534.4236822119 -2.34E+00
     9 Pulay/Diag. 0.40E+00    3.4    49.73298392      -539.0252293770 -4.60E+00
    10 Pulay/Diag. 0.40E+00    4.1   136.38525900      -552.7296422424 -1.37E+01
    11 Pulay/Diag. 0.40E+00    3.3   705.32172760      -523.6630134796  2.91E+01
    12 Pulay/Diag. 0.40E+00    3.3   703.34304787      -528.2331866262 -4.57E+00
    13 Pulay/Diag. 0.40E+00    3.2    35.10891429      -587.6395073898 -5.94E+01
    14 Pulay/Diag. 0.40E+00    3.8    30.89072591      -559.9314678344  2.77E+01
    15 Pulay/Diag. 0.40E+00    3.4   544.16068105      -499.6135008683  6.03E+01
    16 Pulay/Diag. 0.40E+00    3.3   542.16147718      -496.1867865045  3.43E+00
    17 Pulay/Diag. 0.40E+00    3.8   111.04572854      -506.3337061718 -1.01E+01
    18 Pulay/Diag. 0.40E+00    3.7   175.80534125      -538.0010231725 -3.17E+01
    19 Pulay/Diag. 0.40E+00    3.3   698.05821736      -415.1644534061  1.23E+02
    20 Pulay/Diag. 0.40E+00    3.1   695.97952345      -458.8882623221 -4.37E+01
    21 Pulay/Diag. 0.40E+00    3.7   266.40081716      -458.6841000114  2.04E-01
    22 Pulay/Diag. 0.40E+00    3.6    25.15034396      -531.3055741214 -7.26E+01
    23 Pulay/Diag. 0.40E+00    2.9   190.90927125      -534.9588200665 -3.65E+00
    24 Pulay/Diag. 0.40E+00    3.7   190.78259964      -572.6801461846 -3.77E+01
    25 Pulay/Diag. 0.40E+00    1.7    24.68910296      -583.3273759864 -1.06E+01
    26 Pulay/Diag. 0.40E+00    1.7   105.27722151      -578.8339385713  4.49E+00
    27 Pulay/Diag. 0.40E+00    1.7   105.65594662      -580.9559850485 -2.12E+00
    28 Pulay/Diag. 0.40E+00    2.2    93.45882105      -586.6123624781 -5.66E+00
    29 Pulay/Diag. 0.40E+00    1.7    19.08432195      -585.6720288495  9.40E-01
    30 Pulay/Diag. 0.40E+00    1.7   161.26733112      -544.6047859760  4.11E+01
    31 Pulay/Diag. 0.40E+00    1.7   221.73454253      -499.0318355428  4.56E+01
    32 Pulay/Diag. 0.40E+00    1.7   221.36108023      -518.0684797245 -1.90E+01
    33 Pulay/Diag. 0.40E+00    1.7   129.24859337      -522.2371855631 -4.17E+00
    34 Pulay/Diag. 0.40E+00    1.7    43.73401725      -515.5495725744  6.69E+00
    35 Pulay/Diag. 0.40E+00    1.7   445.56507319      -561.1807624325 -4.56E+01
    36 Pulay/Diag. 0.40E+00    1.7   445.56652263      -552.0946144888  9.09E+00
    37 Pulay/Diag. 0.40E+00    2.1   238.75425109      -541.9773636492  1.01E+01
    38 Pulay/Diag. 0.40E+00    1.7   224.49809950      -520.2186990477  2.18E+01
    39 Pulay/Diag. 0.40E+00    1.7   224.49252896      -499.5124209695  2.07E+01
    40 Pulay/Diag. 0.40E+00    1.7   199.91288959      -523.5866856467 -2.41E+01
    41 Pulay/Diag. 0.40E+00    1.7    84.24379159      -533.8103355711 -1.02E+01
    42 Pulay/Diag. 0.40E+00    1.7   104.04260400      -553.6811069985 -1.99E+01
    43 Pulay/Diag. 0.40E+00    1.7   503.70729053      -566.3881435185 -1.27E+01
    44 Pulay/Diag. 0.40E+00    1.7   502.71019596      -534.6102074600  3.18E+01
    45 Pulay/Diag. 0.40E+00    2.1   541.67253400      -561.4888118691 -2.69E+01
    46 Pulay/Diag. 0.40E+00    1.7   542.71510170      -530.3001008129  3.12E+01
    47 Pulay/Diag. 0.40E+00    1.7   127.88362532      -580.9004970255 -5.06E+01
    48 Pulay/Diag. 0.40E+00    1.7   127.78760450      -564.6131541137  1.63E+01
    49 Pulay/Diag. 0.40E+00    1.7    46.20689476      -556.5132986229  8.10E+00
    50 Pulay/Diag. 0.40E+00    1.7   547.58123581      -578.3652079926 -2.19E+01

  Leaving inner SCF loop after reaching    50 steps.


  Electronic density on regular grids:       -143.9999999977        0.0000000023
  Core density on regular grids:              143.9999999999       -0.0000000001
  Total charge density on r-space grids:        0.0000000022
  Total charge density g-space grids:           0.0000000022

  Overlap energy of the core charge distribution:               0.00000004275251
  Self energy of the core charge distribution:               -977.15629455119449
  Core Hamiltonian energy:                                    333.77362053087109
  Hartree energy:                                             158.20993472740821
  Exchange-correlation energy:                                -93.10904902335915
  Dispersion energy:                                           -0.08341971910932

  Total energy:                                              -578.36520799263121

  outer SCF iter =   32 RMS gradient =   0.55E+03 energy =       -578.3652079926
     1 Pulay/Diag. 0.40E+00    3.3  1115.04489465     30068.5743311620  3.06E+04
     2 Pulay/Diag. 0.40E+00    1.7  1115.04439290      -474.5065888479 -3.05E+04
     3 Pulay/Diag. 0.40E+00    1.7   552.64324455      -555.5961760724 -8.11E+01
     4 Pulay/Diag. 0.40E+00    2.2   128.04085935      -563.7339296016 -8.14E+00
     5 Pulay/Diag. 0.40E+00    3.0    73.00032486      -571.7312828922 -8.00E+00
     6 Pulay/Diag. 0.40E+00    3.1   497.08450500      -584.1476276549 -1.24E+01
     7 Pulay/Diag. 0.40E+00    4.3   496.66186945      -553.1509912365  3.10E+01
     8 Pulay/Diag. 0.40E+00    3.4    45.64016100      -600.4362508588 -4.73E+01
     9 Pulay/Diag. 0.40E+00    3.2    45.90922550      -629.7412271154 -2.93E+01
    10 Pulay/Diag. 0.40E+00    3.3    13.48280746      -624.5195785086  5.22E+00
    11 Pulay/Diag. 0.40E+00    3.9    27.75080395      -640.3401203178 -1.58E+01
    12 Pulay/Diag. 0.40E+00    3.3    42.15563894      -579.0255118356  6.13E+01
    13 Pulay/Diag. 0.40E+00    3.0    41.66148188      -621.4753757151 -4.24E+01
    14 Pulay/Diag. 0.40E+00    3.9    25.12203569      -613.0438558603  8.43E+00
    15 Pulay/Diag. 0.40E+00    2.7    48.18205797      -644.3798790897 -3.13E+01
    16 Pulay/Diag. 0.40E+00    1.7   731.25419742      -563.6452092216  8.07E+01
    17 Pulay/Diag. 0.40E+00    1.7   715.31695396      -510.9149487590  5.27E+01
    18 Pulay/Diag. 0.40E+00    1.7    61.23289337      -589.5768564889 -7.87E+01
    19 Pulay/Diag. 0.40E+00    2.0   566.29334901      -478.8702320409  1.11E+02
    20 Pulay/Diag. 0.40E+00    1.8   562.82092662      -482.3657647484 -3.50E+00
    21 Pulay/Diag. 0.40E+00    1.6   271.53257821      -521.2245880334 -3.89E+01
    22 Pulay/Diag. 0.40E+00    1.7   414.33667866      -567.0658103592 -4.58E+01
    23 Pulay/Diag. 0.40E+00    1.7   414.20766866      -516.8512065731  5.02E+01
    24 Pulay/Diag. 0.40E+00    1.7    61.37037167      -543.0259343556 -2.62E+01
    25 Pulay/Diag. 0.40E+00    1.7    45.17413946      -584.0898524953 -4.11E+01
    26 Pulay/Diag. 0.40E+00    1.7    32.95909735      -579.6126350443  4.48E+00
    27 Pulay/Diag. 0.40E+00    1.7   737.02530290      -540.5038258293  3.91E+01
    28 Pulay/Diag. 0.40E+00    2.2   732.37497319      -502.4718047913  3.80E+01
    29 Pulay/Diag. 0.40E+00    1.7   124.52811422      -547.8134996277 -4.53E+01
    30 Pulay/Diag. 0.40E+00    1.7    11.12688541      -566.4200792646 -1.86E+01
    31 Pulay/Diag. 0.40E+00    1.7   550.12397632      -394.5623253025  1.72E+02
    32 Pulay/Diag. 0.40E+00    1.7   548.20459564      -447.3114339075 -5.27E+01
    33 Pulay/Diag. 0.40E+00    1.7   257.82244731      -471.3997749838 -2.41E+01
    34 Pulay/Diag. 0.40E+00    1.6    37.96134331      -553.4911032752 -8.21E+01
    35 Pulay/Diag. 0.40E+00    1.7   873.84587178      -348.9410910601  2.05E+02
    36 Pulay/Diag. 0.40E+00    1.7   867.43702986      -413.7174121946 -6.48E+01
    37 Pulay/Diag. 0.40E+00    3.1   220.31745502      -517.1966268719 -1.03E+02
    38 Pulay/Diag. 0.40E+00    3.9    70.21932651      -526.6743349233 -9.48E+00
    39 Pulay/Diag. 0.40E+00    3.2   178.25619290      -508.9100130076  1.78E+01
    40 Pulay/Diag. 0.40E+00    3.3   158.19977945      -568.8952757401 -6.00E+01
    41 Pulay/Diag. 0.40E+00    3.5    71.91954685      -577.0531801712 -8.16E+00
