       6
 i =        1, E =       -24.0804922613
  O        -0.2872445710        3.9606928630       -0.8065410846
  H        -0.2094565281        4.7137415927       -1.4167305337
  C        -0.0129862830        2.7761919426       -1.5907843485
  H         0.8694302758        2.8834149284       -2.2357399116
  H         0.1978006726        1.9668474596       -0.8830697602
  H        -0.8668787603        2.4680244787       -2.2082822209
       6
 i =        2, E =       -24.0806688861
  O        -0.2776855663        3.9573815351       -0.8188892391
  H        -0.2166944923        4.7187316336       -1.4101884653
  C        -0.0109801011        2.7691362323       -1.5903310668
  H         0.8680382797        2.8869606038       -2.2351896638
  H         0.1949552747        1.9652408886       -0.8760849441
  H        -0.8669499047        2.4715456702       -2.2104650417
       6
 i =        3, E =       -24.0807337988
  O        -0.2741217207        3.9534778939       -0.8193338177
  H        -0.2230076689        4.7187632192       -1.4104235615
  C        -0.0079278873        2.7691755484       -1.5916317547
  H         0.8729078302        2.8852786795       -2.2373445592
  H         0.1927652507        1.9660161797       -0.8721479173
  H        -0.8697679288        2.4762178279       -2.2102610968
       6
 i =        4, E =       -24.0807820443
  O        -0.2654672810        3.9523816801       -0.8171098758
  H        -0.2348150567        4.7189548070       -1.4120720383
  C        -0.0062091655        2.7714700877       -1.5905485989
  H         0.8774337005        2.8792427524       -2.2381662130
  H         0.1905451631        1.9650581093       -0.8711591250
  H        -0.8702845538        2.4816396919       -2.2119937153
       6
 i =        5, E =       -24.0808164205
  O        -0.2546486625        3.9526990160       -0.8142722998
  H        -0.2491821970        4.7177137862       -1.4143725290
  C        -0.0040233418        2.7736610962       -1.5898450360
  H         0.8821692261        2.8725971350       -2.2377457386
  H         0.1866982469        1.9635896097       -0.8719524344
  H        -0.8697710396        2.4881448812       -2.2126357593
       6
 i =        6, E =       -24.0807716862
  O        -0.2201769897        3.9552056218       -0.8075167469
  H        -0.2938029284        4.7154272948       -1.4217505686
  C         0.0027361570        2.7766185853       -1.5875943735
  H         0.8969433909        2.8550779275       -2.2359696662
  H         0.1746892051        1.9558240754       -0.8718940201
  H        -0.8695267809        2.5093578129       -2.2156965861
       6
 i =        7, E =       -24.0808728631
  O        -0.2371104022        3.9555221846       -0.8113522063
  H        -0.2723002724        4.7150966999       -1.4178462084
  C        -0.0001178241        2.7746457459       -1.5888380428
  H         0.8895618084        2.8630087339       -2.2359798182
  H         0.1794027217        1.9591499911       -0.8728261126
  H        -0.8686134592        2.5003736591       -2.2137663680
       6
 i =        8, E =       -24.0809094385
  O        -0.2305161162        3.9568277102       -0.8107188717
  H        -0.2795235884        4.7126676468       -1.4186062543
  C         0.0011713729        2.7740466402       -1.5894046906
  H         0.8908309140        2.8601889634       -2.2342160407
  H         0.1761529124        1.9589885390       -0.8737337890
  H        -0.8670773349        2.5048723764       -2.2138772429
       6
 i =        9, E =       -24.0809512734
  O        -0.2096315726        3.9600305714       -0.8088172678
  H        -0.3051933465        4.7077671682       -1.4209524156
  C         0.0064004719        2.7734132348       -1.5893002302
  H         0.8970740197        2.8492694852       -2.2310413753
  H         0.1661667052        1.9559570501       -0.8752747569
  H        -0.8633195061        2.5199699806       -2.2147834197
       6
 i =       10, E =       -24.0809599113
  O        -0.1997659852        3.9615296718       -0.8086572876
  H        -0.3174786657        4.7058268709       -1.4210497547
  C         0.0084993492        2.7736126985       -1.5893263248
  H         0.9010550509        2.8434700548       -2.2296449053
  H         0.1613495166        1.9547058883       -0.8752525726
  H        -0.8622336434        2.5267823574       -2.2160865926
       6
 i =       11, E =       -24.0808960251
  O        -0.1667005944        3.9663421192       -0.8080764480
  H        -0.3584695299        4.7007169152       -1.4213809264
  C         0.0154274515        2.7750593235       -1.5889440197
  H         0.9158227555        2.8243825989       -2.2264588199
  H         0.1454558359        1.9496772805       -0.8732881891
  H        -0.8601615328        2.5486033419       -2.2213690996
       6
 i =       12, E =       -24.0809617545
  O        -0.1947339153        3.9625915827       -0.8094943303
  H        -0.3235267604        4.7053432749       -1.4200191101
  C         0.0094638438        2.7740420397       -1.5891649947
  H         0.9040214591        2.8400300278       -2.2294063946
  H         0.1583994113        1.9538612494       -0.8740564416
  H        -0.8621436496        2.5299991080       -2.2177917995
