 DBCSR| Multiplication driver                                               BLAS
 DBCSR| Multrec recursion limit                                              512
 DBCSR| Multiplication stack size                                           1000
 DBCSR| Maximum elements for images                                    UNLIMITED
 DBCSR| Multiplicative factor virtual images                                   1
 DBCSR| Multiplication size stacks                                             3
 DBCSR| Number of 3D layers                                               SINGLE
 DBCSR| Use MPI memory allocation                                              T
 DBCSR| Use RMA algorithm                                                      F
 DBCSR| Use Communication thread                                               T
 DBCSR| Communication thread load                                             87


  **** **** ******  **  PROGRAM STARTED AT               2019-06-24 15:08:53.348
 ***** ** ***  *** **   PROGRAM STARTED ON        blg8616.int.ets1.calculquebec.
 **    ****   ******    PROGRAM STARTED BY                                   rzk
 ***** **    ** ** **   PROGRAM PROCESS ID                                 30875
  **** **  *******  **  PROGRAM STARTED IN /scratch/rzk/rzk/GaN-carbene/443-adat
                                           oms-both-2x2/03-DissMethanol/04-O-GaT
                                           op-H-NSur

 CP2K| version string:                    CP2K version 7.0 (Development Version)
 CP2K| source code revision number:                                    svn:18619
 CP2K| cp2kflags: libint fftw3 libxc parallel mpi3 scalapack mkl                
 CP2K| is freely available from                            https://www.cp2k.org/
 CP2K| Program compiled at                          Sun Apr  7 00:48:11 EDT 2019
 CP2K| Program compiled on                      beluga2.int.ets1.calculquebec.ca
 CP2K| Program compiled for                    Beluga-Linux-x86-64-intel-openmpi
 CP2K| Data directory path    /home/rzk/projects/def-rzk/group/cp2k/cp2k-mcgill/
 CP2K| Input file name                                                 start.inp
 
 GLOBAL| Force Environment number                                              1
 GLOBAL| Basis set file name                                        BASIS_MOLOPT
 GLOBAL| Potential file name                                      GTH_POTENTIALS
 GLOBAL| MM Potential file name                                     MM_POTENTIAL
 GLOBAL| Coordinate file name                                      __STD_INPUT__
 GLOBAL| Method name                                                        CP2K
 GLOBAL| Project name                                                       TEST
 GLOBAL| Preferred FFT library                                             FFTW3
 GLOBAL| Preferred diagonalization lib.                                       SL
 GLOBAL| Run type                                                        GEO_OPT
 GLOBAL| All-to-all communication in single precision                          F
 GLOBAL| FFTs using library dependent lengths                                  F
 GLOBAL| Global print level                                               MEDIUM
 GLOBAL| MPI I/O enabled                                                       T
 GLOBAL| Total number of message passing processes                            80
 GLOBAL| Number of threads for this process                                    1
 GLOBAL| This output is from process                                           0
 GLOBAL| CPU model name :  Intel(R) Xeon(R) Gold 6148 CPU @ 2.40GHz

 MEMORY| system memory details [Kb]
 MEMORY|                        rank 0           min           max       average
 MEMORY| MemTotal             97523924      97523924      97523924      97523924
 MEMORY| MemFree              86316720      86310720      86709564      86496658
 MEMORY| Buffers                    76            76            76            76
 MEMORY| Cached                1212848       1202948       1212848       1207900
 MEMORY| Slab                   958336        958336        959424        958880
 MEMORY| SReclaimable           134384        134384        135480        134932
 MEMORY| MemLikelyFree        87664028      87658028      88048068      87839566


 *** Fundamental physical constants (SI units) ***

 *** Literature: B. J. Mohr and B. N. Taylor,
 ***             CODATA recommended values of the fundamental physical
 ***             constants: 2006, Web Version 5.1
 ***             http://physics.nist.gov/constants

 Speed of light in vacuum [m/s]                             2.99792458000000E+08
 Magnetic constant or permeability of vacuum [N/A**2]       1.25663706143592E-06
 Electric constant or permittivity of vacuum [F/m]          8.85418781762039E-12
 Planck constant (h) [J*s]                                  6.62606896000000E-34
 Planck constant (h-bar) [J*s]                              1.05457162825177E-34
 Elementary charge [C]                                      1.60217648700000E-19
 Electron mass [kg]                                         9.10938215000000E-31
 Electron g factor [ ]                                     -2.00231930436220E+00
 Proton mass [kg]                                           1.67262163700000E-27
 Fine-structure constant                                    7.29735253760000E-03
 Rydberg constant [1/m]                                     1.09737315685270E+07
 Avogadro constant [1/mol]                                  6.02214179000000E+23
 Boltzmann constant [J/K]                                   1.38065040000000E-23
 Atomic mass unit [kg]                                      1.66053878200000E-27
 Bohr radius [m]                                            5.29177208590000E-11

 *** Conversion factors ***

 [u] -> [a.u.]                                              1.82288848426455E+03
 [Angstrom] -> [Bohr] = [a.u.]                              1.88972613288564E+00
 [a.u.] = [Bohr] -> [Angstrom]                              5.29177208590000E-01
 [a.u.] -> [s]                                              2.41888432650478E-17
 [a.u.] -> [fs]                                             2.41888432650478E-02
 [a.u.] -> [J]                                              4.35974393937059E-18
 [a.u.] -> [N]                                              8.23872205491840E-08
 [a.u.] -> [K]                                              3.15774647902944E+05
 [a.u.] -> [kJ/mol]                                         2.62549961709828E+03
 [a.u.] -> [kcal/mol]                                       6.27509468713739E+02
 [a.u.] -> [Pa]                                             2.94210107994716E+13
 [a.u.] -> [bar]                                            2.94210107994716E+08
 [a.u.] -> [atm]                                            2.90362800883016E+08
 [a.u.] -> [eV]                                             2.72113838565563E+01
 [a.u.] -> [Hz]                                             6.57968392072181E+15
 [a.u.] -> [1/cm] (wave numbers)                            2.19474631370540E+05
 [a.u./Bohr**2] -> [1/cm]                                   5.14048714338585E+03
 

 CELL_TOP| Volume [angstrom^3]:                                         4586.323
 CELL_TOP| Vector a [angstrom    12.864     0.000     0.000    |a| =      12.864
 CELL_TOP| Vector b [angstrom    -6.432    11.141     0.000    |b| =      12.864
 CELL_TOP| Vector c [angstrom     0.000     0.000    32.000    |c| =      32.000
 CELL_TOP| Angle (b,c), alpha [degree]:                                   90.000
 CELL_TOP| Angle (a,c), beta  [degree]:                                   90.000
 CELL_TOP| Angle (a,b), gamma [degree]:                                  120.000
 CELL_TOP| Numerically orthorhombic:                                          NO
 
 GENERATE|  Preliminary Number of Bonds generated:                             0
 GENERATE|  Achieved consistency in connectivity generation.

 CELL| Volume [angstrom^3]:                                             4586.323
 CELL| Vector a [angstrom]:      12.864     0.000     0.000    |a| =      12.864
 CELL| Vector b [angstrom]:      -6.432    11.141     0.000    |b| =      12.864
 CELL| Vector c [angstrom]:       0.000     0.000    32.000    |c| =      32.000
 CELL| Angle (b,c), alpha [degree]:                                       90.000
 CELL| Angle (a,c), beta  [degree]:                                       90.000
 CELL| Angle (a,b), gamma [degree]:                                      120.000
 CELL| Numerically orthorhombic:                                              NO

 CELL_REF| Volume [angstrom^3]:                                         4670.759
 CELL_REF| Vector a [angstrom    12.982     0.000     0.000    |a| =      12.982
 CELL_REF| Vector b [angstrom    -6.491    11.243     0.000    |b| =      12.982
 CELL_REF| Vector c [angstrom     0.000     0.000    32.000    |c| =      32.000
 CELL_REF| Angle (b,c), alpha [degree]:                                   90.000
 CELL_REF| Angle (a,c), beta  [degree]:                                   90.000
 CELL_REF| Angle (a,b), gamma [degree]:                                  120.000
 CELL_REF| Numerically orthorhombic:                                          NO

 *******************************************************************************
 *******************************************************************************
 **                                                                           **
 **     #####                         ##              ##                      **
 **    ##   ##            ##          ##              ##                      **
 **   ##     ##                       ##            ######                    **
 **   ##     ##  ##   ##  ##   #####  ##  ##   ####   ##    #####    #####    **
 **   ##     ##  ##   ##  ##  ##      ## ##   ##      ##   ##   ##  ##   ##   **
 **   ##  ## ##  ##   ##  ##  ##      ####     ###    ##   ######   ######    **
 **    ##  ###   ##   ##  ##  ##      ## ##      ##   ##   ##       ##        **
 **     #######   #####   ##   #####  ##  ##  ####    ##    #####   ##        **
 **           ##                                                    ##        **
 **                                                                           **
 **                                                ... make the atoms dance   **
 **                                                                           **
 **            Copyright (C) by CP2K developers group (2000 - 2018)           **
 **                                                                           **
 *******************************************************************************

 DFT| Spin unrestricted (spin-polarized) Kohn-Sham calculation               UKS
 DFT| Multiplicity                                                             1
 DFT| Number of spin states                                                    2
 DFT| Charge                                                                   0
 DFT| Self-interaction correction (SIC)                                       NO
 DFT| Cutoffs: density                                              1.000000E-10
 DFT|          gradient                                             1.000000E-10
 DFT|          tau                                                  1.000000E-10
 DFT|          cutoff_smoothing_range                               0.000000E+00
 DFT| XC density smoothing                                                  NONE
 DFT| XC derivatives                                                          PW
 FUNCTIONAL| ROUTINE=NEW
 FUNCTIONAL| PBE:
 FUNCTIONAL| J.P.Perdew, K.Burke, M.Ernzerhof, Phys. Rev. Letter, vol. 77, n 18,
 FUNCTIONAL|  pp. 3865-3868, (1996){spin polarized}                             
 vdW POTENTIAL|                                                   Pair Potential
 vdW POTENTIAL|          DFT-D3 (Version 3.1)
 vdW POTENTIAL|          Potential Form: S. Grimme et al, JCP 132: 154104 (2010)
 vdW POTENTIAL|          Zero Damping
 vdW POTENTIAL|          Cutoff Radius [Bohr]:                             18.90
 vdW POTENTIAL|          s6 Scaling Factor:                               1.0000
 vdW POTENTIAL|          sr6 Scaling Factor:                              1.2170
 vdW POTENTIAL|          s8 Scaling Factor:                               0.7220
 vdW POTENTIAL|          Cutoff for CN calculation:                   0.1000E-05

 QS| Method:                                                                 GPW
 QS| Density plane wave grid type                        NON-SPHERICAL FULLSPACE
 QS| Number of grid levels:                                                    5
 QS| Density cutoff [a.u.]:                                                600.0
 QS| Multi grid cutoff [a.u.]: 1) grid level                               600.0
 QS|                           2) grid level                               200.0
 QS|                           3) grid level                                66.7
 QS|                           4) grid level                                22.2
 QS|                           5) grid level                                 7.4
 QS| Grid level progression factor:                                          3.0
 QS| Relative density cutoff [a.u.]:                                        20.0
 QS| Consistent realspace mapping and integration 
 QS| Interaction thresholds: eps_pgf_orb:                                1.0E-07
 QS|                         eps_filter_matrix:                          0.0E+00
 QS|                         eps_core_charge:                            1.0E-16
 QS|                         eps_rho_gspace:                             1.0E-14
 QS|                         eps_rho_rspace:                             1.0E-14
 QS|                         eps_gvg_rspace:                             1.0E-07
 QS|                         eps_ppl:                                    1.0E-02
 QS|                         eps_ppnl:                                   1.0E-09


 ATOMIC KIND INFORMATION

  1. Atomic kind: N                                     Number of atoms:     100

     Orbital Basis Set                                        DZVP-MOLOPT-SR-GTH

       Number of orbital shell sets:                                           1
       Number of orbital shells:                                               5
       Number of primitive Cartesian functions:                                5
       Number of Cartesian basis functions:                                   14
       Number of spherical basis functions:                                   13
       Norm type:                                                              2

       Normalised Cartesian orbitals:

                        Set   Shell   Orbital            Exponent    Coefficient

                          1       1    2s                7.341988       0.360561
                                                         2.542637       0.139177
                                                         0.888575      -0.289383
                                                         0.333802      -0.182244
                                                         0.112012      -0.019197

                          1       2    3s                7.341988       0.282000
                                                         2.542637       0.177875
                                                         0.888575      -0.278381
                                                         0.333802       0.008577
                                                         0.112012       0.154176

                          1       3    3px               7.341988      -1.188719
                                                         2.542637      -0.973969
                                                         0.888575      -0.501079
                                                         0.333802      -0.144894
                                                         0.112012      -0.013986
                          1       3    3py               7.341988      -1.188719
                                                         2.542637      -0.973969
                                                         0.888575      -0.501079
                                                         0.333802      -0.144894
                                                         0.112012      -0.013986
                          1       3    3pz               7.341988      -1.188719
                                                         2.542637      -0.973969
                                                         0.888575      -0.501079
                                                         0.333802      -0.144894
                                                         0.112012      -0.013986

                          1       4    4px               7.341988      -0.094798
                                                         2.542637       0.050069
                                                         0.888575      -0.114797
                                                         0.333802       0.144793
                                                         0.112012       0.066710
                          1       4    4py               7.341988      -0.094798
                                                         2.542637       0.050069
                                                         0.888575      -0.114797
                                                         0.333802       0.144793
                                                         0.112012       0.066710
                          1       4    4pz               7.341988      -0.094798
                                                         2.542637       0.050069
                                                         0.888575      -0.114797
                                                         0.333802       0.144793
                                                         0.112012       0.066710

                          1       5    4dx2              7.341988       1.354688
                                                         2.542637       0.690378
                                                         0.888575       0.855359
                                                         0.333802       0.091746
                                                         0.112012       0.001253
                          1       5    4dxy              7.341988       2.346389
                                                         2.542637       1.195770
                                                         0.888575       1.481524
                                                         0.333802       0.158910
                                                         0.112012       0.002169
                          1       5    4dxz              7.341988       2.346389
                                                         2.542637       1.195770
                                                         0.888575       1.481524
                                                         0.333802       0.158910
                                                         0.112012       0.002169
                          1       5    4dy2              7.341988       1.354688
                                                         2.542637       0.690378
                                                         0.888575       0.855359
                                                         0.333802       0.091746
                                                         0.112012       0.001253
                          1       5    4dyz              7.341988       2.346389
                                                         2.542637       1.195770
                                                         0.888575       1.481524
                                                         0.333802       0.158910
                                                         0.112012       0.002169
                          1       5    4dz2              7.341988       1.354688
                                                         2.542637       0.690378
                                                         0.888575       0.855359
                                                         0.333802       0.091746
                                                         0.112012       0.001253

     GTH Potential information for                                    GTH-PBE-q5

       Description:                       Goedecker-Teter-Hutter pseudopotential
                                           Goedecker et al., PRB 54, 1703 (1996)
                                          Hartwigsen et al., PRB 58, 3641 (1998)
                                                      Krack, TCA 114, 145 (2005)

       Gaussian exponent of the core charge distribution:               6.208322
       Electronic configuration (s p d ...):                               2   3

       Parameters of the local part of the GTH pseudopotential:

                          rloc        C1          C2          C3          C4
                        0.283791  -12.415226    1.868096

       Parameters of the non-local part of the GTH pseudopotential:

                   l      r(l)      h(i,j,l)

                   0    0.255405   13.630263
                   1    0.245495

  2. Atomic kind: Ga                                    Number of atoms:     100

     Orbital Basis Set                                        DZVP-MOLOPT-SR-GTH

       Number of orbital shell sets:                                           1
       Number of orbital shells:                                               7
       Number of primitive Cartesian functions:                                6
       Number of Cartesian basis functions:                                   30
       Number of spherical basis functions:                                   25
       Norm type:                                                              2

       Normalised Cartesian orbitals:

                        Set   Shell   Orbital            Exponent    Coefficient

                          1       1    2s                7.066654       0.013136
                                                         3.428369      -0.094392
                                                         1.430064       0.265435
                                                         0.571611       0.056465
                                                         0.232197      -0.192187
                                                         0.076562      -0.044987

                          1       2    3s                7.066654      -0.098564
                                                         3.428369       0.010390
                                                         1.430064       0.351249
                                                         0.571611       0.182615
                                                         0.232197      -0.425358
                                                         0.076562       0.190349

                          1       3    3px               7.066654       0.002364
                                                         3.428369       0.019222
                                                         1.430064       0.250132
                                                         0.571611      -0.058486
                                                         0.232197      -0.159451
                                                         0.076562      -0.020696
                          1       3    3py               7.066654       0.002364
                                                         3.428369       0.019222
                                                         1.430064       0.250132
                                                         0.571611      -0.058486
                                                         0.232197      -0.159451
                                                         0.076562      -0.020696
                          1       3    3pz               7.066654       0.002364
                                                         3.428369       0.019222
                                                         1.430064       0.250132
                                                         0.571611      -0.058486
                                                         0.232197      -0.159451
                                                         0.076562      -0.020696

                          1       4    4px               7.066654       0.492448
                                                         3.428369      -0.614736
                                                         1.430064      -0.191654
                                                         0.571611       0.037801
                                                         0.232197       0.302315
                                                         0.076562      -0.071336
                          1       4    4py               7.066654       0.492448
                                                         3.428369      -0.614736
                                                         1.430064      -0.191654
                                                         0.571611       0.037801
                                                         0.232197       0.302315
                                                         0.076562      -0.071336
                          1       4    4pz               7.066654       0.492448
                                                         3.428369      -0.614736
                                                         1.430064      -0.191654
                                                         0.571611       0.037801
                                                         0.232197       0.302315
                                                         0.076562      -0.071336

                          1       5    4dx2              7.066654     -15.264855
                                                         3.428369      -5.345726
                                                         1.430064      -1.022732
                                                         0.571611      -0.123148
                                                         0.232197      -0.006983
                                                         0.076562      -0.000022
                          1       5    4dxy              7.066654     -26.439504
                                                         3.428369      -9.259069
                                                         1.430064      -1.771423
                                                         0.571611      -0.213299
                                                         0.232197      -0.012094
                                                         0.076562      -0.000037
                          1       5    4dxz              7.066654     -26.439504
                                                         3.428369      -9.259069
                                                         1.430064      -1.771423
                                                         0.571611      -0.213299
                                                         0.232197      -0.012094
                                                         0.076562      -0.000037
                          1       5    4dy2              7.066654     -15.264855
                                                         3.428369      -5.345726
                                                         1.430064      -1.022732
                                                         0.571611      -0.123148
                                                         0.232197      -0.006983
                                                         0.076562      -0.000022
                          1       5    4dyz              7.066654     -26.439504
                                                         3.428369      -9.259069
                                                         1.430064      -1.771423
                                                         0.571611      -0.213299
                                                         0.232197      -0.012094
                                                         0.076562      -0.000037
                          1       5    4dz2              7.066654     -15.264855
                                                         3.428369      -5.345726
                                                         1.430064      -1.022732
                                                         0.571611      -0.123148
                                                         0.232197      -0.006983
                                                         0.076562      -0.000022

                          1       6    5dx2              7.066654      -5.739265
                                                         3.428369      -2.129289
                                                         1.430064      -0.700423
                                                         0.571611       0.161606
                                                         0.232197       0.043513
                                                         0.076562       0.011205
                          1       6    5dxy              7.066654      -9.940698
                                                         3.428369      -3.688037
                                                         1.430064      -1.213168
                                                         0.571611       0.279909
                                                         0.232197       0.075368
                                                         0.076562       0.019407
                          1       6    5dxz              7.066654      -9.940698
                                                         3.428369      -3.688037
                                                         1.430064      -1.213168
                                                         0.571611       0.279909
                                                         0.232197       0.075368
                                                         0.076562       0.019407
                          1       6    5dy2              7.066654      -5.739265
                                                         3.428369      -2.129289
                                                         1.430064      -0.700423
                                                         0.571611       0.161606
                                                         0.232197       0.043513
                                                         0.076562       0.011205
                          1       6    5dyz              7.066654      -9.940698
                                                         3.428369      -3.688037
                                                         1.430064      -1.213168
                                                         0.571611       0.279909
                                                         0.232197       0.075368
                                                         0.076562       0.019407
                          1       6    5dz2              7.066654      -5.739265
                                                         3.428369      -2.129289
                                                         1.430064      -0.700423
                                                         0.571611       0.161606
                                                         0.232197       0.043513
                                                         0.076562       0.011205

                          1       7    5fx3              7.066654       0.705879
                                                         3.428369      -0.273976
                                                         1.430064       0.113667
                                                         0.571611       0.132480
                                                         0.232197       0.012437
                                                         0.076562       0.003241
                          1       7    5fx2y             7.066654       1.578393
                                                         3.428369      -0.612629
                                                         1.430064       0.254167
                                                         0.571611       0.296234
                                                         0.232197       0.027811
                                                         0.076562       0.007246
                          1       7    5fx2z             7.066654       1.578393
                                                         3.428369      -0.612629
                                                         1.430064       0.254167
                                                         0.571611       0.296234
                                                         0.232197       0.027811
                                                         0.076562       0.007246
                          1       7    5fxy2             7.066654       1.578393
                                                         3.428369      -0.612629
                                                         1.430064       0.254167
                                                         0.571611       0.296234
                                                         0.232197       0.027811
                                                         0.076562       0.007246
                          1       7    5fxyz             7.066654       2.733856
                                                         3.428369      -1.061105
                                                         1.430064       0.440230
                                                         0.571611       0.513092
                                                         0.232197       0.048170
                                                         0.076562       0.012551
                          1       7    5fxz2             7.066654       1.578393
                                                         3.428369      -0.612629
                                                         1.430064       0.254167
                                                         0.571611       0.296234
                                                         0.232197       0.027811
                                                         0.076562       0.007246
                          1       7    5fy3              7.066654       0.705879
                                                         3.428369      -0.273976
                                                         1.430064       0.113667
                                                         0.571611       0.132480
                                                         0.232197       0.012437
                                                         0.076562       0.003241
                          1       7    5fy2z             7.066654       1.578393
                                                         3.428369      -0.612629
                                                         1.430064       0.254167
                                                         0.571611       0.296234
                                                         0.232197       0.027811
                                                         0.076562       0.007246
                          1       7    5fyz2             7.066654       1.578393
                                                         3.428369      -0.612629
                                                         1.430064       0.254167
                                                         0.571611       0.296234
                                                         0.232197       0.027811
                                                         0.076562       0.007246
                          1       7    5fz3              7.066654       0.705879
                                                         3.428369      -0.273976
                                                         1.430064       0.113667
                                                         0.571611       0.132480
                                                         0.232197       0.012437
                                                         0.076562       0.003241

     GTH Potential information for                                   GTH-PBE-q13

       Description:                       Goedecker-Teter-Hutter pseudopotential
                                           Goedecker et al., PRB 54, 1703 (1996)
                                          Hartwigsen et al., PRB 58, 3641 (1998)
                                                      Krack, TCA 114, 145 (2005)

       Gaussian exponent of the core charge distribution:               2.082466
       Electronic configuration (s p d ...):                           2   1  10

       Parameters of the local part of the GTH pseudopotential:

                          rloc        C1          C2          C3          C4
                        0.490000

       Parameters of the non-local part of the GTH pseudopotential:

                   l      r(l)      h(i,j,l)

                   0    0.416777   10.475690   -4.921768    0.870706
                                   -4.921768    7.770178   -2.248152
                                    0.870706   -2.248152    1.784415
                   1    0.569627    1.777985    0.195860
                                    0.195860   -0.231744
                   2    0.238126  -16.248680

  3. Atomic kind: O                                     Number of atoms:       1

     Orbital Basis Set                                     DZVP-MOLOPT-SR-GTH-q6

       Number of orbital shell sets:                                           1
       Number of orbital shells:                                               5
       Number of primitive Cartesian functions:                                5
       Number of Cartesian basis functions:                                   14
       Number of spherical basis functions:                                   13
       Norm type:                                                              2

       Normalised Cartesian orbitals:

                        Set   Shell   Orbital            Exponent    Coefficient

                          1       1    2s               10.389228       0.396646
                                                         3.849621       0.208811
                                                         1.388401      -0.301641
                                                         0.496955      -0.274061
                                                         0.162492      -0.033677

                          1       2    3s               10.389228       0.303673
                                                         3.849621       0.240943
                                                         1.388401      -0.313066
                                                         0.496955      -0.043055
                                                         0.162492       0.213991

                          1       3    3px              10.389228      -1.530415
                                                         3.849621      -1.371928
                                                         1.388401      -0.761951
                                                         0.496955      -0.253695
                                                         0.162492      -0.035541
                          1       3    3py              10.389228      -1.530415
                                                         3.849621      -1.371928
                                                         1.388401      -0.761951
                                                         0.496955      -0.253695
                                                         0.162492      -0.035541
                          1       3    3pz              10.389228      -1.530415
                                                         3.849621      -1.371928
                                                         1.388401      -0.761951
                                                         0.496955      -0.253695
                                                         0.162492      -0.035541

                          1       4    4px              10.389228      -0.565392
                                                         3.849621      -0.038231
                                                         1.388401      -0.382373
                                                         0.496955       0.179070
                                                         0.162492       0.122714
                          1       4    4py              10.389228      -0.565392
                                                         3.849621      -0.038231
                                                         1.388401      -0.382373
                                                         0.496955       0.179070
                                                         0.162492       0.122714
                          1       4    4pz              10.389228      -0.565392
                                                         3.849621      -0.038231
                                                         1.388401      -0.382373
                                                         0.496955       0.179070
                                                         0.162492       0.122714

                          1       5    4dx2             10.389228       1.867377
                                                         3.849621       0.670994
                                                         1.388401       1.353441
                                                         0.496955       0.273538
                                                         0.162492       0.006620
                          1       5    4dxy             10.389228       3.234392
                                                         3.849621       1.162195
                                                         1.388401       2.344229
                                                         0.496955       0.473781
                                                         0.162492       0.011466
                          1       5    4dxz             10.389228       3.234392
                                                         3.849621       1.162195
                                                         1.388401       2.344229
                                                         0.496955       0.473781
                                                         0.162492       0.011466
                          1       5    4dy2             10.389228       1.867377
                                                         3.849621       0.670994
                                                         1.388401       1.353441
                                                         0.496955       0.273538
                                                         0.162492       0.006620
                          1       5    4dyz             10.389228       3.234392
                                                         3.849621       1.162195
                                                         1.388401       2.344229
                                                         0.496955       0.473781
                                                         0.162492       0.011466
                          1       5    4dz2             10.389228       1.867377
                                                         3.849621       0.670994
                                                         1.388401       1.353441
                                                         0.496955       0.273538
                                                         0.162492       0.006620

     GTH Potential information for                                    GTH-PBE-q6

       Description:                       Goedecker-Teter-Hutter pseudopotential
                                           Goedecker et al., PRB 54, 1703 (1996)
                                          Hartwigsen et al., PRB 58, 3641 (1998)
                                                      Krack, TCA 114, 145 (2005)

       Gaussian exponent of the core charge distribution:               8.360253
       Electronic configuration (s p d ...):                               2   4

       Parameters of the local part of the GTH pseudopotential:

                          rloc        C1          C2          C3          C4
                        0.244554  -16.667215    2.487311

       Parameters of the non-local part of the GTH pseudopotential:

                   l      r(l)      h(i,j,l)

                   0    0.220956   18.337458
                   1    0.211332

  4. Atomic kind: H                                     Number of atoms:       4

     Orbital Basis Set                                     DZVP-MOLOPT-SR-GTH-q1

       Number of orbital shell sets:                                           1
       Number of orbital shells:                                               3
       Number of primitive Cartesian functions:                                5
       Number of Cartesian basis functions:                                    5
       Number of spherical basis functions:                                    5
       Norm type:                                                              2

       Normalised Cartesian orbitals:

                        Set   Shell   Orbital            Exponent    Coefficient

                          1       1    2s               10.068468      -0.133023
                                                         2.680223      -0.177618
                                                         0.791502      -0.258419
                                                         0.239116      -0.107525
                                                         0.082193      -0.014019

                          1       2    3s               10.068468       0.344673
                                                         2.680223       1.819821
                                                         0.791502      -0.999069
                                                         0.239116       0.017430
                                                         0.082193       0.082660

                          1       3    3px              10.068468       0.155326
                                                         2.680223       0.367157
                                                         0.791502       0.311480
                                                         0.239116       0.080105
                                                         0.082193       0.033440
                          1       3    3py              10.068468       0.155326
                                                         2.680223       0.367157
                                                         0.791502       0.311480
                                                         0.239116       0.080105
                                                         0.082193       0.033440
                          1       3    3pz              10.068468       0.155326
                                                         2.680223       0.367157
                                                         0.791502       0.311480
                                                         0.239116       0.080105
                                                         0.082193       0.033440

     GTH Potential information for                                    GTH-PBE-q1

       Description:                       Goedecker-Teter-Hutter pseudopotential
                                           Goedecker et al., PRB 54, 1703 (1996)
                                          Hartwigsen et al., PRB 58, 3641 (1998)
                                                      Krack, TCA 114, 145 (2005)

       Gaussian exponent of the core charge distribution:              12.500000
       Electronic configuration (s p d ...):                                   1

       Parameters of the local part of the GTH pseudopotential:

                          rloc        C1          C2          C3          C4
                        0.200000   -4.178900    0.724463

  5. Atomic kind: C                                     Number of atoms:       1

     Orbital Basis Set                                     DZVP-MOLOPT-SR-GTH-q4

       Number of orbital shell sets:                                           1
       Number of orbital shells:                                               5
       Number of primitive Cartesian functions:                                5
       Number of Cartesian basis functions:                                   14
       Number of spherical basis functions:                                   13
       Norm type:                                                              2

       Normalised Cartesian orbitals:

                        Set   Shell   Orbital            Exponent    Coefficient

                          1       1    2s                5.605331       0.322515
                                                         2.113016       0.213043
                                                         0.769911      -0.209686
                                                         0.348157      -0.219794
                                                         0.128212      -0.022789

                          1       2    3s                5.605331       0.552234
                                                         2.113016       0.082072
                                                         0.769911       0.007843
                                                         0.348157       0.136893
                                                         0.128212       0.074283

                          1       3    3px               5.605331      -0.703879
                                                         2.113016      -0.642521
                                                         0.769911      -0.374851
                                                         0.348157      -0.139743
                                                         0.128212      -0.027849
                          1       3    3py               5.605331      -0.703879
                                                         2.113016      -0.642521
                                                         0.769911      -0.374851
                                                         0.348157      -0.139743
                                                         0.128212      -0.027849
                          1       3    3pz               5.605331      -0.703879
                                                         2.113016      -0.642521
                                                         0.769911      -0.374851
                                                         0.348157      -0.139743
                                                         0.128212      -0.027849

                          1       4    4px               5.605331      -0.480376
                                                         2.113016      -0.552894
                                                         0.769911      -0.316145
                                                         0.348157       0.210505
                                                         0.128212       0.076095
                          1       4    4py               5.605331      -0.480376
                                                         2.113016      -0.552894
                                                         0.769911      -0.316145
                                                         0.348157       0.210505
                                                         0.128212       0.076095
                          1       4    4pz               5.605331      -0.480376
                                                         2.113016      -0.552894
                                                         0.769911      -0.316145
                                                         0.348157       0.210505
                                                         0.128212       0.076095

                          1       5    4dx2              5.605331       0.640026
                                                         2.113016       0.274300
                                                         0.769911       0.446711
                                                         0.348157       0.028674
                                                         0.128212       0.029790
                          1       5    4dxy              5.605331       1.108557
                                                         2.113016       0.475102
                                                         0.769911       0.773726
                                                         0.348157       0.049666
                                                         0.128212       0.051599
                          1       5    4dxz              5.605331       1.108557
                                                         2.113016       0.475102
                                                         0.769911       0.773726
                                                         0.348157       0.049666
                                                         0.128212       0.051599
                          1       5    4dy2              5.605331       0.640026
                                                         2.113016       0.274300
                                                         0.769911       0.446711
                                                         0.348157       0.028674
                                                         0.128212       0.029790
                          1       5    4dyz              5.605331       1.108557
                                                         2.113016       0.475102
                                                         0.769911       0.773726
                                                         0.348157       0.049666
                                                         0.128212       0.051599
                          1       5    4dz2              5.605331       0.640026
                                                         2.113016       0.274300
                                                         0.769911       0.446711
                                                         0.348157       0.028674
                                                         0.128212       0.029790

     GTH Potential information for                                    GTH-PBE-q4

       Description:                       Goedecker-Teter-Hutter pseudopotential
                                           Goedecker et al., PRB 54, 1703 (1996)
                                          Hartwigsen et al., PRB 58, 3641 (1998)
                                                      Krack, TCA 114, 145 (2005)

       Gaussian exponent of the core charge distribution:               4.364419
       Electronic configuration (s p d ...):                               2   2

       Parameters of the local part of the GTH pseudopotential:

                          rloc        C1          C2          C3          C4
                        0.338471   -8.803674    1.339211

       Parameters of the non-local part of the GTH pseudopotential:

                   l      r(l)      h(i,j,l)

                   0    0.302576    9.622487
                   1    0.291507


 MOLECULE KIND INFORMATION


 All atoms are their own molecule, skipping detailed information


 TOTAL NUMBERS AND MAXIMUM NUMBERS

  Total number of            - Atomic kinds:                                   5
                             - Atoms:                                        206
                             - Shell sets:                                   206
                             - Shells:                                      1222
                             - Primitive Cartesian functions:               1130
                             - Cartesian basis functions:                   4448
                             - Spherical basis functions:                   3846

  Maximum angular momentum of- Orbital basis functions:                        3
                             - Local part of the GTH pseudopotential:          2
                             - Non-local part of the GTH pseudopotential:      4


 MODULE QUICKSTEP:  ATOMIC COORDINATES IN angstrom

  Atom  Kind  Element       X           Y           Z          Z(eff)       Mass

       1     1 N    7   -0.025481    2.049933    2.509799      5.00      14.0067
       2     2 Ga  31   -0.021436    0.073153    2.865501     13.00      69.7230
       3     1 N    7   -0.016814    0.061012    5.007143      5.00      14.0067
       4     2 Ga  31   -0.016087    1.889529    5.796167     13.00      69.7230
       5     1 N    7   -0.013007    1.901520    7.787884      5.00      14.0067
       6     2 Ga  31   -0.011998    0.056289    8.438732     13.00      69.7230
       7     1 N    7   -0.011055    0.055694   10.409350      5.00      14.0067
       8     2 Ga  31   -0.010104    1.896313   11.064631     13.00      69.7230
       9     1 N    7   -0.008809    1.876563   13.055220      5.00      14.0067
      10     2 Ga  31   -0.008840    0.058717   13.866151     13.00      69.7230
      11     1 N    7   -0.007231    0.056180   16.062746      5.00      14.0067
      12     2 Ga  31   -0.009806    2.115067   16.493008     13.00      69.7230
      13     2 Ga  31   -0.035956    3.773977    1.515562     13.00      69.7230
      14     1 N    7   -1.513153    4.638877    2.512765      5.00      14.0067
      15     2 Ga  31   -1.726075    2.788601    3.298430     13.00      69.7230
      16     1 N    7   -1.628960    2.843800    5.254970      5.00      14.0067
      17     2 Ga  31   -1.647668    4.716865    5.799296     13.00      69.7230
      18     1 N    7   -1.631288    4.705887    7.791047      5.00      14.0067
      19     2 Ga  31   -1.611293    2.847544    8.431375     13.00      69.7230
      20     1 N    7   -1.607304    2.847634   10.421237      5.00      14.0067
      21     2 Ga  31   -1.632541    4.706088   11.066218     13.00      69.7230
      22     1 N    7   -1.648385    4.715916   13.056121      5.00      14.0067
      23     2 Ga  31   -1.605187    2.847449   13.620154     13.00      69.7230
      24     1 N    7   -1.635063    2.828631   15.575249      5.00      14.0067
      25     2 Ga  31   -1.444939    4.595275   16.491217     13.00      69.7230
      26     1 N    7   -0.009288    3.772419   17.627584      5.00      14.0067
      27     1 N    7   -3.233466    7.610081    2.515155      5.00      14.0067
      28     2 Ga  31   -3.226214    5.629015    2.852570     13.00      69.7230
      29     1 N    7   -3.230886    5.629231    5.007324      5.00      14.0067
      30     2 Ga  31   -3.232967    7.458404    5.792276     13.00      69.7230
      31     1 N    7   -3.230054    7.472707    7.785915      5.00      14.0067
      32     2 Ga  31   -3.229107    5.627680    8.441442     13.00      69.7230
      33     1 N    7   -3.227115    5.625602   10.410908      5.00      14.0067
      34     2 Ga  31   -3.227394    7.465145   11.064106     13.00      69.7230
      35     1 N    7   -3.224983    7.445647   13.052452      5.00      14.0067
      36     2 Ga  31   -3.222151    5.625696   13.866157     13.00      69.7230
      37     1 N    7   -3.225350    5.628755   16.061275      5.00      14.0067
      38     2 Ga  31   -3.227421    7.667888   16.469709     13.00      69.7230
      39     2 Ga  31   -3.228954    9.339420    1.454936     13.00      69.7230
      40     1 N    7   -4.741299   10.217629    2.502252      5.00      14.0067
      41     2 Ga  31   -4.940369    8.364650    3.269168     13.00      69.7230
      42     1 N    7   -4.841176    8.415662    5.234734      5.00      14.0067
      43     2 Ga  31   -4.862906   10.286465    5.789204     13.00      69.7230
      44     1 N    7   -4.846722   10.274757    7.783169      5.00      14.0067
      45     2 Ga  31   -4.828165    8.417751    8.429662     13.00      69.7230
      46     1 N    7   -4.824576    8.417825   10.420186      5.00      14.0067
      47     2 Ga  31   -4.850535   10.276894   11.063832     13.00      69.7230
      48     1 N    7   -4.865194   10.286957   13.053579      5.00      14.0067
      49     2 Ga  31   -4.822645    8.416569   13.610247     13.00      69.7230
      50     1 N    7   -4.847716    8.399847   15.566471      5.00      14.0067
      51     2 Ga  31   -4.679092   10.174307   16.469935     13.00      69.7230
      52     1 N    7   -3.228293    9.345774   17.614249      5.00      14.0067
      53     1 N    7    3.185453    1.924398    2.580372      5.00      14.0067
      54     2 Ga  31    3.193265    0.176964    3.264717     13.00      69.7230
      55     1 N    7    3.199603    0.062927    5.231250      5.00      14.0067
      56     2 Ga  31    3.198646    1.915301    5.868831     13.00      69.7230
      57     1 N    7    3.203156    1.913000    7.838597      5.00      14.0067
      58     2 Ga  31    3.202126    0.045942    8.431477     13.00      69.7230
      59     1 N    7    3.204271    0.043245   10.420575      5.00      14.0067
      60     2 Ga  31    3.204103    1.913538   11.019804     13.00      69.7230
      61     1 N    7    3.206204    1.913421   12.986489      5.00      14.0067
      62     2 Ga  31    3.207313    0.044627   13.611942     13.00      69.7230
      63     1 N    7    3.207442    0.071628   15.572473      5.00      14.0067
      64     2 Ga  31    3.205574    1.910724   15.856834     13.00      69.7230
      65     1 N    7    1.468327    4.641400    2.500700      5.00      14.0067
      66     2 Ga  31    1.679596    2.793772    3.288415     13.00      69.7230
      67     1 N    7    1.594575    2.844444    5.246683      5.00      14.0067
      68     2 Ga  31    1.615701    4.716756    5.796424     13.00      69.7230
      69     1 N    7    1.605776    4.705989    7.788608      5.00      14.0067
      70     2 Ga  31    1.585564    2.848020    8.429780     13.00      69.7230
      71     1 N    7    1.585952    2.848163   10.419638      5.00      14.0067
      72     2 Ga  31    1.612021    4.705796   11.067343     13.00      69.7230
      73     1 N    7    1.630925    4.715908   13.057792      5.00      14.0067
      74     2 Ga  31    1.587635    2.847362   13.621717     13.00      69.7230
      75     1 N    7    1.617047    2.828982   15.578013      5.00      14.0067
      76     2 Ga  31    1.426694    4.596288   16.493319     13.00      69.7230
      77     1 N    7   -0.020272    7.489879    2.603714      5.00      14.0067
      78     2 Ga  31   -0.018206    5.747846    3.293533     13.00      69.7230
      79     1 N    7   -0.016440    5.636007    5.252031      5.00      14.0067
      80     2 Ga  31   -0.016269    7.489055    5.875013     13.00      69.7230
      81     1 N    7   -0.012778    7.486604    7.844469      5.00      14.0067
      82     2 Ga  31   -0.012284    5.617089    8.432547     13.00      69.7230
      83     1 N    7   -0.010121    5.613547   10.422511      5.00      14.0067
      84     2 Ga  31   -0.009876    7.482457   11.021813     13.00      69.7230
      85     1 N    7   -0.008216    7.482159   12.989734      5.00      14.0067
      86     2 Ga  31   -0.008770    5.612045   13.623169     13.00      69.7230
      87     1 N    7   -0.008692    5.647332   15.580624      5.00      14.0067
      88     2 Ga  31   -0.009307    7.482942   15.851727     13.00      69.7230
      89     1 N    7   -1.732670   10.216834    2.512643      5.00      14.0067
      90     2 Ga  31   -1.530317    8.365410    3.281517     13.00      69.7230
      91     1 N    7   -1.623685    8.417038    5.244149      5.00      14.0067
      92     2 Ga  31   -1.601242   10.288673    5.794472     13.00      69.7230
      93     1 N    7   -1.612559   10.275925    7.787963      5.00      14.0067
      94     2 Ga  31   -1.631757    8.418517    8.432514     13.00      69.7230
      95     1 N    7   -1.630276    8.417407   10.422076      5.00      14.0067
      96     2 Ga  31   -1.604968   10.276460   11.062827     13.00      69.7230
      97     1 N    7   -1.585153   10.286837   13.052025      5.00      14.0067
      98     2 Ga  31   -1.627584    8.416875   13.611072     13.00      69.7230
      99     1 N    7   -1.603508    8.400594   15.568993      5.00      14.0067
     100     2 Ga  31   -1.777200   10.173551   16.468085     13.00      69.7230
     101     1 N    7    6.410359    2.041398    2.516477      5.00      14.0067
     102     2 Ga  31    6.412340    0.061068    2.857985     13.00      69.7230
     103     1 N    7    6.416863    0.059267    5.013729      5.00      14.0067
     104     2 Ga  31    6.413642    1.886720    5.796240     13.00      69.7230
     105     1 N    7    6.417802    1.902140    7.788492      5.00      14.0067
     106     2 Ga  31    6.419310    0.056145    8.441481     13.00      69.7230
     107     1 N    7    6.421999    0.055001   10.411292      5.00      14.0067
     108     2 Ga  31    6.421522    1.895858   11.063892     13.00      69.7230
     109     1 N    7    6.423332    1.875572   13.054267      5.00      14.0067
     110     2 Ga  31    6.423845    0.055526   13.860069     13.00      69.7230
     111     1 N    7    6.422078    0.057381   16.058995      5.00      14.0067
     112     2 Ga  31    6.420962    2.103997   16.472464     13.00      69.7230
     113     2 Ga  31    6.418596    3.776734    1.485787     13.00      69.7230
     114     1 N    7    4.907535    4.643367    2.510956      5.00      14.0067
     115     2 Ga  31    4.698936    2.788118    3.273492     13.00      69.7230
     116     1 N    7    4.804494    2.842123    5.235561      5.00      14.0067
     117     2 Ga  31    4.781983    4.713821    5.790873     13.00      69.7230
     118     1 N    7    4.800756    4.703727    7.784228      5.00      14.0067
     119     2 Ga  31    4.819807    2.847345    8.432036     13.00      69.7230
     120     1 N    7    4.824004    2.847911   10.421349      5.00      14.0067
     121     2 Ga  31    4.798501    4.706659   11.067067     13.00      69.7230
     122     1 N    7    4.782855    4.716121   13.057960      5.00      14.0067
     123     2 Ga  31    4.825354    2.846187   13.613610     13.00      69.7230
     124     1 N    7    4.796044    2.828632   15.572198      5.00      14.0067
     125     2 Ga  31    4.971796    4.605577   16.473415     13.00      69.7230
     126     1 N    7    6.422925    3.777209   17.595698      5.00      14.0067
     127     1 N    7    3.193563    7.611162    2.512175      5.00      14.0067
     128     2 Ga  31    3.183097    5.628107    2.852037     13.00      69.7230
     129     1 N    7    3.198001    5.629510    5.004114      5.00      14.0067
     130     2 Ga  31    3.201569    7.457607    5.793224     13.00      69.7230
     131     1 N    7    3.204152    7.471994    7.786579      5.00      14.0067
     132     2 Ga  31    3.204063    5.626936    8.441272     13.00      69.7230
     133     1 N    7    3.205637    5.625872   10.411722      5.00      14.0067
     134     2 Ga  31    3.206912    7.464790   11.068708     13.00      69.7230
     135     1 N    7    3.207322    7.446255   13.058459      5.00      14.0067
     136     2 Ga  31    3.204951    5.626160   13.871346     13.00      69.7230
     137     1 N    7    3.208208    5.627660   16.066322      5.00      14.0067
     138     2 Ga  31    3.206037    7.670094   16.479768     13.00      69.7230
     139     2 Ga  31    3.189779    9.348582    1.472327     13.00      69.7230
     140     1 N    7    1.693079   10.215010    2.518261      5.00      14.0067
     141     2 Ga  31    1.489152    8.362742    3.284122     13.00      69.7230
     142     1 N    7    1.591679    8.415520    5.245168      5.00      14.0067
     143     2 Ga  31    1.568599   10.286110    5.799710     13.00      69.7230
     144     1 N    7    1.586359   10.274450    7.791766      5.00      14.0067
     145     2 Ga  31    1.606668    8.417126    8.435188     13.00      69.7230
     146     1 N    7    1.610103    8.417028   10.424503      5.00      14.0067
     147     2 Ga  31    1.584305   10.276147   11.066210     13.00      69.7230
     148     1 N    7    1.568009   10.286511   13.056239      5.00      14.0067
     149     2 Ga  31    1.610075    8.417125   13.617161     13.00      69.7230
     150     1 N    7    1.584814    8.400806   15.574834      5.00      14.0067
     151     2 Ga  31    1.757964   10.172255   16.476808     13.00      69.7230
     152     1 N    7    3.209407    9.347073   17.624608      5.00      14.0067
     153     1 N    7    9.630159    1.920544    2.605171      5.00      14.0067
     154     2 Ga  31    9.628781    0.175498    3.281695     13.00      69.7230
     155     1 N    7    9.632566    0.060154    5.243943      5.00      14.0067
     156     2 Ga  31    9.631502    1.914812    5.875889     13.00      69.7230
     157     1 N    7    9.634046    1.912267    7.844587      5.00      14.0067
     158     2 Ga  31    9.637101    0.044705    8.435183     13.00      69.7230
     159     1 N    7    9.638989    0.042408   10.423947      5.00      14.0067
     160     2 Ga  31    9.638931    1.912797   11.021627     13.00      69.7230
     161     1 N    7    9.639925    1.912634   12.988962      5.00      14.0067
     162     2 Ga  31    9.639436    0.044383   13.619120     13.00      69.7230
     163     1 N    7    9.637822    0.071733   15.580445      5.00      14.0067
     164     2 Ga  31    9.641062    1.911764   15.858419     13.00      69.7230
     165     1 N    7    7.915653    4.642600    2.520160      5.00      14.0067
     166     2 Ga  31    8.119087    2.787827    3.286704     13.00      69.7230
     167     1 N    7    8.023509    2.842986    5.246609      5.00      14.0067
     168     2 Ga  31    8.049713    4.715906    5.794795     13.00      69.7230
     169     1 N    7    8.037072    4.704782    7.787178      5.00      14.0067
     170     2 Ga  31    8.016952    2.847369    8.433154     13.00      69.7230
     171     1 N    7    8.018498    2.847465   10.422340      5.00      14.0067
     172     2 Ga  31    8.044135    4.706504   11.065552     13.00      69.7230
     173     1 N    7    8.063583    4.716046   13.056393      5.00      14.0067
     174     2 Ga  31    8.021135    2.846492   13.614848     13.00      69.7230
     175     1 N    7    8.048775    2.828523   15.574695      5.00      14.0067
     176     2 Ga  31    7.871938    4.606683   16.471469     13.00      69.7230
     177     1 N    7    6.413043    7.489519    2.594685      5.00      14.0067
     178     2 Ga  31    6.411626    5.749068    3.280199     13.00      69.7230
     179     1 N    7    6.415339    5.630456    5.240615      5.00      14.0067
     180     2 Ga  31    6.416538    7.487907    5.864352     13.00      69.7230
     181     1 N    7    6.418998    7.484045    7.836248      5.00      14.0067
     182     2 Ga  31    6.418658    5.616049    8.429932     13.00      69.7230
     183     1 N    7    6.420815    5.613377   10.420915      5.00      14.0067
     184     2 Ga  31    6.421075    7.482926   11.020149     13.00      69.7230
     185     1 N    7    6.422246    7.482683   12.987560      5.00      14.0067
     186     2 Ga  31    6.423455    5.614002   13.616749     13.00      69.7230
     187     1 N    7    6.422155    5.649460   15.576760      5.00      14.0067
     188     2 Ga  31    6.423581    7.485567   15.855163     13.00      69.7230
     189     1 N    7    4.698039   10.215999    2.510811      5.00      14.0067
     190     2 Ga  31    4.902907    8.361838    3.271928     13.00      69.7230
     191     1 N    7    4.808885    8.414718    5.236357      5.00      14.0067
     192     2 Ga  31    4.833049   10.284681    5.793966     13.00      69.7230
     193     1 N    7    4.821764   10.274073    7.786669      5.00      14.0067
     194     2 Ga  31    4.802345    8.417087    8.431891     13.00      69.7230
     195     1 N    7    4.802323    8.417611   10.422103      5.00      14.0067
     196     2 Ga  31    4.829363   10.276191   11.067050     13.00      69.7230
     197     1 N    7    4.846713   10.286696   13.058118      5.00      14.0067
     198     2 Ga  31    4.804716    8.416988   13.618923     13.00      69.7230
     199     1 N    7    4.828535    8.399947   15.577252      5.00      14.0067
     200     2 Ga  31    4.658314   10.174866   16.477526     13.00      69.7230
     201     3 O    8    0.191684    3.441017   -0.543801      6.00      15.9994
     202     4 H    1   -0.001621    7.505319    1.604007      1.00       1.0079
     203     5 C    6    0.774028    2.128869   -0.891298      4.00      12.0107
     204     4 H    1    1.840418    2.103163   -0.640387      1.00       1.0079
     205     4 H    1    0.239024    1.394332   -0.278767      1.00       1.0079
     206     4 H    1    0.593021    1.951270   -1.957209      1.00       1.0079




 SCF PARAMETERS         Density guess:                                    ATOMIC
                        --------------------------------------------------------
                        max_scf:                                              80
                        max_scf_history:                                       0
                        max_diis:                                              4
                        --------------------------------------------------------
                        eps_scf:                                        5.00E-06
                        eps_scf_history:                                0.00E+00
                        eps_diis:                                       1.00E-01
                        eps_eigval:                                     1.00E-05
                        --------------------------------------------------------
                        level_shift [a.u.]:                                 0.00
                        --------------------------------------------------------
                        Outer loop SCF in use 
                        No variables optimised in outer loop
                        eps_scf                                         5.00E-06
                        max_scf                                                4
                        No outer loop optimization
                        step_size                                       5.00E-01

 PW_GRID| Information for grid number                                          1
 PW_GRID| Grid distributed over                                    80 processors
 PW_GRID| Real space group dimensions                                    80    1
 PW_GRID| the grid is blocked:                                                NO
 PW_GRID| Cutoff [a.u.]                                                    600.0
 PW_GRID| spherical cutoff:                                                   NO
 PW_GRID|   Bounds   1           -144     143                Points:         288
 PW_GRID|   Bounds   2           -144     143                Points:         288
 PW_GRID|   Bounds   3           -337     337                Points:         675
 PW_GRID| Volume element (a.u.^3)  0.5630E-03     Volume (a.u.^3)     31519.8467
 PW_GRID| Grid span                                                    FULLSPACE
 PW_GRID|   Distribution                         Average         Max         Min
 PW_GRID|   G-Vectors                           699840.0      699840      699840
 PW_GRID|   G-Rays                                2430.0        2430        2430
 PW_GRID|   Real Space Points                   699840.0      777600      583200

 PW_GRID| Information for grid number                                          2
 PW_GRID| Grid distributed over                                    80 processors
 PW_GRID| Real space group dimensions                                    80    1
 PW_GRID| the grid is blocked:                                                NO
 PW_GRID| Cutoff [a.u.]                                                    200.0
 PW_GRID| spherical cutoff:                                                   NO
 PW_GRID|   Bounds   1            -80      79                Points:         160
 PW_GRID|   Bounds   2            -80      79                Points:         160
 PW_GRID|   Bounds   3           -200     199                Points:         400
 PW_GRID| Volume element (a.u.^3)  0.3078E-02     Volume (a.u.^3)     31519.8467
 PW_GRID| Grid span                                                    FULLSPACE
 PW_GRID|   Distribution                         Average         Max         Min
 PW_GRID|   G-Vectors                           128000.0      128160      127840
 PW_GRID|   G-Rays                                 800.0         801         799
 PW_GRID|   Real Space Points                   128000.0      128000      128000

 PW_GRID| Information for grid number                                          3
 PW_GRID| Grid distributed over                                    80 processors
 PW_GRID| Real space group dimensions                                    80    1
 PW_GRID| the grid is blocked:                                                NO
 PW_GRID| Cutoff [a.u.]                                                     66.7
 PW_GRID| spherical cutoff:                                                   NO
 PW_GRID|   Bounds   1            -48      47                Points:          96
 PW_GRID|   Bounds   2            -48      47                Points:          96
 PW_GRID|   Bounds   3           -112     112                Points:         225
 PW_GRID| Volume element (a.u.^3)  0.1520E-01     Volume (a.u.^3)     31519.8467
 PW_GRID| Grid span                                                    FULLSPACE
 PW_GRID|   Distribution                         Average         Max         Min
 PW_GRID|   G-Vectors                            25920.0       26688       24864
 PW_GRID|   G-Rays                                 270.0         278         259
 PW_GRID|   Real Space Points                    25920.0       43200       21600

 PW_GRID| Information for grid number                                          4
 PW_GRID| Grid distributed over                                    80 processors
 PW_GRID| Real space group dimensions                                     8   10
 PW_GRID| the grid is blocked:                                                NO
 PW_GRID| Cutoff [a.u.]                                                     22.2
 PW_GRID| spherical cutoff:                                                   NO
 PW_GRID|   Bounds   1            -27      26                Points:          54
[...]
     24       N      1       5.000    2.050   2.050            0.000      0.900
     25       Ga     2      13.000    6.914   6.914            0.000     -0.828
     26       N      1       5.000    2.233   2.230            0.003      0.537
     27       N      1       5.000    2.101   2.102           -0.001      0.796
     28       Ga     2      13.000    6.890   6.890           -0.000     -0.780
     29       N      1       5.000    2.101   2.101           -0.000      0.798
     30       Ga     2      13.000    6.942   6.942           -0.000     -0.883
     31       N      1       5.000    2.061   2.061           -0.000      0.879
     32       Ga     2      13.000    6.951   6.951           -0.000     -0.902
     33       N      1       5.000    2.052   2.052           -0.000      0.896
     34       Ga     2      13.000    6.939   6.939           -0.000     -0.878
     35       N      1       5.000    2.060   2.060           -0.000      0.880
     36       Ga     2      13.000    6.872   6.872           -0.000     -0.744
     37       N      1       5.000    2.135   2.135           -0.000      0.730
     38       Ga     2      13.000    6.913   6.912            0.001     -0.825
     39       Ga     2      13.000    6.715   6.722           -0.006     -0.437
     40       N      1       5.000    2.093   2.094           -0.001      0.813
     41       Ga     2      13.000    6.959   6.960           -0.000     -0.919
     42       N      1       5.000    2.052   2.052           -0.000      0.896
     43       Ga     2      13.000    6.945   6.945           -0.000     -0.891
     44       N      1       5.000    2.060   2.060           -0.000      0.879
     45       Ga     2      13.000    6.938   6.938           -0.000     -0.877
     46       N      1       5.000    2.062   2.062           -0.000      0.877
     47       Ga     2      13.000    6.939   6.939           -0.000     -0.877
     48       N      1       5.000    2.060   2.060           -0.000      0.880
     49       Ga     2      13.000    6.950   6.950            0.000     -0.900
     50       N      1       5.000    2.050   2.050            0.000      0.900
     51       Ga     2      13.000    6.912   6.911            0.001     -0.823
     52       N      1       5.000    2.242   2.230            0.012      0.527
     53       N      1       5.000    2.123   2.123           -0.000      0.753
     54       Ga     2      13.000    6.959   6.960           -0.000     -0.919
     55       N      1       5.000    2.051   2.051           -0.000      0.897
     56       Ga     2      13.000    6.935   6.935           -0.000     -0.870
     57       N      1       5.000    2.056   2.056           -0.000      0.888
     58       Ga     2      13.000    6.938   6.938           -0.000     -0.876
     59       N      1       5.000    2.062   2.062           -0.000      0.877
     60       Ga     2      13.000    6.946   6.946           -0.000     -0.892
     61       N      1       5.000    2.062   2.062            0.000      0.876
     62       Ga     2      13.000    6.950   6.950            0.000     -0.900
     63       N      1       5.000    2.051   2.050            0.000      0.899
     64       Ga     2      13.000    6.857   6.857            0.000     -0.714
     65       N      1       5.000    2.102   2.102           -0.000      0.796
     66       Ga     2      13.000    6.973   6.973           -0.000     -0.945
     67       N      1       5.000    2.052   2.052           -0.000      0.895
     68       Ga     2      13.000    6.940   6.940           -0.000     -0.880
     69       N      1       5.000    2.060   2.060           -0.000      0.879
     70       Ga     2      13.000    6.938   6.938           -0.000     -0.875
     71       N      1       5.000    2.062   2.062           -0.000      0.876
     72       Ga     2      13.000    6.939   6.939           -0.000     -0.878
     73       N      1       5.000    2.060   2.060           -0.000      0.880
     74       Ga     2      13.000    6.950   6.950            0.000     -0.900
     75       N      1       5.000    2.050   2.050            0.000      0.900
     76       Ga     2      13.000    6.914   6.914            0.000     -0.827
     77       N      1       5.000    2.236   2.236           -0.000      0.529
     78       Ga     2      13.000    6.996   6.996           -0.000     -0.993
     79       N      1       5.000    2.051   2.051           -0.000      0.898
     80       Ga     2      13.000    6.947   6.947           -0.000     -0.894
     81       N      1       5.000    2.054   2.055           -0.000      0.891
     82       Ga     2      13.000    6.939   6.939           -0.000     -0.877
     83       N      1       5.000    2.061   2.061           -0.000      0.878
     84       Ga     2      13.000    6.946   6.946           -0.000     -0.892
     85       N      1       5.000    2.062   2.062            0.000      0.877
     86       Ga     2      13.000    6.950   6.950           -0.000     -0.900
     87       N      1       5.000    2.050   2.050            0.000      0.900
     88       Ga     2      13.000    6.858   6.858            0.000     -0.715
     89       N      1       5.000    2.100   2.101           -0.001      0.799
     90       Ga     2      13.000    6.988   6.988           -0.000     -0.976
     91       N      1       5.000    2.050   2.050           -0.000      0.901
     92       Ga     2      13.000    6.942   6.943           -0.000     -0.885
     93       N      1       5.000    2.060   2.060           -0.000      0.880
     94       Ga     2      13.000    6.939   6.939           -0.000     -0.878
     95       N      1       5.000    2.061   2.061           -0.000      0.878
     96       Ga     2      13.000    6.939   6.939           -0.000     -0.878
     97       N      1       5.000    2.060   2.060           -0.000      0.880
     98       Ga     2      13.000    6.949   6.949            0.000     -0.899
     99       N      1       5.000    2.050   2.050            0.001      0.900
    100       Ga     2      13.000    6.913   6.912            0.001     -0.825
    101       N      1       5.000    2.094   2.094           -0.000      0.812
    102       Ga     2      13.000    6.902   6.902           -0.001     -0.804
    103       N      1       5.000    2.097   2.098           -0.001      0.805
    104       Ga     2      13.000    6.944   6.945           -0.000     -0.889
    105       N      1       5.000    2.060   2.060           -0.000      0.880
    106       Ga     2      13.000    6.950   6.950           -0.000     -0.901
    107       N      1       5.000    2.052   2.052           -0.000      0.896
    108       Ga     2      13.000    6.939   6.939           -0.000     -0.877
    109       N      1       5.000    2.060   2.060           -0.000      0.880
    110       Ga     2      13.000    6.872   6.872           -0.000     -0.744
    111       N      1       5.000    2.135   2.135           -0.000      0.730
    112       Ga     2      13.000    6.913   6.913            0.000     -0.826
    113       Ga     2      13.000    6.709   6.711           -0.002     -0.420
    114       N      1       5.000    2.095   2.095           -0.000      0.810
    115       Ga     2      13.000    6.961   6.961           -0.000     -0.923
    116       N      1       5.000    2.050   2.050           -0.000      0.899
    117       Ga     2      13.000    6.944   6.944           -0.000     -0.887
    118       N      1       5.000    2.061   2.061           -0.000      0.879
    119       Ga     2      13.000    6.938   6.938           -0.000     -0.876
    120       N      1       5.000    2.062   2.062           -0.000      0.877
    121       Ga     2      13.000    6.939   6.939           -0.000     -0.877
    122       N      1       5.000    2.060   2.060           -0.000      0.880
    123       Ga     2      13.000    6.950   6.950           -0.000     -0.900
    124       N      1       5.000    2.050   2.050           -0.000      0.899
    125       Ga     2      13.000    6.911   6.911            0.000     -0.823
    126       N      1       5.000    2.237   2.236            0.001      0.527
    127       N      1       5.000    2.102   2.103           -0.001      0.796
    128       Ga     2      13.000    6.893   6.893           -0.000     -0.786
    129       N      1       5.000    2.100   2.100           -0.000      0.800
    130       Ga     2      13.000    6.942   6.942           -0.000     -0.884
    131       N      1       5.000    2.060   2.060           -0.000      0.879
    132       Ga     2      13.000    6.951   6.951           -0.000     -0.902
    133       N      1       5.000    2.052   2.052           -0.000      0.897
    134       Ga     2      13.000    6.939   6.939           -0.000     -0.878
    135       N      1       5.000    2.060   2.060           -0.000      0.880
    136       Ga     2      13.000    6.873   6.873           -0.000     -0.745
    137       N      1       5.000    2.135   2.135           -0.000      0.730
    138       Ga     2      13.000    6.914   6.913            0.001     -0.827
    139       Ga     2      13.000    6.711   6.718           -0.008     -0.429
    140       N      1       5.000    2.101   2.102           -0.001      0.797
    141       Ga     2      13.000    6.988   6.988           -0.000     -0.975
    142       N      1       5.000    2.050   2.050           -0.000      0.900
    143       Ga     2      13.000    6.943   6.943           -0.000     -0.885
    144       N      1       5.000    2.060   2.060           -0.000      0.880
    145       Ga     2      13.000    6.939   6.939           -0.000     -0.878
    146       N      1       5.000    2.061   2.061           -0.000      0.878
    147       Ga     2      13.000    6.939   6.939           -0.000     -0.878
    148       N      1       5.000    2.060   2.060           -0.000      0.881
    149       Ga     2      13.000    6.950   6.950            0.000     -0.900
    150       N      1       5.000    2.050   2.050            0.000      0.900
    151       Ga     2      13.000    6.914   6.913            0.001     -0.827
    152       N      1       5.000    2.237   2.227            0.010      0.536
    153       N      1       5.000    2.122   2.122           -0.000      0.756
    154       Ga     2      13.000    6.958   6.958           -0.000     -0.917
    155       N      1       5.000    2.052   2.052           -0.000      0.897
    156       Ga     2      13.000    6.935   6.935           -0.000     -0.870
    157       N      1       5.000    2.056   2.056           -0.000      0.888
    158       Ga     2      13.000    6.938   6.938           -0.000     -0.876
    159       N      1       5.000    2.062   2.062           -0.000      0.876
    160       Ga     2      13.000    6.946   6.946           -0.000     -0.892
    161       N      1       5.000    2.062   2.062            0.000      0.876
    162       Ga     2      13.000    6.950   6.950            0.000     -0.900
    163       N      1       5.000    2.051   2.050            0.000      0.899
    164       Ga     2      13.000    6.858   6.858            0.000     -0.715
    165       N      1       5.000    2.095   2.095           -0.000      0.810
    166       Ga     2      13.000    6.961   6.961           -0.000     -0.922
    167       N      1       5.000    2.050   2.050           -0.000      0.899
    168       Ga     2      13.000    6.943   6.944           -0.000     -0.887
    169       N      1       5.000    2.061   2.061           -0.000      0.878
    170       Ga     2      13.000    6.938   6.938           -0.000     -0.876
    171       N      1       5.000    2.062   2.062           -0.000      0.877
    172       Ga     2      13.000    6.939   6.939           -0.000     -0.877
    173       N      1       5.000    2.060   2.060           -0.000      0.880
    174       Ga     2      13.000    6.950   6.950            0.000     -0.899
    175       N      1       5.000    2.050   2.050            0.000      0.900
    176       Ga     2      13.000    6.913   6.913            0.000     -0.825
    177       N      1       5.000    2.122   2.122            0.000      0.756
    178       Ga     2      13.000    6.962   6.962           -0.000     -0.923
    179       N      1       5.000    2.051   2.051           -0.000      0.899
    180       Ga     2      13.000    6.933   6.933           -0.000     -0.866
    181       N      1       5.000    2.056   2.056           -0.000      0.888
    182       Ga     2      13.000    6.938   6.938           -0.000     -0.877
    183       N      1       5.000    2.062   2.062           -0.000      0.877
    184       Ga     2      13.000    6.946   6.946           -0.000     -0.892
    185       N      1       5.000    2.062   2.062            0.000      0.876
    186       Ga     2      13.000    6.950   6.950           -0.000     -0.900
    187       N      1       5.000    2.050   2.050            0.000      0.900
    188       Ga     2      13.000    6.857   6.857            0.000     -0.714
    189       N      1       5.000    2.093   2.095           -0.001      0.812
    190       Ga     2      13.000    6.960   6.960           -0.000     -0.920
    191       N      1       5.000    2.052   2.052           -0.000      0.896
    192       Ga     2      13.000    6.945   6.945           -0.000     -0.891
    193       N      1       5.000    2.060   2.060           -0.000      0.879
    194       Ga     2      13.000    6.938   6.938           -0.000     -0.877
    195       N      1       5.000    2.062   2.062           -0.000      0.876
    196       Ga     2      13.000    6.939   6.939           -0.000     -0.877
    197       N      1       5.000    2.060   2.060           -0.000      0.880
    198       Ga     2      13.000    6.950   6.950            0.000     -0.900
    199       N      1       5.000    2.050   2.050            0.001      0.900
    200       Ga     2      13.000    6.914   6.913            0.001     -0.827
    201       O      3       6.000    3.013   3.013           -0.000     -0.025
    202       H      4       1.000    0.233   0.233           -0.000      0.533
    203       C      5       4.000    2.418   2.418           -0.000     -0.836
    204       H      4       1.000    0.280   0.280           -0.000      0.439
    205       H      4       1.000    0.278   0.278           -0.000      0.443
    206       H      4       1.000    0.280   0.280           -0.000      0.440

  Total Charge                                                            0.002
 !-----------------------------------------------------------------------------!

 ENERGY| Total FORCE_EVAL ( QS ) energy (a.u.):            -8480.622333160090420


 --------  Informations at step =    12 ------------
  Optimization Method        =                 BFGS
  Total Energy               =     -8480.6223331601
  Real energy change         =        -0.0025192588
  Predicted change in energy =        -0.0028117446
  Scaling factor             =         0.9082307966
  Step size                  =         0.3814539619
  Trust radius               =         0.4724315332
  Decrease in energy         =                  YES
  Used time                  =              242.549

  Convergence check :
  Max. step size             =         0.3814539619
  Conv. limit for step size  =         0.0030000000
  Convergence in step size   =                   NO
  RMS step size              =         0.0374697141
  Conv. limit for RMS step   =         0.0015000000
  Convergence in RMS step    =                   NO
  Max. gradient              =         0.0013544452
  Conv. limit for gradients  =         0.0004500000
  Conv. for gradients        =                   NO
  RMS gradient               =         0.0001647781
  Conv. limit for RMS grad.  =         0.0003000000
  Conv. in RMS gradients     =                  YES
 ---------------------------------------------------

 --------------------------
 OPTIMIZATION STEP:     13
 --------------------------

 Spin 1

 Number of electrons:                                                        907
 Number of occupied orbitals:                                                907
 Number of molecular orbitals:                                               907

 Spin 2

 Number of electrons:                                                        907
 Number of occupied orbitals:                                                907
 Number of molecular orbitals:                                               907

 Number of orbital functions:                                               3846
 Number of independent orbital functions:                                   3846

 Parameters for the always stable predictor-corrector (ASPC) method:

  ASPC order: 3

  B(1) =   3.000000
  B(2) =  -3.428571
  B(3) =   1.928571
  B(4) =  -0.571429
  B(5) =   0.071429

 Parameters for the always stable predictor-corrector (ASPC) method:

  ASPC order: 3

  B(1) =   3.000000
  B(2) =  -3.428571
  B(3) =   1.928571
  B(4) =  -0.571429
  B(5) =   0.071429

 Extrapolation method: ASPC


 SCF WAVEFUNCTION OPTIMIZATION

  ----------------------------------- OT ---------------------------------------
  Minimizer      : CG                  : conjugate gradient
  Preconditioner : FULL_ALL            : diagonalization, state selective
  Precond_solver : DEFAULT
  Line search    : 2PNT                : 2 energies, one gradient
  stepsize       :    0.15000000                  energy_gap     :    0.08000000
  eps_taylor     :   0.10000E-15                  max_taylor     :             4
  ----------------------------------- OT ---------------------------------------

  Step     Update method      Time    Convergence         Total energy    Change
  ------------------------------------------------------------------------------
     1 OT CG       0.15E+00   26.2     0.00029786     -8480.4838243919 -8.48E+03
     2 OT LS       0.37E+00    6.9                    -8480.5576750873
     3 OT CG       0.37E+00   17.4     0.00024045     -8480.5973593176 -1.14E-01
     4 OT LS       0.11E+00    9.0                    -8480.4952300741
     5 OT CG       0.11E+00   19.1     0.00007990     -8480.6192441235 -2.19E-02
     6 OT LS       0.11E+00    8.7                    -8480.6215764604
     7 OT CG       0.11E+00   19.0     0.00005380     -8480.6215791851 -2.34E-03
     8 OT LS       0.60E-01    8.7                    -8480.6218411253
     9 OT CG       0.60E-01   19.0     0.00001916     -8480.6221825979 -6.03E-04
    10 OT LS       0.18E+00    8.7                    -8480.6223104814
    11 OT CG       0.18E+00   19.1     0.00000794     -8480.6224121787 -2.30E-04
    12 OT LS       0.21E+00    8.6                    -8480.6224569787
    13 OT CG       0.21E+00   18.6     0.00000524     -8480.6224578116 -4.56E-05
    14 OT LS       0.20E+00    8.7                    -8480.6224769112
    15 OT CG       0.20E+00   17.0     0.00000556     -8480.6224769436 -1.91E-05
    16 OT LS       0.12E+00    6.9                    -8480.6224838397
    17 OT CG       0.12E+00   17.9     0.00000666     -8480.6224896461 -1.27E-05
    18 OT LS       0.48E+00    9.0                    -8480.6225222013
    19 OT CG       0.48E+00   19.4     0.00001401     -8480.6225672229 -7.76E-05
    20 OT LS       0.27E+00    8.4                    -8480.6226491891
    21 OT CG       0.27E+00   16.1     0.00002923     -8480.6229072992 -3.40E-04
    22 OT LS       0.45E-01    7.4                    -8480.6188271137
    23 OT CG       0.45E-01   15.2     0.00002844     -8480.6231869728 -2.80E-04
    24 OT LS       0.96E-01    8.5                    -8480.6233815879
    25 OT CG       0.96E-01   19.0     0.00002515     -8480.6234615177 -2.75E-04
    26 OT LS       0.15E+00    8.5                    -8480.6237484368
