 DBCSR| Multiplication driver                                               BLAS
 DBCSR| Multrec recursion limit                                              512
 DBCSR| Multiplication stack size                                           1000
 DBCSR| Maximum elements for images                                    UNLIMITED
 DBCSR| Multiplicative factor virtual images                                   1
 DBCSR| Multiplication size stacks                                             3
 DBCSR| Number of 3D layers                                               SINGLE
 DBCSR| Use MPI memory allocation                                              T
 DBCSR| Use RMA algorithm                                                      F
 DBCSR| Use Communication thread                                               T
 DBCSR| Communication thread load                                             87


  **** **** ******  **  PROGRAM STARTED AT               2019-06-24 15:08:53.348
 ***** ** ***  *** **   PROGRAM STARTED ON        blg8616.int.ets1.calculquebec.
 **    ****   ******    PROGRAM STARTED BY                                   rzk
 ***** **    ** ** **   PROGRAM PROCESS ID                                 30875
  **** **  *******  **  PROGRAM STARTED IN /scratch/rzk/rzk/GaN-carbene/443-adat
                                           oms-both-2x2/03-DissMethanol/04-O-GaT
                                           op-H-NSur

 CP2K| version string:                    CP2K version 7.0 (Development Version)
 CP2K| source code revision number:                                    svn:18619
 CP2K| cp2kflags: libint fftw3 libxc parallel mpi3 scalapack mkl                
 CP2K| is freely available from                            https://www.cp2k.org/
 CP2K| Program compiled at                          Sun Apr  7 00:48:11 EDT 2019
 CP2K| Program compiled on                      beluga2.int.ets1.calculquebec.ca
 CP2K| Program compiled for                    Beluga-Linux-x86-64-intel-openmpi
 CP2K| Data directory path    /home/rzk/projects/def-rzk/group/cp2k/cp2k-mcgill/
 CP2K| Input file name                                                 start.inp
 
 GLOBAL| Force Environment number                                              1
 GLOBAL| Basis set file name                                        BASIS_MOLOPT
 GLOBAL| Potential file name                                      GTH_POTENTIALS
 GLOBAL| MM Potential file name                                     MM_POTENTIAL
 GLOBAL| Coordinate file name                                      __STD_INPUT__
 GLOBAL| Method name                                                        CP2K
 GLOBAL| Project name                                                       TEST
 GLOBAL| Preferred FFT library                                             FFTW3
 GLOBAL| Preferred diagonalization lib.                                       SL
 GLOBAL| Run type                                                        GEO_OPT
 GLOBAL| All-to-all communication in single precision                          F
 GLOBAL| FFTs using library dependent lengths                                  F
 GLOBAL| Global print level                                               MEDIUM
 GLOBAL| MPI I/O enabled                                                       T
 GLOBAL| Total number of message passing processes                            80
 GLOBAL| Number of threads for this process                                    1
 GLOBAL| This output is from process                                           0
 GLOBAL| CPU model name :  Intel(R) Xeon(R) Gold 6148 CPU @ 2.40GHz

 MEMORY| system memory details [Kb]
 MEMORY|                        rank 0           min           max       average
 MEMORY| MemTotal             97523924      97523924      97523924      97523924
 MEMORY| MemFree              86316720      86310720      86709564      86496658
 MEMORY| Buffers                    76            76            76            76
 MEMORY| Cached                1212848       1202948       1212848       1207900
 MEMORY| Slab                   958336        958336        959424        958880
 MEMORY| SReclaimable           134384        134384        135480        134932
 MEMORY| MemLikelyFree        87664028      87658028      88048068      87839566


 *** Fundamental physical constants (SI units) ***

 *** Literature: B. J. Mohr and B. N. Taylor,
 ***             CODATA recommended values of the fundamental physical
 ***             constants: 2006, Web Version 5.1
 ***             http://physics.nist.gov/constants

 Speed of light in vacuum [m/s]                             2.99792458000000E+08
 Magnetic constant or permeability of vacuum [N/A**2]       1.25663706143592E-06
 Electric constant or permittivity of vacuum [F/m]          8.85418781762039E-12
 Planck constant (h) [J*s]                                  6.62606896000000E-34
 Planck constant (h-bar) [J*s]                              1.05457162825177E-34
 Elementary charge [C]                                      1.60217648700000E-19
 Electron mass [kg]                                         9.10938215000000E-31
 Electron g factor [ ]                                     -2.00231930436220E+00
 Proton mass [kg]                                           1.67262163700000E-27
 Fine-structure constant                                    7.29735253760000E-03
 Rydberg constant [1/m]                                     1.09737315685270E+07
 Avogadro constant [1/mol]                                  6.02214179000000E+23
 Boltzmann constant [J/K]                                   1.38065040000000E-23
 Atomic mass unit [kg]                                      1.66053878200000E-27
 Bohr radius [m]                                            5.29177208590000E-11

 *** Conversion factors ***

 [u] -> [a.u.]                                              1.82288848426455E+03
 [Angstrom] -> [Bohr] = [a.u.]                              1.88972613288564E+00
 [a.u.] = [Bohr] -> [Angstrom]                              5.29177208590000E-01
 [a.u.] -> [s]                                              2.41888432650478E-17
 [a.u.] -> [fs]                                             2.41888432650478E-02
 [a.u.] -> [J]                                              4.35974393937059E-18
 [a.u.] -> [N]                                              8.23872205491840E-08
 [a.u.] -> [K]                                              3.15774647902944E+05
 [a.u.] -> [kJ/mol]                                         2.62549961709828E+03
 [a.u.] -> [kcal/mol]                                       6.27509468713739E+02
 [a.u.] -> [Pa]                                             2.94210107994716E+13
 [a.u.] -> [bar]                                            2.94210107994716E+08
 [a.u.] -> [atm]                                            2.90362800883016E+08
 [a.u.] -> [eV]                                             2.72113838565563E+01
 [a.u.] -> [Hz]                                             6.57968392072181E+15
 [a.u.] -> [1/cm] (wave numbers)                            2.19474631370540E+05
 [a.u./Bohr**2] -> [1/cm]                                   5.14048714338585E+03
 

 CELL_TOP| Volume [angstrom^3]:                                         4586.323
 CELL_TOP| Vector a [angstrom    12.864     0.000     0.000    |a| =      12.864
 CELL_TOP| Vector b [angstrom    -6.432    11.141     0.000    |b| =      12.864
 CELL_TOP| Vector c [angstrom     0.000     0.000    32.000    |c| =      32.000
 CELL_TOP| Angle (b,c), alpha [degree]:                                   90.000
 CELL_TOP| Angle (a,c), beta  [degree]:                                   90.000
 CELL_TOP| Angle (a,b), gamma [degree]:                                  120.000
 CELL_TOP| Numerically orthorhombic:                                          NO
 
 GENERATE|  Preliminary Number of Bonds generated:                             0
 GENERATE|  Achieved consistency in connectivity generation.

 CELL| Volume [angstrom^3]:                                             4586.323
 CELL| Vector a [angstrom]:      12.864     0.000     0.000    |a| =      12.864
 CELL| Vector b [angstrom]:      -6.432    11.141     0.000    |b| =      12.864
 CELL| Vector c [angstrom]:       0.000     0.000    32.000    |c| =      32.000
 CELL| Angle (b,c), alpha [degree]:                                       90.000
 CELL| Angle (a,c), beta  [degree]:                                       90.000
 CELL| Angle (a,b), gamma [degree]:                                      120.000
 CELL| Numerically orthorhombic:                                              NO

 CELL_REF| Volume [angstrom^3]:                                         4670.759
 CELL_REF| Vector a [angstrom    12.982     0.000     0.000    |a| =      12.982
 CELL_REF| Vector b [angstrom    -6.491    11.243     0.000    |b| =      12.982
 CELL_REF| Vector c [angstrom     0.000     0.000    32.000    |c| =      32.000
 CELL_REF| Angle (b,c), alpha [degree]:                                   90.000
 CELL_REF| Angle (a,c), beta  [degree]:                                   90.000
 CELL_REF| Angle (a,b), gamma [degree]:                                  120.000
 CELL_REF| Numerically orthorhombic:                                          NO

 *******************************************************************************
 *******************************************************************************
 **                                                                           **
 **     #####                         ##              ##                      **
 **    ##   ##            ##          ##              ##                      **
 **   ##     ##                       ##            ######                    **
 **   ##     ##  ##   ##  ##   #####  ##  ##   ####   ##    #####    #####    **
 **   ##     ##  ##   ##  ##  ##      ## ##   ##      ##   ##   ##  ##   ##   **
 **   ##  ## ##  ##   ##  ##  ##      ####     ###    ##   ######   ######    **
 **    ##  ###   ##   ##  ##  ##      ## ##      ##   ##   ##       ##        **
 **     #######   #####   ##   #####  ##  ##  ####    ##    #####   ##        **
 **           ##                                                    ##        **
 **                                                                           **
 **                                                ... make the atoms dance   **
 **                                                                           **
 **            Copyright (C) by CP2K developers group (2000 - 2018)           **
 **                                                                           **
 *******************************************************************************

 DFT| Spin unrestricted (spin-polarized) Kohn-Sham calculation               UKS
 DFT| Multiplicity                                                             1
 DFT| Number of spin states                                                    2
 DFT| Charge                                                                   0
 DFT| Self-interaction correction (SIC)                                       NO
 DFT| Cutoffs: density                                              1.000000E-10
 DFT|          gradient                                             1.000000E-10
 DFT|          tau                                                  1.000000E-10
 DFT|          cutoff_smoothing_range                               0.000000E+00
 DFT| XC density smoothing                                                  NONE
 DFT| XC derivatives                                                          PW
 FUNCTIONAL| ROUTINE=NEW
 FUNCTIONAL| PBE:
 FUNCTIONAL| J.P.Perdew, K.Burke, M.Ernzerhof, Phys. Rev. Letter, vol. 77, n 18,
 FUNCTIONAL|  pp. 3865-3868, (1996){spin polarized}                             
 vdW POTENTIAL|                                                   Pair Potential
 vdW POTENTIAL|          DFT-D3 (Version 3.1)
 vdW POTENTIAL|          Potential Form: S. Grimme et al, JCP 132: 154104 (2010)
 vdW POTENTIAL|          Zero Damping
 vdW POTENTIAL|          Cutoff Radius [Bohr]:                             18.90
 vdW POTENTIAL|          s6 Scaling Factor:                               1.0000
 vdW POTENTIAL|          sr6 Scaling Factor:                              1.2170
 vdW POTENTIAL|          s8 Scaling Factor:                               0.7220
 vdW POTENTIAL|          Cutoff for CN calculation:                   0.1000E-05

 QS| Method:                                                                 GPW
 QS| Density plane wave grid type                        NON-SPHERICAL FULLSPACE
 QS| Number of grid levels:                                                    5
 QS| Density cutoff [a.u.]:                                                600.0
 QS| Multi grid cutoff [a.u.]: 1) grid level                               600.0
 QS|                           2) grid level                               200.0
 QS|                           3) grid level                                66.7
 QS|                           4) grid level                                22.2
 QS|                           5) grid level                                 7.4
 QS| Grid level progression factor:                                          3.0
 QS| Relative density cutoff [a.u.]:                                        20.0
 QS| Consistent realspace mapping and integration 
 QS| Interaction thresholds: eps_pgf_orb:                                1.0E-07
 QS|                         eps_filter_matrix:                          0.0E+00
 QS|                         eps_core_charge:                            1.0E-16
 QS|                         eps_rho_gspace:                             1.0E-14
 QS|                         eps_rho_rspace:                             1.0E-14
 QS|                         eps_gvg_rspace:                             1.0E-07
 QS|                         eps_ppl:                                    1.0E-02
 QS|                         eps_ppnl:                                   1.0E-09


 ATOMIC KIND INFORMATION

  1. Atomic kind: N                                     Number of atoms:     100

     Orbital Basis Set                                        DZVP-MOLOPT-SR-GTH

       Number of orbital shell sets:                                           1
       Number of orbital shells:                                               5
       Number of primitive Cartesian functions:                                5
       Number of Cartesian basis functions:                                   14
       Number of spherical basis functions:                                   13
       Norm type:                                                              2

       Normalised Cartesian orbitals:

                        Set   Shell   Orbital            Exponent    Coefficient

                          1       1    2s                7.341988       0.360561
                                                         2.542637       0.139177
                                                         0.888575      -0.289383
                                                         0.333802      -0.182244
                                                         0.112012      -0.019197

                          1       2    3s                7.341988       0.282000
                                                         2.542637       0.177875
                                                         0.888575      -0.278381
                                                         0.333802       0.008577
                                                         0.112012       0.154176

                          1       3    3px               7.341988      -1.188719
                                                         2.542637      -0.973969
                                                         0.888575      -0.501079
                                                         0.333802      -0.144894
                                                         0.112012      -0.013986
                          1       3    3py               7.341988      -1.188719
                                                         2.542637      -0.973969
                                                         0.888575      -0.501079
                                                         0.333802      -0.144894
                                                         0.112012      -0.013986
                          1       3    3pz               7.341988      -1.188719
                                                         2.542637      -0.973969
                                                         0.888575      -0.501079
                                                         0.333802      -0.144894
                                                         0.112012      -0.013986

                          1       4    4px               7.341988      -0.094798
                                                         2.542637       0.050069
                                                         0.888575      -0.114797
                                                         0.333802       0.144793
                                                         0.112012       0.066710
                          1       4    4py               7.341988      -0.094798
                                                         2.542637       0.050069
                                                         0.888575      -0.114797
                                                         0.333802       0.144793
                                                         0.112012       0.066710
                          1       4    4pz               7.341988      -0.094798
                                                         2.542637       0.050069
                                                         0.888575      -0.114797
                                                         0.333802       0.144793
                                                         0.112012       0.066710

                          1       5    4dx2              7.341988       1.354688
                                                         2.542637       0.690378
                                                         0.888575       0.855359
                                                         0.333802       0.091746
                                                         0.112012       0.001253
                          1       5    4dxy              7.341988       2.346389
                                                         2.542637       1.195770
                                                         0.888575       1.481524
                                                         0.333802       0.158910
                                                         0.112012       0.002169
                          1       5    4dxz              7.341988       2.346389
                                                         2.542637       1.195770
                                                         0.888575       1.481524
                                                         0.333802       0.158910
                                                         0.112012       0.002169
                          1       5    4dy2              7.341988       1.354688
                                                         2.542637       0.690378
                                                         0.888575       0.855359
                                                         0.333802       0.091746
                                                         0.112012       0.001253
                          1       5    4dyz              7.341988       2.346389
                                                         2.542637       1.195770
                                                         0.888575       1.481524
                                                         0.333802       0.158910
                                                         0.112012       0.002169
                          1       5    4dz2              7.341988       1.354688
                                                         2.542637       0.690378
                                                         0.888575       0.855359
                                                         0.333802       0.091746
                                                         0.112012       0.001253

     GTH Potential information for                                    GTH-PBE-q5

       Description:                       Goedecker-Teter-Hutter pseudopotential
                                           Goedecker et al., PRB 54, 1703 (1996)
                                          Hartwigsen et al., PRB 58, 3641 (1998)
                                                      Krack, TCA 114, 145 (2005)

       Gaussian exponent of the core charge distribution:               6.208322
       Electronic configuration (s p d ...):                               2   3

       Parameters of the local part of the GTH pseudopotential:

                          rloc        C1          C2          C3          C4
                        0.283791  -12.415226    1.868096

       Parameters of the non-local part of the GTH pseudopotential:

                   l      r(l)      h(i,j,l)

                   0    0.255405   13.630263
                   1    0.245495

  2. Atomic kind: Ga                                    Number of atoms:     100

     Orbital Basis Set                                        DZVP-MOLOPT-SR-GTH

       Number of orbital shell sets:                                           1
       Number of orbital shells:                                               7
       Number of primitive Cartesian functions:                                6
       Number of Cartesian basis functions:                                   30
       Number of spherical basis functions:                                   25
       Norm type:                                                              2

       Normalised Cartesian orbitals:

                        Set   Shell   Orbital            Exponent    Coefficient

                          1       1    2s                7.066654       0.013136
                                                         3.428369      -0.094392
                                                         1.430064       0.265435
                                                         0.571611       0.056465
                                                         0.232197      -0.192187
                                                         0.076562      -0.044987

                          1       2    3s                7.066654      -0.098564
                                                         3.428369       0.010390
                                                         1.430064       0.351249
                                                         0.571611       0.182615
                                                         0.232197      -0.425358
                                                         0.076562       0.190349

                          1       3    3px               7.066654       0.002364
                                                         3.428369       0.019222
                                                         1.430064       0.250132
                                                         0.571611      -0.058486
                                                         0.232197      -0.159451
                                                         0.076562      -0.020696
                          1       3    3py               7.066654       0.002364
                                                         3.428369       0.019222
                                                         1.430064       0.250132
                                                         0.571611      -0.058486
                                                         0.232197      -0.159451
                                                         0.076562      -0.020696
                          1       3    3pz               7.066654       0.002364
                                                         3.428369       0.019222
                                                         1.430064       0.250132
                                                         0.571611      -0.058486
                                                         0.232197      -0.159451
                                                         0.076562      -0.020696

                          1       4    4px               7.066654       0.492448
                                                         3.428369      -0.614736
                                                         1.430064      -0.191654
                                                         0.571611       0.037801
                                                         0.232197       0.302315
                                                         0.076562      -0.071336
                          1       4    4py               7.066654       0.492448
                                                         3.428369      -0.614736
                                                         1.430064      -0.191654
                                                         0.571611       0.037801
                                                         0.232197       0.302315
                                                         0.076562      -0.071336
                          1       4    4pz               7.066654       0.492448
                                                         3.428369      -0.614736
                                                         1.430064      -0.191654
                                                         0.571611       0.037801
                                                         0.232197       0.302315
                                                         0.076562      -0.071336

                          1       5    4dx2              7.066654     -15.264855
                                                         3.428369      -5.345726
                                                         1.430064      -1.022732
                                                         0.571611      -0.123148
                                                         0.232197      -0.006983
                                                         0.076562      -0.000022
                          1       5    4dxy              7.066654     -26.439504
                                                         3.428369      -9.259069
                                                         1.430064      -1.771423
                                                         0.571611      -0.213299
                                                         0.232197      -0.012094
                                                         0.076562      -0.000037
                          1       5    4dxz              7.066654     -26.439504
                                                         3.428369      -9.259069
                                                         1.430064      -1.771423
                                                         0.571611      -0.213299
                                                         0.232197      -0.012094
                                                         0.076562      -0.000037
                          1       5    4dy2              7.066654     -15.264855
                                                         3.428369      -5.345726
                                                         1.430064      -1.022732
                                                         0.571611      -0.123148
                                                         0.232197      -0.006983
                                                         0.076562      -0.000022
                          1       5    4dyz              7.066654     -26.439504
                                                         3.428369      -9.259069
                                                         1.430064      -1.771423
                                                         0.571611      -0.213299
                                                         0.232197      -0.012094
                                                         0.076562      -0.000037
                          1       5    4dz2              7.066654     -15.264855
                                                         3.428369      -5.345726
                                                         1.430064      -1.022732
                                                         0.571611      -0.123148
                                                         0.232197      -0.006983
                                                         0.076562      -0.000022

                          1       6    5dx2              7.066654      -5.739265
                                                         3.428369      -2.129289
                                                         1.430064      -0.700423
                                                         0.571611       0.161606
                                                         0.232197       0.043513
                                                         0.076562       0.011205
                          1       6    5dxy              7.066654      -9.940698
                                                         3.428369      -3.688037
                                                         1.430064      -1.213168
                                                         0.571611       0.279909
                                                         0.232197       0.075368
                                                         0.076562       0.019407
                          1       6    5dxz              7.066654      -9.940698
                                                         3.428369      -3.688037
                                                         1.430064      -1.213168
                                                         0.571611       0.279909
                                                         0.232197       0.075368
                                                         0.076562       0.019407
                          1       6    5dy2              7.066654      -5.739265
                                                         3.428369      -2.129289
                                                         1.430064      -0.700423
                                                         0.571611       0.161606
                                                         0.232197       0.043513
                                                         0.076562       0.011205
                          1       6    5dyz              7.066654      -9.940698
                                                         3.428369      -3.688037
                                                         1.430064      -1.213168
                                                         0.571611       0.279909
                                                         0.232197       0.075368
                                                         0.076562       0.019407
                          1       6    5dz2              7.066654      -5.739265
                                                         3.428369      -2.129289
                                                         1.430064      -0.700423
                                                         0.571611       0.161606
                                                         0.232197       0.043513
                                                         0.076562       0.011205

                          1       7    5fx3              7.066654       0.705879
                                                         3.428369      -0.273976
                                                         1.430064       0.113667
                                                         0.571611       0.132480
                                                         0.232197       0.012437
                                                         0.076562       0.003241
                          1       7    5fx2y             7.066654       1.578393
                                                         3.428369      -0.612629
                                                         1.430064       0.254167
                                                         0.571611       0.296234
                                                         0.232197       0.027811
                                                         0.076562       0.007246
                          1       7    5fx2z             7.066654       1.578393
                                                         3.428369      -0.612629
                                                         1.430064       0.254167
                                                         0.571611       0.296234
                                                         0.232197       0.027811
                                                         0.076562       0.007246
                          1       7    5fxy2             7.066654       1.578393
                                                         3.428369      -0.612629
                                                         1.430064       0.254167
                                                         0.571611       0.296234
                                                         0.232197       0.027811
                                                         0.076562       0.007246
                          1       7    5fxyz             7.066654       2.733856
                                                         3.428369      -1.061105
                                                         1.430064       0.440230
                                                         0.571611       0.513092
                                                         0.232197       0.048170
                                                         0.076562       0.012551
                          1       7    5fxz2             7.066654       1.578393
                                                         3.428369      -0.612629
                                                         1.430064       0.254167
                                                         0.571611       0.296234
                                                         0.232197       0.027811
                                                         0.076562       0.007246
                          1       7    5fy3              7.066654       0.705879
                                                         3.428369      -0.273976
                                                         1.430064       0.113667
                                                         0.571611       0.132480
                                                         0.232197       0.012437
                                                         0.076562       0.003241
                          1       7    5fy2z             7.066654       1.578393
                                                         3.428369      -0.612629
                                                         1.430064       0.254167
                                                         0.571611       0.296234
                                                         0.232197       0.027811
                                                         0.076562       0.007246
                          1       7    5fyz2             7.066654       1.578393
                                                         3.428369      -0.612629
                                                         1.430064       0.254167
                                                         0.571611       0.296234
                                                         0.232197       0.027811
                                                         0.076562       0.007246
                          1       7    5fz3              7.066654       0.705879
                                                         3.428369      -0.273976
                                                         1.430064       0.113667
                                                         0.571611       0.132480
                                                         0.232197       0.012437
                                                         0.076562       0.003241

     GTH Potential information for                                   GTH-PBE-q13

       Description:                       Goedecker-Teter-Hutter pseudopotential
                                           Goedecker et al., PRB 54, 1703 (1996)
                                          Hartwigsen et al., PRB 58, 3641 (1998)
                                                      Krack, TCA 114, 145 (2005)

       Gaussian exponent of the core charge distribution:               2.082466
       Electronic configuration (s p d ...):                           2   1  10

       Parameters of the local part of the GTH pseudopotential:

                          rloc        C1          C2          C3          C4
                        0.490000

       Parameters of the non-local part of the GTH pseudopotential:

                   l      r(l)      h(i,j,l)

                   0    0.416777   10.475690   -4.921768    0.870706
                                   -4.921768    7.770178   -2.248152
                                    0.870706   -2.248152    1.784415
                   1    0.569627    1.777985    0.195860
                                    0.195860   -0.231744
                   2    0.238126  -16.248680

  3. Atomic kind: O                                     Number of atoms:       1

     Orbital Basis Set                                     DZVP-MOLOPT-SR-GTH-q6

       Number of orbital shell sets:                                           1
       Number of orbital shells:                                               5
       Number of primitive Cartesian functions:                                5
       Number of Cartesian basis functions:                                   14
       Number of spherical basis functions:                                   13
       Norm type:                                                              2

       Normalised Cartesian orbitals:

                        Set   Shell   Orbital            Exponent    Coefficient

                          1       1    2s               10.389228       0.396646
                                                         3.849621       0.208811
                                                         1.388401      -0.301641
                                                         0.496955      -0.274061
                                                         0.162492      -0.033677

                          1       2    3s               10.389228       0.303673
                                                         3.849621       0.240943
                                                         1.388401      -0.313066
                                                         0.496955      -0.043055
                                                         0.162492       0.213991

                          1       3    3px              10.389228      -1.530415
                                                         3.849621      -1.371928
                                                         1.388401      -0.761951
                                                         0.496955      -0.253695
                                                         0.162492      -0.035541
                          1       3    3py              10.389228      -1.530415
                                                         3.849621      -1.371928
                                                         1.388401      -0.761951
                                                         0.496955      -0.253695
                                                         0.162492      -0.035541
                          1       3    3pz              10.389228      -1.530415
                                                         3.849621      -1.371928
                                                         1.388401      -0.761951
                                                         0.496955      -0.253695
                                                         0.162492      -0.035541

                          1       4    4px              10.389228      -0.565392
                                                         3.849621      -0.038231
                                                         1.388401      -0.382373
                                                         0.496955       0.179070
                                                         0.162492       0.122714
                          1       4    4py              10.389228      -0.565392
                                                         3.849621      -0.038231
                                                         1.388401      -0.382373
                                                         0.496955       0.179070
                                                         0.162492       0.122714
                          1       4    4pz              10.389228      -0.565392
                                                         3.849621      -0.038231
                                                         1.388401      -0.382373
                                                         0.496955       0.179070
                                                         0.162492       0.122714

                          1       5    4dx2             10.389228       1.867377
                                                         3.849621       0.670994
                                                         1.388401       1.353441
                                                         0.496955       0.273538
                                                         0.162492       0.006620
                          1       5    4dxy             10.389228       3.234392
                                                         3.849621       1.162195
                                                         1.388401       2.344229
                                                         0.496955       0.473781
                                                         0.162492       0.011466
                          1       5    4dxz             10.389228       3.234392
                                                         3.849621       1.162195
                                                         1.388401       2.344229
                                                         0.496955       0.473781
                                                         0.162492       0.011466
                          1       5    4dy2             10.389228       1.867377
                                                         3.849621       0.670994
                                                         1.388401       1.353441
                                                         0.496955       0.273538
                                                         0.162492       0.006620
                          1       5    4dyz             10.389228       3.234392
                                                         3.849621       1.162195
                                                         1.388401       2.344229
                                                         0.496955       0.473781
                                                         0.162492       0.011466
                          1       5    4dz2             10.389228       1.867377
                                                         3.849621       0.670994
                                                         1.388401       1.353441
                                                         0.496955       0.273538
                                                         0.162492       0.006620

     GTH Potential information for                                    GTH-PBE-q6

       Description:                       Goedecker-Teter-Hutter pseudopotential
                                           Goedecker et al., PRB 54, 1703 (1996)
                                          Hartwigsen et al., PRB 58, 3641 (1998)
                                                      Krack, TCA 114, 145 (2005)

       Gaussian exponent of the core charge distribution:               8.360253
       Electronic configuration (s p d ...):                               2   4

       Parameters of the local part of the GTH pseudopotential:

                          rloc        C1          C2          C3          C4
                        0.244554  -16.667215    2.487311

       Parameters of the non-local part of the GTH pseudopotential:

                   l      r(l)      h(i,j,l)

                   0    0.220956   18.337458
                   1    0.211332

  4. Atomic kind: H                                     Number of atoms:       4

     Orbital Basis Set                                     DZVP-MOLOPT-SR-GTH-q1

       Number of orbital shell sets:                                           1
       Number of orbital shells:                                               3
       Number of primitive Cartesian functions:                                5
       Number of Cartesian basis functions:                                    5
       Number of spherical basis functions:                                    5
       Norm type:                                                              2

       Normalised Cartesian orbitals:

                        Set   Shell   Orbital            Exponent    Coefficient

                          1       1    2s               10.068468      -0.133023
                                                         2.680223      -0.177618
                                                         0.791502      -0.258419
                                                         0.239116      -0.107525
                                                         0.082193      -0.014019

                          1       2    3s               10.068468       0.344673
                                                         2.680223       1.819821
                                                         0.791502      -0.999069
                                                         0.239116       0.017430
                                                         0.082193       0.082660

                          1       3    3px              10.068468       0.155326
                                                         2.680223       0.367157
                                                         0.791502       0.311480
                                                         0.239116       0.080105
                                                         0.082193       0.033440
                          1       3    3py              10.068468       0.155326
                                                         2.680223       0.367157
                                                         0.791502       0.311480
                                                         0.239116       0.080105
                                                         0.082193       0.033440
                          1       3    3pz              10.068468       0.155326
                                                         2.680223       0.367157
                                                         0.791502       0.311480
                                                         0.239116       0.080105
                                                         0.082193       0.033440

     GTH Potential information for                                    GTH-PBE-q1

       Description:                       Goedecker-Teter-Hutter pseudopotential
                                           Goedecker et al., PRB 54, 1703 (1996)
                                          Hartwigsen et al., PRB 58, 3641 (1998)
                                                      Krack, TCA 114, 145 (2005)

       Gaussian exponent of the core charge distribution:              12.500000
       Electronic configuration (s p d ...):                                   1

       Parameters of the local part of the GTH pseudopotential:

                          rloc        C1          C2          C3          C4
                        0.200000   -4.178900    0.724463

  5. Atomic kind: C                                     Number of atoms:       1

     Orbital Basis Set                                     DZVP-MOLOPT-SR-GTH-q4

       Number of orbital shell sets:                                           1
       Number of orbital shells:                                               5
       Number of primitive Cartesian functions:                                5
       Number of Cartesian basis functions:                                   14
       Number of spherical basis functions:                                   13
       Norm type:                                                              2

       Normalised Cartesian orbitals:

                        Set   Shell   Orbital            Exponent    Coefficient

                          1       1    2s                5.605331       0.322515
                                                         2.113016       0.213043
                                                         0.769911      -0.209686
                                                         0.348157      -0.219794
                                                         0.128212      -0.022789

                          1       2    3s                5.605331       0.552234
                                                         2.113016       0.082072
                                                         0.769911       0.007843
                                                         0.348157       0.136893
                                                         0.128212       0.074283

                          1       3    3px               5.605331      -0.703879
                                                         2.113016      -0.642521
                                                         0.769911      -0.374851
                                                         0.348157      -0.139743
                                                         0.128212      -0.027849
                          1       3    3py               5.605331      -0.703879
                                                         2.113016      -0.642521
                                                         0.769911      -0.374851
                                                         0.348157      -0.139743
                                                         0.128212      -0.027849
                          1       3    3pz               5.605331      -0.703879
                                                         2.113016      -0.642521
                                                         0.769911      -0.374851
                                                         0.348157      -0.139743
                                                         0.128212      -0.027849

                          1       4    4px               5.605331      -0.480376
                                                         2.113016      -0.552894
                                                         0.769911      -0.316145
                                                         0.348157       0.210505
                                                         0.128212       0.076095
                          1       4    4py               5.605331      -0.480376
                                                         2.113016      -0.552894
                                                         0.769911      -0.316145
                                                         0.348157       0.210505
                                                         0.128212       0.076095
                          1       4    4pz               5.605331      -0.480376
                                                         2.113016      -0.552894
                                                         0.769911      -0.316145
                                                         0.348157       0.210505
                                                         0.128212       0.076095

                          1       5    4dx2              5.605331       0.640026
                                                         2.113016       0.274300
                                                         0.769911       0.446711
                                                         0.348157       0.028674
                                                         0.128212       0.029790
                          1       5    4dxy              5.605331       1.108557
                                                         2.113016       0.475102
                                                         0.769911       0.773726
                                                         0.348157       0.049666
                                                         0.128212       0.051599
                          1       5    4dxz              5.605331       1.108557
                                                         2.113016       0.475102
                                                         0.769911       0.773726
                                                         0.348157       0.049666
                                                         0.128212       0.051599
                          1       5    4dy2              5.605331       0.640026
                                                         2.113016       0.274300
                                                         0.769911       0.446711
                                                         0.348157       0.028674
                                                         0.128212       0.029790
                          1       5    4dyz              5.605331       1.108557
                                                         2.113016       0.475102
                                                         0.769911       0.773726
                                                         0.348157       0.049666
                                                         0.128212       0.051599
                          1       5    4dz2              5.605331       0.640026
                                                         2.113016       0.274300
                                                         0.769911       0.446711
                                                         0.348157       0.028674
                                                         0.128212       0.029790

     GTH Potential information for                                    GTH-PBE-q4

       Description:                       Goedecker-Teter-Hutter pseudopotential
                                           Goedecker et al., PRB 54, 1703 (1996)
                                          Hartwigsen et al., PRB 58, 3641 (1998)
                                                      Krack, TCA 114, 145 (2005)

       Gaussian exponent of the core charge distribution:               4.364419
       Electronic configuration (s p d ...):                               2   2

       Parameters of the local part of the GTH pseudopotential:

                          rloc        C1          C2          C3          C4
                        0.338471   -8.803674    1.339211

       Parameters of the non-local part of the GTH pseudopotential:

                   l      r(l)      h(i,j,l)

                   0    0.302576    9.622487
                   1    0.291507


 MOLECULE KIND INFORMATION


 All atoms are their own molecule, skipping detailed information


 TOTAL NUMBERS AND MAXIMUM NUMBERS

  Total number of            - Atomic kinds:                                   5
                             - Atoms:                                        206
                             - Shell sets:                                   206
                             - Shells:                                      1222
                             - Primitive Cartesian functions:               1130
                             - Cartesian basis functions:                   4448
                             - Spherical basis functions:                   3846

  Maximum angular momentum of- Orbital basis functions:                        3
                             - Local part of the GTH pseudopotential:          2
                             - Non-local part of the GTH pseudopotential:      4


 MODULE QUICKSTEP:  ATOMIC COORDINATES IN angstrom

  Atom  Kind  Element       X           Y           Z          Z(eff)       Mass

       1     1 N    7   -0.025481    2.049933    2.509799      5.00      14.0067
       2     2 Ga  31   -0.021436    0.073153    2.865501     13.00      69.7230
       3     1 N    7   -0.016814    0.061012    5.007143      5.00      14.0067
       4     2 Ga  31   -0.016087    1.889529    5.796167     13.00      69.7230
       5     1 N    7   -0.013007    1.901520    7.787884      5.00      14.0067
       6     2 Ga  31   -0.011998    0.056289    8.438732     13.00      69.7230
       7     1 N    7   -0.011055    0.055694   10.409350      5.00      14.0067
       8     2 Ga  31   -0.010104    1.896313   11.064631     13.00      69.7230
       9     1 N    7   -0.008809    1.876563   13.055220      5.00      14.0067
      10     2 Ga  31   -0.008840    0.058717   13.866151     13.00      69.7230
      11     1 N    7   -0.007231    0.056180   16.062746      5.00      14.0067
      12     2 Ga  31   -0.009806    2.115067   16.493008     13.00      69.7230
      13     2 Ga  31   -0.035956    3.773977    1.515562     13.00      69.7230
      14     1 N    7   -1.513153    4.638877    2.512765      5.00      14.0067
      15     2 Ga  31   -1.726075    2.788601    3.298430     13.00      69.7230
      16     1 N    7   -1.628960    2.843800    5.254970      5.00      14.0067
      17     2 Ga  31   -1.647668    4.716865    5.799296     13.00      69.7230
      18     1 N    7   -1.631288    4.705887    7.791047      5.00      14.0067
      19     2 Ga  31   -1.611293    2.847544    8.431375     13.00      69.7230
      20     1 N    7   -1.607304    2.847634   10.421237      5.00      14.0067
      21     2 Ga  31   -1.632541    4.706088   11.066218     13.00      69.7230
      22     1 N    7   -1.648385    4.715916   13.056121      5.00      14.0067
      23     2 Ga  31   -1.605187    2.847449   13.620154     13.00      69.7230
      24     1 N    7   -1.635063    2.828631   15.575249      5.00      14.0067
      25     2 Ga  31   -1.444939    4.595275   16.491217     13.00      69.7230
      26     1 N    7   -0.009288    3.772419   17.627584      5.00      14.0067
      27     1 N    7   -3.233466    7.610081    2.515155      5.00      14.0067
      28     2 Ga  31   -3.226214    5.629015    2.852570     13.00      69.7230
      29     1 N    7   -3.230886    5.629231    5.007324      5.00      14.0067
      30     2 Ga  31   -3.232967    7.458404    5.792276     13.00      69.7230
      31     1 N    7   -3.230054    7.472707    7.785915      5.00      14.0067
      32     2 Ga  31   -3.229107    5.627680    8.441442     13.00      69.7230
      33     1 N    7   -3.227115    5.625602   10.410908      5.00      14.0067
      34     2 Ga  31   -3.227394    7.465145   11.064106     13.00      69.7230
      35     1 N    7   -3.224983    7.445647   13.052452      5.00      14.0067
      36     2 Ga  31   -3.222151    5.625696   13.866157     13.00      69.7230
      37     1 N    7   -3.225350    5.628755   16.061275      5.00      14.0067
      38     2 Ga  31   -3.227421    7.667888   16.469709     13.00      69.7230
      39     2 Ga  31   -3.228954    9.339420    1.454936     13.00      69.7230
      40     1 N    7   -4.741299   10.217629    2.502252      5.00      14.0067
      41     2 Ga  31   -4.940369    8.364650    3.269168     13.00      69.7230
      42     1 N    7   -4.841176    8.415662    5.234734      5.00      14.0067
      43     2 Ga  31   -4.862906   10.286465    5.789204     13.00      69.7230
      44     1 N    7   -4.846722   10.274757    7.783169      5.00      14.0067
      45     2 Ga  31   -4.828165    8.417751    8.429662     13.00      69.7230
      46     1 N    7   -4.824576    8.417825   10.420186      5.00      14.0067
      47     2 Ga  31   -4.850535   10.276894   11.063832     13.00      69.7230
      48     1 N    7   -4.865194   10.286957   13.053579      5.00      14.0067
      49     2 Ga  31   -4.822645    8.416569   13.610247     13.00      69.7230
      50     1 N    7   -4.847716    8.399847   15.566471      5.00      14.0067
      51     2 Ga  31   -4.679092   10.174307   16.469935     13.00      69.7230
      52     1 N    7   -3.228293    9.345774   17.614249      5.00      14.0067
      53     1 N    7    3.185453    1.924398    2.580372      5.00      14.0067
      54     2 Ga  31    3.193265    0.176964    3.264717     13.00      69.7230
      55     1 N    7    3.199603    0.062927    5.231250      5.00      14.0067
      56     2 Ga  31    3.198646    1.915301    5.868831     13.00      69.7230
      57     1 N    7    3.203156    1.913000    7.838597      5.00      14.0067
      58     2 Ga  31    3.202126    0.045942    8.431477     13.00      69.7230
      59     1 N    7    3.204271    0.043245   10.420575      5.00      14.0067
      60     2 Ga  31    3.204103    1.913538   11.019804     13.00      69.7230
      61     1 N    7    3.206204    1.913421   12.986489      5.00      14.0067
      62     2 Ga  31    3.207313    0.044627   13.611942     13.00      69.7230
      63     1 N    7    3.207442    0.071628   15.572473      5.00      14.0067
      64     2 Ga  31    3.205574    1.910724   15.856834     13.00      69.7230
      65     1 N    7    1.468327    4.641400    2.500700      5.00      14.0067
      66     2 Ga  31    1.679596    2.793772    3.288415     13.00      69.7230
      67     1 N    7    1.594575    2.844444    5.246683      5.00      14.0067
      68     2 Ga  31    1.615701    4.716756    5.796424     13.00      69.7230
      69     1 N    7    1.605776    4.705989    7.788608      5.00      14.0067
      70     2 Ga  31    1.585564    2.848020    8.429780     13.00      69.7230
      71     1 N    7    1.585952    2.848163   10.419638      5.00      14.0067
      72     2 Ga  31    1.612021    4.705796   11.067343     13.00      69.7230
      73     1 N    7    1.630925    4.715908   13.057792      5.00      14.0067
      74     2 Ga  31    1.587635    2.847362   13.621717     13.00      69.7230
      75     1 N    7    1.617047    2.828982   15.578013      5.00      14.0067
      76     2 Ga  31    1.426694    4.596288   16.493319     13.00      69.7230
      77     1 N    7   -0.020272    7.489879    2.603714      5.00      14.0067
      78     2 Ga  31   -0.018206    5.747846    3.293533     13.00      69.7230
      79     1 N    7   -0.016440    5.636007    5.252031      5.00      14.0067
      80     2 Ga  31   -0.016269    7.489055    5.875013     13.00      69.7230
      81     1 N    7   -0.012778    7.486604    7.844469      5.00      14.0067
      82     2 Ga  31   -0.012284    5.617089    8.432547     13.00      69.7230
      83     1 N    7   -0.010121    5.613547   10.422511      5.00      14.0067
      84     2 Ga  31   -0.009876    7.482457   11.021813     13.00      69.7230
      85     1 N    7   -0.008216    7.482159   12.989734      5.00      14.0067
      86     2 Ga  31   -0.008770    5.612045   13.623169     13.00      69.7230
      87     1 N    7   -0.008692    5.647332   15.580624      5.00      14.0067
      88     2 Ga  31   -0.009307    7.482942   15.851727     13.00      69.7230
      89     1 N    7   -1.732670   10.216834    2.512643      5.00      14.0067
      90     2 Ga  31   -1.530317    8.365410    3.281517     13.00      69.7230
      91     1 N    7   -1.623685    8.417038    5.244149      5.00      14.0067
      92     2 Ga  31   -1.601242   10.288673    5.794472     13.00      69.7230
      93     1 N    7   -1.612559   10.275925    7.787963      5.00      14.0067
      94     2 Ga  31   -1.631757    8.418517    8.432514     13.00      69.7230
      95     1 N    7   -1.630276    8.417407   10.422076      5.00      14.0067
      96     2 Ga  31   -1.604968   10.276460   11.062827     13.00      69.7230
      97     1 N    7   -1.585153   10.286837   13.052025      5.00      14.0067
      98     2 Ga  31   -1.627584    8.416875   13.611072     13.00      69.7230
      99     1 N    7   -1.603508    8.400594   15.568993      5.00      14.0067
     100     2 Ga  31   -1.777200   10.173551   16.468085     13.00      69.7230
     101     1 N    7    6.410359    2.041398    2.516477      5.00      14.0067
     102     2 Ga  31    6.412340    0.061068    2.857985     13.00      69.7230
     103     1 N    7    6.416863    0.059267    5.013729      5.00      14.0067
     104     2 Ga  31    6.413642    1.886720    5.796240     13.00      69.7230
     105     1 N    7    6.417802    1.902140    7.788492      5.00      14.0067
     106     2 Ga  31    6.419310    0.056145    8.441481     13.00      69.7230
     107     1 N    7    6.421999    0.055001   10.411292      5.00      14.0067
     108     2 Ga  31    6.421522    1.895858   11.063892     13.00      69.7230
     109     1 N    7    6.423332    1.875572   13.054267      5.00      14.0067
     110     2 Ga  31    6.423845    0.055526   13.860069     13.00      69.7230
     111     1 N    7    6.422078    0.057381   16.058995      5.00      14.0067
     112     2 Ga  31    6.420962    2.103997   16.472464     13.00      69.7230
     113     2 Ga  31    6.418596    3.776734    1.485787     13.00      69.7230
     114     1 N    7    4.907535    4.643367    2.510956      5.00      14.0067
     115     2 Ga  31    4.698936    2.788118    3.273492     13.00      69.7230
     116     1 N    7    4.804494    2.842123    5.235561      5.00      14.0067
     117     2 Ga  31    4.781983    4.713821    5.790873     13.00      69.7230
     118     1 N    7    4.800756    4.703727    7.784228      5.00      14.0067
     119     2 Ga  31    4.819807    2.847345    8.432036     13.00      69.7230
     120     1 N    7    4.824004    2.847911   10.421349      5.00      14.0067
     121     2 Ga  31    4.798501    4.706659   11.067067     13.00      69.7230
     122     1 N    7    4.782855    4.716121   13.057960      5.00      14.0067
     123     2 Ga  31    4.825354    2.846187   13.613610     13.00      69.7230
     124     1 N    7    4.796044    2.828632   15.572198      5.00      14.0067
     125     2 Ga  31    4.971796    4.605577   16.473415     13.00      69.7230
     126     1 N    7    6.422925    3.777209   17.595698      5.00      14.0067
     127     1 N    7    3.193563    7.611162    2.512175      5.00      14.0067
     128     2 Ga  31    3.183097    5.628107    2.852037     13.00      69.7230
     129     1 N    7    3.198001    5.629510    5.004114      5.00      14.0067
     130     2 Ga  31    3.201569    7.457607    5.793224     13.00      69.7230
     131     1 N    7    3.204152    7.471994    7.786579      5.00      14.0067
     132     2 Ga  31    3.204063    5.626936    8.441272     13.00      69.7230
     133     1 N    7    3.205637    5.625872   10.411722      5.00      14.0067
     134     2 Ga  31    3.206912    7.464790   11.068708     13.00      69.7230
     135     1 N    7    3.207322    7.446255   13.058459      5.00      14.0067
     136     2 Ga  31    3.204951    5.626160   13.871346     13.00      69.7230
     137     1 N    7    3.208208    5.627660   16.066322      5.00      14.0067
     138     2 Ga  31    3.206037    7.670094   16.479768     13.00      69.7230
     139     2 Ga  31    3.189779    9.348582    1.472327     13.00      69.7230
     140     1 N    7    1.693079   10.215010    2.518261      5.00      14.0067
     141     2 Ga  31    1.489152    8.362742    3.284122     13.00      69.7230
     142     1 N    7    1.591679    8.415520    5.245168      5.00      14.0067
     143     2 Ga  31    1.568599   10.286110    5.799710     13.00      69.7230
     144     1 N    7    1.586359   10.274450    7.791766      5.00      14.0067
     145     2 Ga  31    1.606668    8.417126    8.435188     13.00      69.7230
     146     1 N    7    1.610103    8.417028   10.424503      5.00      14.0067
     147     2 Ga  31    1.584305   10.276147   11.066210     13.00      69.7230
     148     1 N    7    1.568009   10.286511   13.056239      5.00      14.0067
     149     2 Ga  31    1.610075    8.417125   13.617161     13.00      69.7230
     150     1 N    7    1.584814    8.400806   15.574834      5.00      14.0067
     151     2 Ga  31    1.757964   10.172255   16.476808     13.00      69.7230
     152     1 N    7    3.209407    9.347073   17.624608      5.00      14.0067
     153     1 N    7    9.630159    1.920544    2.605171      5.00      14.0067
     154     2 Ga  31    9.628781    0.175498    3.281695     13.00      69.7230
     155     1 N    7    9.632566    0.060154    5.243943      5.00      14.0067
     156     2 Ga  31    9.631502    1.914812    5.875889     13.00      69.7230
     157     1 N    7    9.634046    1.912267    7.844587      5.00      14.0067
     158     2 Ga  31    9.637101    0.044705    8.435183     13.00      69.7230
     159     1 N    7    9.638989    0.042408   10.423947      5.00      14.0067
     160     2 Ga  31    9.638931    1.912797   11.021627     13.00      69.7230
     161     1 N    7    9.639925    1.912634   12.988962      5.00      14.0067
     162     2 Ga  31    9.639436    0.044383   13.619120     13.00      69.7230
     163     1 N    7    9.637822    0.071733   15.580445      5.00      14.0067
     164     2 Ga  31    9.641062    1.911764   15.858419     13.00      69.7230
     165     1 N    7    7.915653    4.642600    2.520160      5.00      14.0067
     166     2 Ga  31    8.119087    2.787827    3.286704     13.00      69.7230
     167     1 N    7    8.023509    2.842986    5.246609      5.00      14.0067
     168     2 Ga  31    8.049713    4.715906    5.794795     13.00      69.7230
     169     1 N    7    8.037072    4.704782    7.787178      5.00      14.0067
     170     2 Ga  31    8.016952    2.847369    8.433154     13.00      69.7230
     171     1 N    7    8.018498    2.847465   10.422340      5.00      14.0067
     172     2 Ga  31    8.044135    4.706504   11.065552     13.00      69.7230
     173     1 N    7    8.063583    4.716046   13.056393      5.00      14.0067
     174     2 Ga  31    8.021135    2.846492   13.614848     13.00      69.7230
     175     1 N    7    8.048775    2.828523   15.574695      5.00      14.0067
     176     2 Ga  31    7.871938    4.606683   16.471469     13.00      69.7230
     177     1 N    7    6.413043    7.489519    2.594685      5.00      14.0067
     178     2 Ga  31    6.411626    5.749068    3.280199     13.00      69.7230
     179     1 N    7    6.415339    5.630456    5.240615      5.00      14.0067
     180     2 Ga  31    6.416538    7.487907    5.864352     13.00      69.7230
     181     1 N    7    6.418998    7.484045    7.836248      5.00      14.0067
     182     2 Ga  31    6.418658    5.616049    8.429932     13.00      69.7230
     183     1 N    7    6.420815    5.613377   10.420915      5.00      14.0067
     184     2 Ga  31    6.421075    7.482926   11.020149     13.00      69.7230
     185     1 N    7    6.422246    7.482683   12.987560      5.00      14.0067
     186     2 Ga  31    6.423455    5.614002   13.616749     13.00      69.7230
     187     1 N    7    6.422155    5.649460   15.576760      5.00      14.0067
     188     2 Ga  31    6.423581    7.485567   15.855163     13.00      69.7230
     189     1 N    7    4.698039   10.215999    2.510811      5.00      14.0067
     190     2 Ga  31    4.902907    8.361838    3.271928     13.00      69.7230
     191     1 N    7    4.808885    8.414718    5.236357      5.00      14.0067
     192     2 Ga  31    4.833049   10.284681    5.793966     13.00      69.7230
     193     1 N    7    4.821764   10.274073    7.786669      5.00      14.0067
     194     2 Ga  31    4.802345    8.417087    8.431891     13.00      69.7230
     195     1 N    7    4.802323    8.417611   10.422103      5.00      14.0067
     196     2 Ga  31    4.829363   10.276191   11.067050     13.00      69.7230
     197     1 N    7    4.846713   10.286696   13.058118      5.00      14.0067
     198     2 Ga  31    4.804716    8.416988   13.618923     13.00      69.7230
     199     1 N    7    4.828535    8.399947   15.577252      5.00      14.0067
     200     2 Ga  31    4.658314   10.174866   16.477526     13.00      69.7230
     201     3 O    8    0.191684    3.441017   -0.543801      6.00      15.9994
     202     4 H    1   -0.001621    7.505319    1.604007      1.00       1.0079
     203     5 C    6    0.774028    2.128869   -0.891298      4.00      12.0107
     204     4 H    1    1.840418    2.103163   -0.640387      1.00       1.0079
     205     4 H    1    0.239024    1.394332   -0.278767      1.00       1.0079
     206     4 H    1    0.593021    1.951270   -1.957209      1.00       1.0079




 SCF PARAMETERS         Density guess:                                    ATOMIC
                        --------------------------------------------------------
                        max_scf:                                              80
                        max_scf_history:                                       0
                        max_diis:                                              4
                        --------------------------------------------------------
                        eps_scf:                                        5.00E-06
                        eps_scf_history:                                0.00E+00
                        eps_diis:                                       1.00E-01
                        eps_eigval:                                     1.00E-05
                        --------------------------------------------------------
                        level_shift [a.u.]:                                 0.00
                        --------------------------------------------------------
                        Outer loop SCF in use 
                        No variables optimised in outer loop
                        eps_scf                                         5.00E-06
                        max_scf                                                4
                        No outer loop optimization
                        step_size                                       5.00E-01

 PW_GRID| Information for grid number                                          1
 PW_GRID| Grid distributed over                                    80 processors
 PW_GRID| Real space group dimensions                                    80    1
 PW_GRID| the grid is blocked:                                                NO
 PW_GRID| Cutoff [a.u.]                                                    600.0
 PW_GRID| spherical cutoff:                                                   NO
 PW_GRID|   Bounds   1           -144     143                Points:         288
 PW_GRID|   Bounds   2           -144     143                Points:         288
 PW_GRID|   Bounds   3           -337     337                Points:         675
 PW_GRID| Volume element (a.u.^3)  0.5630E-03     Volume (a.u.^3)     31519.8467
 PW_GRID| Grid span                                                    FULLSPACE
 PW_GRID|   Distribution                         Average         Max         Min
 PW_GRID|   G-Vectors                           699840.0      699840      699840
 PW_GRID|   G-Rays                                2430.0        2430        2430
 PW_GRID|   Real Space Points                   699840.0      777600      583200

 PW_GRID| Information for grid number                                          2
 PW_GRID| Grid distributed over                                    80 processors
 PW_GRID| Real space group dimensions                                    80    1
 PW_GRID| the grid is blocked:                                                NO
 PW_GRID| Cutoff [a.u.]                                                    200.0
 PW_GRID| spherical cutoff:                                                   NO
 PW_GRID|   Bounds   1            -80      79                Points:         160
 PW_GRID|   Bounds   2            -80      79                Points:         160
 PW_GRID|   Bounds   3           -200     199                Points:         400
 PW_GRID| Volume element (a.u.^3)  0.3078E-02     Volume (a.u.^3)     31519.8467
 PW_GRID| Grid span                                                    FULLSPACE
 PW_GRID|   Distribution                         Average         Max         Min
 PW_GRID|   G-Vectors                           128000.0      128160      127840
 PW_GRID|   G-Rays                                 800.0         801         799
 PW_GRID|   Real Space Points                   128000.0      128000      128000

 PW_GRID| Information for grid number                                          3
 PW_GRID| Grid distributed over                                    80 processors
 PW_GRID| Real space group dimensions                                    80    1
 PW_GRID| the grid is blocked:                                                NO
 PW_GRID| Cutoff [a.u.]                                                     66.7
 PW_GRID| spherical cutoff:                                                   NO
 PW_GRID|   Bounds   1            -48      47                Points:          96
 PW_GRID|   Bounds   2            -48      47                Points:          96
 PW_GRID|   Bounds   3           -112     112                Points:         225
 PW_GRID| Volume element (a.u.^3)  0.1520E-01     Volume (a.u.^3)     31519.8467
 PW_GRID| Grid span                                                    FULLSPACE
 PW_GRID|   Distribution                         Average         Max         Min
 PW_GRID|   G-Vectors                            25920.0       26688       24864
 PW_GRID|   G-Rays                                 270.0         278         259
 PW_GRID|   Real Space Points                    25920.0       43200       21600

 PW_GRID| Information for grid number                                          4
 PW_GRID| Grid distributed over                                    80 processors
 PW_GRID| Real space group dimensions                                     8   10
 PW_GRID| the grid is blocked:                                                NO
 PW_GRID| Cutoff [a.u.]                                                     22.2
 PW_GRID| spherical cutoff:                                                   NO
 PW_GRID|   Bounds   1            -27      26                Points:          54
[...]
 flops    25 x    32 x     5         507024672000     100.0%      0.0%      0.0%
 flops   235 x    64 x   166         553814671360     100.0%      0.0%      0.0%
 flops   235 x    32 x    32         626723778560     100.0%      0.0%      0.0%
 flops   950 x    32 x   166         696322457600     100.0%      0.0%      0.0%
 flops   955 x    32 x   166         699987312640     100.0%      0.0%      0.0%
 flops   963 x    32 x   166         705851080704     100.0%      0.0%      0.0%
 flops   978 x    32 x   166         716845645824     100.0%      0.0%      0.0%
 flops    25 x    25 x    43         800740625000     100.0%      0.0%      0.0%
 flops    25 x    11 x    25         829675000000     100.0%      0.0%      0.0%
 flops   235 x    32 x   190         871590860800     100.0%      0.0%      0.0%
 flops   235 x    64 x    32         911598223360     100.0%      0.0%      0.0%
 flops   235 x    32 x    64         911598223360     100.0%      0.0%      0.0%
 flops   235 x    32 x   202         926638704640     100.0%      0.0%      0.0%
 flops   950 x    64 x   166        1012832665600     100.0%      0.0%      0.0%
 flops   955 x    64 x   166        1018163363840     100.0%      0.0%      0.0%
 flops   963 x    64 x   166        1026692481024     100.0%      0.0%      0.0%
 flops   978 x    64 x   166        1042684575744     100.0%      0.0%      0.0%
 flops   224 x    32 x   166        1088776077312     100.0%      0.0%      0.0%
 flops   235 x    64 x   190        1267768524800     100.0%      0.0%      0.0%
 flops   235 x    64 x    64        1325961052160     100.0%      0.0%      0.0%
 flops   235 x    64 x   202        1347838115840     100.0%      0.0%      0.0%
 flops   224 x    64 x   166        1583674294272     100.0%      0.0%      0.0%
 flops   950 x    32 x   190        1593991168000     100.0%      0.0%      0.0%
 flops   955 x    32 x   190        1602380595200     100.0%      0.0%      0.0%
 flops   963 x    32 x   190        1615803678720     100.0%      0.0%      0.0%
 flops   978 x    32 x   190        1640971960320     100.0%      0.0%      0.0%
 flops    13 x    13 x    32        1678412278400     100.0%      0.0%      0.0%
 flops   950 x    32 x   202        1694664294400     100.0%      0.0%      0.0%
 flops   955 x    32 x   202        1703583580160     100.0%      0.0%      0.0%
 flops   963 x    32 x   202        1717854437376     100.0%      0.0%      0.0%
 flops   978 x    32 x   202        1744612294656     100.0%      0.0%      0.0%
 flops   224 x    32 x    32        1792163315712     100.0%      0.0%      0.0%
 flops   950 x    32 x    32        2199271219200     100.0%      0.0%      0.0%
 flops   955 x    32 x    32        2210846330880     100.0%      0.0%      0.0%
 flops   963 x    32 x    32        2229366509568     100.0%      0.0%      0.0%
 flops   978 x    32 x    32        2264091844608     100.0%      0.0%      0.0%
 flops   950 x    64 x   190        2318532608000     100.0%      0.0%      0.0%
 flops   955 x    64 x   190        2330735411200     100.0%      0.0%      0.0%
 flops   963 x    64 x   190        2350259896320     100.0%      0.0%      0.0%
 flops   978 x    64 x   190        2386868305920     100.0%      0.0%      0.0%
 flops    13 x    13 x    64        2441326950400     100.0%      0.0%      0.0%
 flops   950 x    64 x   202        2464966246400     100.0%      0.0%      0.0%
 flops   955 x    64 x   202        2477939752960     100.0%      0.0%      0.0%
 flops   224 x    32 x   190        2492378972160     100.0%      0.0%      0.0%
 flops   963 x    64 x   202        2498697363456     100.0%      0.0%      0.0%
 flops   978 x    64 x   202        2537617883136     100.0%      0.0%      0.0%
 flops   224 x    32 x    64        2606783004672     100.0%      0.0%      0.0%
 flops   224 x    64 x    32        2606783004672     100.0%      0.0%      0.0%
 flops   224 x    32 x   202        2649792380928     100.0%      0.0%      0.0%
 flops   950 x    32 x    64        3198939955200     100.0%      0.0%      0.0%
 flops   950 x    64 x    32        3198939955200     100.0%      0.0%      0.0%
 flops   955 x    64 x    32        3215776481280     100.0%      0.0%      0.0%
 flops   955 x    32 x    64        3215776481280     100.0%      0.0%      0.0%
 flops   963 x    32 x    64        3242714923008     100.0%      0.0%      0.0%
 flops   963 x    64 x    32        3242714923008     100.0%      0.0%      0.0%
 flops   978 x    32 x    64        3293224501248     100.0%      0.0%      0.0%
 flops   978 x    64 x    32        3293224501248     100.0%      0.0%      0.0%
 flops    25 x    13 x    32        3362324451200     100.0%      0.0%      0.0%
 flops    13 x    25 x    32        3364690243200     100.0%      0.0%      0.0%
 flops   224 x    64 x   190        3625278504960     100.0%      0.0%      0.0%
 flops   224 x    64 x    64        3791684370432     100.0%      0.0%      0.0%
 flops   224 x    64 x   202        3854243463168     100.0%      0.0%      0.0%
 flops   950 x    64 x    64        4653003571200     100.0%      0.0%      0.0%
 flops   955 x    64 x    64        4677493063680     100.0%      0.0%      0.0%
 flops   963 x    64 x    64        4716676251648     100.0%      0.0%      0.0%
 flops   978 x    64 x    64        4790144729088     100.0%      0.0%      0.0%
 flops    25 x    13 x    64        4890653747200     100.0%      0.0%      0.0%
 flops    13 x    25 x    64        4894094899200     100.0%      0.0%      0.0%
 flops    25 x    25 x    32        6554900000000     100.0%      0.0%      0.0%
 flops    25 x    25 x    64        9534400000000     100.0%      0.0%      0.0%
 flops    13 x    32 x    13       17290516006400     100.0%      0.0%      0.0%
 flops    25 x    32 x    13       35023464985600     100.0%      0.0%      0.0%
 flops    13 x    32 x    25       35023464985600     100.0%      0.0%      0.0%
 flops    25 x    32 x    25       67580800000000     100.0%      0.0%      0.0%
 flops inhomo. stacks              79215827941600     100.0%      0.0%      0.0%
 flops total                       414.817546E+12     100.0%      0.0%      0.0%
 flops max/rank                      7.250168E+12     100.0%      0.0%      0.0%
 matmuls inhomo. stacks                   8054400     100.0%      0.0%      0.0%
 matmuls total                         8382289684     100.0%      0.0%      0.0%
 number of processed stacks             128220726     100.0%      0.0%      0.0%
 average stack size                                    65.4       0.0       0.0
 marketing flops                   446.574325E+12
 -------------------------------------------------------------------------------
 # multiplications                          39520
 max memory usage/rank               1.497326E+09
 # max total images/rank                        5
 # max 3D layers                                1
 # MPI messages exchanged               360422400
 MPI messages size (bytes):
  total size                        44.550861E+12
  min size                           0.000000E+00
  max size                           1.862112E+06
  average size                     123.607359E+03
 MPI breakdown and total messages size (bytes):
             size <=      128             2973880                        0
       128 < size <=     8192            46257134             378938441728
      8192 < size <=    32768           106602426            2135715483216
     32768 < size <=   131072           161153440           11447554610864
    131072 < size <=  4194304            43435520           30600500425696
   4194304 < size <= 16777216                   0                        0
  16777216 < size                               0                        0
 -------------------------------------------------------------------------------

 *** WARNING in dbcsr/mm/dbcsr_mm.F:268 :: Using a non-square number of ***
 *** MPI ranks might lead to poor performance.                          ***
 *** Used ranks: 80                                                     ***
 *** Suggested: 81 169                                                  ***

 -------------------------------------------------------------------------------
 
 MEMORY| Estimated peak process memory [MiB]                                1457

 -------------------------------------------------------------------------------
 ----                             MULTIGRID INFO                            ----
 -------------------------------------------------------------------------------
 count for grid        1:        1186400          cutoff [a.u.]          600.00
 count for grid        2:       10135841          cutoff [a.u.]          200.00
 count for grid        3:        9237465          cutoff [a.u.]           66.67
 count for grid        4:       13898231          cutoff [a.u.]           22.22
 count for grid        5:       12660152          cutoff [a.u.]            7.41
 total gridlevel count  :       47118089

 -------------------------------------------------------------------------------
 -                                                                             -
 -                         MESSAGE PASSING PERFORMANCE                         -
 -                                                                             -
 -------------------------------------------------------------------------------

 ROUTINE             CALLS      AVE VOLUME [Bytes]
 MP_Group             3990
 MP_Bcast            28460                  34466.
 MP_Allreduce       286996                    211.
 MP_Sync              1478
 MP_Alltoall        224771                5367261.
 MP_SendRecv         28124                   5444.
 MP_ISendRecv      1027632                 133520.
 MP_Wait           8831405
 MP_comm_split        1473
 MP_ISend         10145936                 117990.
 MP_IRecv         10145936                 117553.
 MP_Recv              1672                 153264.
 MP_Memory         4386174
 -------------------------------------------------------------------------------


 -------------------------------------------------------------------------------
 -                                                                             -
 -                           R E F E R E N C E S                               -
 -                                                                             -
 -------------------------------------------------------------------------------
 
 CP2K version 7.0 (Development Version), the CP2K developers group (2018).
 CP2K is freely available from https://www.cp2k.org/ .

 Schuett, Ole; Messmer, Peter; Hutter, Juerg; VandeVondele, Joost. 
 Electronic Structure Calculations on Graphics Processing Units, John Wiley & Sons, Ltd, 173-190 (2016). 
 GPU-Accelerated Sparse Matrix-Matrix Multiplication for Linear Scaling Density Functional Theory.
 http://dx.doi.org/10.1002/9781118670712.ch8


 Borstnik, U; VandeVondele, J; Weber, V; Hutter, J. 
 PARALLEL COMPUTING, 40 (5-6), 47-58 (2014). 
 Sparse matrix multiplication: The distributed block-compressed sparse
 row library.
 http://dx.doi.org/10.1016/j.parco.2014.03.012


 Hutter, J; Iannuzzi, M; Schiffmann, F; VandeVondele, J. 
 WILEY INTERDISCIPLINARY REVIEWS-COMPUTATIONAL MOLECULAR SCIENCE, 4 (1), 15-25 (2014). 
 CP2K: atomistic simulations of condensed matter systems.
 http://dx.doi.org/10.1002/wcms.1159


 Grimme, S; Ehrlich, S; Goerigk, L. 
 JOURNAL OF COMPUTATIONAL CHEMISTRY, 32, 1456 (2011). 
 Effect of the damping function in dispersion corrected density functional theory.
 http://dx.doi.org/10.1002/jcc.21759


 Grimme, S; Antony, J; Ehrlich, S; Krieg, H. 
 JOURNAL OF CHEMICAL PHYSICS, 132 (15), 154104 (2010). 
 A consistent and accurate ab initio parametrization of density
 functional dispersion correction (DFT-D) for the 94 elements H-Pu.
 http://dx.doi.org/10.1063/1.3382344


 VandeVondele, J; Hutter, J. 
 JOURNAL OF CHEMICAL PHYSICS, 127 (11), 114105 (2007). 
 Gaussian basis sets for accurate calculations on molecular systems in
 gas and condensed phases.
 http://dx.doi.org/10.1063/1.2770708


 Krack, M. 
 THEORETICAL CHEMISTRY ACCOUNTS, 114 (1-3), 145-152 (2005). 
 Pseudopotentials for H to Kr optimized for gradient-corrected
 exchange-correlation functionals.
 http://dx.doi.org/10.1007/s00214-005-0655-y


 VandeVondele, J; Krack, M; Mohamed, F; Parrinello, M; Chassaing, T;
 Hutter, J. COMPUTER PHYSICS COMMUNICATIONS, 167 (2), 103-128 (2005). 
 QUICKSTEP: Fast and accurate density functional calculations using a
 mixed Gaussian and plane waves approach.
 http://dx.doi.org/10.1016/j.cpc.2004.12.014


 Frigo, M; Johnson, SG. 
 PROCEEDINGS OF THE IEEE, 93 (2), 216-231 (2005). 
 The design and implementation of FFTW3.
 http://dx.doi.org/10.1109/JPROC.2004.840301


 Kolafa, J. 
 JOURNAL OF COMPUTATIONAL CHEMISTRY, 25 (3), 335-342 (2004). 
 Time-reversible always stable predictor-corrector method for molecular dynamics of polarizable molecules.
 http://dx.doi.org/10.1002/jcc.10385


 VandeVondele, J; Hutter, J. 
 JOURNAL OF CHEMICAL PHYSICS, 118 (10), 4365-4369 (2003). 
 An efficient orbital transformation method for electronic structure
 calculations.
 http://dx.doi.org/10.1063/1.1543154


 Hartwigsen, C; Goedecker, S; Hutter, J. 
 PHYSICAL REVIEW B, 58 (7), 3641-3662 (1998). 
 Relativistic separable dual-space Gaussian pseudopotentials from H to Rn.
 http://dx.doi.org/10.1103/PhysRevB.58.3641


 Lippert, G; Hutter, J; Parrinello, M. 
 MOLECULAR PHYSICS, 92 (3), 477-487 (1997). 
 A hybrid Gaussian and plane wave density functional scheme.
 http://dx.doi.org/10.1080/002689797170220


 Perdew, JP; Burke, K; Ernzerhof, M. 
 PHYSICAL REVIEW LETTERS, 77 (18), 3865-3868 (1996). 
 Generalized gradient approximation made simple.
 http://dx.doi.org/10.1103/PhysRevLett.77.3865


 Goedecker, S; Teter, M; Hutter, J. 
 PHYSICAL REVIEW B, 54 (3), 1703-1710 (1996). 
 Separable dual-space Gaussian pseudopotentials.
 http://dx.doi.org/10.1103/PhysRevB.54.1703


 -------------------------------------------------------------------------------
 -                                                                             -
 -                                T I M I N G                                  -
 -                                                                             -
 -------------------------------------------------------------------------------
 SUBROUTINE                       CALLS  ASD         SELF TIME        TOTAL TIME
                                MAXIMUM       AVERAGE  MAXIMUM  AVERAGE  MAXIMUM
 CP2K                                 1  1.0     0.08     0.11 21309.63 21309.73
 cp_geo_opt                           1  2.0     0.01     0.01 21308.23 21308.31
 geoopt_bfgs                          1  3.0     0.06     0.15 21308.23 21308.31
 cp_eval_at                          90  4.0     0.03     0.05 21270.33 21270.45
 qs_forces                           89  5.0     0.04     0.08 21197.36 21197.45
 qs_energies                         90  6.0     0.04     0.13 19406.13 19406.30
 scf_env_do_scf                      90  7.0     0.04     0.11 18182.83 18182.93
 scf_env_do_scf_inner_loop         1296  8.0     0.09     0.17 16195.65 16195.81
 rebuild_ks_matrix                 1385  9.8     0.01     0.02  9515.05  9517.34
 qs_ks_build_kohn_sham_matrix      1385 10.8     0.48     0.98  9515.04  9517.34
 qs_ks_update_qs_env               1387  9.0     0.02     0.04  7850.38  7852.32
 qs_rho_update_rho                 1386  9.1     0.02     0.03  7421.48  7424.54
 calculate_rho_elec                2772 10.1  3536.57  3620.17  7421.47  7424.52
 sum_up_and_integrate               782 11.7    14.05    15.93  5085.53  5088.43
 integrate_v_rspace                1564 12.7  2777.96  2873.56  5071.47  5076.65
 pw_transfer                      44045 13.3     5.62     6.51  4912.26  4939.01
 fft_wrap_pw1pw2                  41275 14.4     0.58     0.68  4885.60  4911.86
 fft_wrap_pw1pw2_600              23931 15.6   342.43   386.32  4563.55  4574.64
 fft3d_ps                         41275 16.4  1473.07  1623.87  4097.16  4160.30
 rs_pw_transfer                   22129 12.9     0.33     0.37  3835.73  3888.39
 density_rs2pw                     2772 11.1     0.23     0.25  3465.32  3533.99
 qs_vxc_create                     1385 11.8     0.05     0.08  3465.58  3466.45
 dbcsr_multiply_generic           39520 13.7     2.69     3.77  2742.32  2749.58
 xc_vxc_pw_create                   782 12.7   180.67   206.45  2615.34  2615.82
 mp_waitall_1                   8028757 16.7  2449.27  2562.32  2449.27  2562.32
 mp_alltoall_z22v                 41275 18.4  2211.80  2508.61  2211.80  2508.61
 qs_scf_new_mos                    1296  9.0     0.01     0.02  2313.60  2315.98
 qs_scf_loop_do_ot                 1296 10.0     0.06     0.15  2313.59  2315.97
 multiply_cannon                  39520 14.7    12.67    13.43  2146.79  2175.10
 ot_scf_mini                       1296 11.0     0.21     0.39  2123.49  2125.08
 init_scf_loop                       91  8.0     0.01     0.04  1983.84  1983.92
 xc_rho_set_and_dset_create        1385 13.8    26.10    28.78  1863.92  1896.93
 potential_pw2rs                   1564 13.7     1.29     1.45  1840.68  1846.03
 qs_ks_update_qs_env_forces          89  6.0     0.00     0.00  1678.03  1678.42
 mp_waitany                      802648 14.9  1526.74  1671.87  1526.74  1671.87
 rs_pw_transfer_RS2PW_600          2952 13.0   740.82   823.65  1615.79  1669.59
 x_to_yz                          17941 18.0   237.85   272.46  1488.07  1598.18
 multiply_cannon_metrocomm3      790400 15.7     2.13     2.27  1287.62  1471.81
 yz_to_x                          14662 16.8   142.42   152.67  1101.91  1260.88
 rs_pw_transfer_PW2RS_600          1833 15.1   513.91   570.19  1147.30  1192.32
 ot_mini                           1296 12.0     0.01     0.03  1134.02  1135.41
 prepare_preconditioner              91  9.0     0.00     0.00  1036.16  1036.54
 make_preconditioner                182 10.0     0.01     0.03   953.42   953.64
 make_full_all                      182 11.0     0.08     0.28   875.05   875.46
 xc_exc_calc                        603 13.0     2.93     3.32   850.20   850.66
 init_scf_run                        90  7.0     0.01     0.02   754.27   754.30
 scf_env_initial_rho_setup           90  8.0     0.00     0.01   754.27   754.29
 wfi_extrapolate                     90  9.0     0.05     0.12   746.16   746.19
 qs_ot_get_derivative              1386 13.0     0.02     0.03   716.63   718.17
 mp_alltoall_d11v                 46478 14.9   579.82   661.29   579.82   661.29
 multiply_cannon_metrocomm1      790400 15.7     2.44     2.67   486.22   623.48
 cp_fm_syevd                       1473 13.3     0.02     0.03   613.02   614.21
 rs_distribute_matrix              4514 12.0     6.42    13.37   536.66   613.91
 cp_fm_redistribute_end            1473 14.3   175.95   594.54   179.71   597.99
 cp_fm_syevd_base                  1473 14.1   415.64   576.49   415.64   576.49
 apply_preconditioner_dbcsr        1568 14.0     0.00     0.02   455.08   456.41
 apply_all                         1568 15.0     0.18     0.26   455.08   456.41
 -------------------------------------------------------------------------------

 The number of warnings for this run is : 1
 
 -------------------------------------------------------------------------------
  **** **** ******  **  PROGRAM ENDED AT                 2019-06-24 21:04:40.764
 ***** ** ***  *** **   PROGRAM RAN ON            blg8616.int.ets1.calculquebec.
 **    ****   ******    PROGRAM RAN BY                                       rzk
 ***** **    ** ** **   PROGRAM PROCESS ID                                 30875
  **** **  *******  **  PROGRAM STOPPED IN /scratch/rzk/rzk/GaN-carbene/443-adat
                                           oms-both-2x2/03-DissMethanol/04-O-GaT
                                           op-H-NSur
