     206
 i =        1, E =     -8480.6122705117
  N        -0.0258228691        2.0645974982        2.5352966046
 Ga        -0.0200022374        0.1002400803        2.8480468216
  N        -0.0170616111        0.0554974817        5.0042820637
 Ga        -0.0156370296        1.8890064544        5.7876056830
  N        -0.0132318222        1.9019907349        7.7845955668
 Ga        -0.0122241062        0.0566581482        8.4379903123
  N        -0.0111474401        0.0553040469       10.4092379549
 Ga        -0.0103123858        1.8962530187       11.0653035900
  N        -0.0089211300        1.8760941684       13.0558925938
 Ga        -0.0082620941        0.0576737891       13.8685652908
  N        -0.0089364024        0.0537842602       16.0612961441
 Ga        -0.0100476703        2.1104030180       16.4908270019
 Ga        -0.0178081221        3.7317416185        1.3922689048
  N        -1.4830719561        4.6314073520        2.4779759690
 Ga        -1.7131896178        2.7936939868        3.2884448044
  N        -1.6316794914        2.8438669335        5.2531071205
 Ga        -1.6481853964        4.7146700361        5.7936564457
  N        -1.6288540145        4.7086102047        7.7867424592
 Ga        -1.6113850157        2.8480531270        8.4304602871
  N        -1.6075641852        2.8487569997       10.4210176259
 Ga        -1.6326608991        4.7068869446       11.0671186577
  N        -1.6488722445        4.7162281812       13.0564300163
 Ga        -1.6061024168        2.8472374307       13.6199324832
  N        -1.6358051149        2.8303583527       15.5757887503
 Ga        -1.4439114581        4.5978089983       16.4904635101
  N        -0.0079549471        3.7683538133       17.6238255093
  N        -3.2280067585        7.5980511317        2.5001074321
 Ga        -3.2090294502        5.6010707792        2.8453705970
  N        -3.2314875958        5.6325096576        5.0081958303
 Ga        -3.2336852231        7.4574813512        5.7921577582
  N        -3.2265882801        7.4747157158        7.7834552536
 Ga        -3.2283956633        5.6279779534        8.4406469036
  N        -3.2268301719        5.6263434848       10.4097963654
 Ga        -3.2267676255        7.4654624624       11.0646888820
  N        -3.2249864082        7.4453844031       13.0521413083
 Ga        -3.2235071702        5.6256860020       13.8675397429
  N        -3.2245880027        5.6257604227       16.0598818044
 Ga        -3.2280944362        7.6659888378       16.4721151797
 Ga        -3.2508201041        9.3523810612        1.4481586204
  N        -4.7441633446       10.2158842825        2.5133695477
 Ga        -4.9386312041        8.3650726514        3.2690820725
  N        -4.8390454383        8.4156532921        5.2345521343
 Ga        -4.8646847201       10.2880160688        5.7896688320
  N        -4.8454837640       10.2740589442        7.7836686541
 Ga        -4.8277327781        8.4176503626        8.4296787543
  N        -4.8238193378        8.4173097931       10.4191829914
 Ga        -4.8501375667       10.2767064787       11.0641765295
  N        -4.8657333546       10.2869307630       13.0528124907
 Ga        -4.8225355976        8.4171527837       13.6119884801
  N        -4.8488096058        8.4040102337       15.5690270296
 Ga        -4.6754244703       10.1769434323       16.4733395470
  N        -3.2258224330        9.3396255869       17.6147898153
  N         3.1858932929        1.9242909097        2.5948125886
 Ga         3.1914844727        0.1763760719        3.2642982172
  N         3.2013369747        0.0596083205        5.2313644127
 Ga         3.1981490896        1.9155564859        5.8670996123
  N         3.2042994172        1.9125157457        7.8381011566
 Ga         3.2030752812        0.0457827480        8.4311047774
  N         3.2054203434        0.0424224014       10.4197579246
 Ga         3.2044446035        1.9132078611       11.0199006601
  N         3.2061599752        1.9129091028       12.9863895662
 Ga         3.2069665149        0.0437579786       13.6117408104
  N         3.2056169845        0.0719901450       15.5694363884
 Ga         3.2064228409        1.9101465054       15.8557494500
  N         1.4487026325        4.6405167430        2.4927211241
 Ga         1.6690213536        2.7982050310        3.2789482920
  N         1.5971931356        2.8441576465        5.2448281254
 Ga         1.6163830869        4.7143175436        5.7891372780
  N         1.6029637885        4.7088214645        7.7834252917
 Ga         1.5855536107        2.8486161728        8.4284126489
  N         1.5861405193        2.8490794782       10.4195410320
 Ga         1.6119512567        4.7067252051       11.0681375249
  N         1.6311274939        4.7162844091       13.0577668278
 Ga         1.5878442197        2.8475262110       13.6214917203
  N         1.6172918941        2.8300204729       15.5787976679
 Ga         1.4267162923        4.5997159976       16.4918413460
  N        -0.0180481728        7.4912269734        2.6441053729
 Ga        -0.0173167608        5.6802464660        3.3006137145
  N        -0.0170418587        5.6605481520        5.2490774346
 Ga        -0.0162936951        7.4883741963        5.9155080970
  N        -0.0128373207        7.4875703952        7.8654490452
 Ga        -0.0123062370        5.6148141034        8.4384190159
  N        -0.0103382570        5.6145186898       10.4240425039
 Ga        -0.0098537913        7.4824259440       11.0228284843
  N        -0.0086211461        7.4828651305       12.9886815493
 Ga        -0.0088720445        5.6128242799       13.6206466779
  N        -0.0095334277        5.6479992505       15.5766014459
 Ga        -0.0103155559        7.4831488188       15.8561938905
  N        -1.7222958521       10.2129288984        2.4980226897
 Ga        -1.5809695711        8.3912361078        3.2962664117
  N        -1.6045769189        8.4070642884        5.2402794861
 Ga        -1.6011719161       10.2904135431        5.7935080362
  N        -1.6115925984       10.2723783934        7.7841086021
 Ga        -1.6335474940        8.4200960527        8.4389001782
  N        -1.6293435036        8.4172015442       10.4230788296
 Ga        -1.6042839630       10.2761838594       11.0641336616
  N        -1.5849221459       10.2866429528       13.0520095826
 Ga        -1.6280174625        8.4172684126       13.6131890191
  N        -1.6034757095        8.4033738908       15.5723052420
 Ga        -1.7797774507       10.1776015316       16.4717301630
  N         6.4109482636        2.0496043957        2.5173094481
 Ga         6.4117765213        0.0797024919        2.8607982504
  N         6.4168736612        0.0562174823        5.0127528030
 Ga         6.4135150928        1.8881094167        5.7952175446
  N         6.4179986194        1.9007813552        7.7873639326
 Ga         6.4191835207        0.0556098529        8.4406874409
  N         6.4219406470        0.0544163642       10.4094638480
 Ga         6.4215844843        1.8952993868       11.0645301447
  N         6.4231615804        1.8757926295       13.0540290447
 Ga         6.4230456800        0.0559951150       13.8629175624
  N         6.4236899683        0.0541224432       16.0580538781
 Ga         6.4204950703        2.1018851602       16.4729118345
 Ga         6.4158742090        3.7783299672        1.4872586717
  N         4.9124704846        4.6431224271        2.5154277152
 Ga         4.6975369336        2.7896273821        3.2755267760
  N         4.8054518558        2.8418018619        5.2372625031
 Ga         4.7827674871        4.7129689874        5.7909341348
  N         4.8003461198        4.7045609554        7.7845709161
 Ga         4.8203330829        2.8475077180        8.4317846892
  N         4.8245102397        2.8481536657       10.4209947570
 Ga         4.7983459675        4.7070240864       11.0669634386
  N         4.7827801451        4.7161952571       13.0564085904
 Ga         4.8248765002        2.8466110182       13.6143444245
  N         4.7962663403        2.8318086399       15.5721605943
 Ga         4.9753229634        4.6064266181       16.4748019492
  N         6.4248581560        3.7719564707       17.6059816967
  N         3.1885545627        7.5996734534        2.4993588116
 Ga         3.1716375790        5.6027203466        2.8433377575
  N         3.1992777620        5.6332809550        5.0048065464
 Ga         3.2026054827        7.4560194150        5.7934832641
  N         3.2006031015        7.4743808454        7.7843690261
 Ga         3.2029752668        5.6273234916        8.4401612348
  N         3.2052652305        5.6267013577       10.4103586426
 Ga         3.2061285237        7.4651136802       11.0689611527
  N         3.2070688130        7.4451277626       13.0576159544
 Ga         3.2060782346        5.6252502663       13.8722236499
  N         3.2074375712        5.6265365072       16.0642237808
 Ga         3.2058270341        7.6699351802       16.4814623268
 Ga         3.2111182041        9.3576616416        1.4663266076
  N         1.6825372904       10.2115467130        2.5027804249
 Ga         1.5423043376        8.3888155716        3.3018201462
  N         1.5731916599        8.4061353366        5.2438946207
 Ga         1.5680528258       10.2884245985        5.7990852082
  N         1.5853679538       10.2711698553        7.7880933995
 Ga         1.6082946414        8.4188662049        8.4415508894
  N         1.6090911872        8.4170440198       10.4254569155
 Ga         1.5834581085       10.2760049658       11.0672094972
  N         1.5668255225       10.2867103259       13.0559087860
 Ga         1.6101396030        8.4173737390       13.6175932643
  N         1.5820682019        8.4029106008       15.5756560281
 Ga         1.7633308094       10.1740895542       16.4801071382
  N         3.2102661793        9.3409233134       17.6178665426
  N         9.6316412338        1.9215506362        2.6150236480
 Ga         9.6308609479        0.1750703063        3.2801082295
  N         9.6307505804        0.0572080177        5.2431503022
 Ga         9.6319101649        1.9150342089        5.8750699851
  N         9.6328557904        1.9118217690        7.8445481136
 Ga         9.6360641262        0.0445705485        8.4351977948
  N         9.6377178981        0.0417176946       10.4232749733
 Ga         9.6388490169        1.9125883572       11.0214527831
  N         9.6394952497        1.9123578737       12.9880478421
 Ga         9.6393254868        0.0437132146       13.6173180841
  N         9.6376652898        0.0745190990       15.5754156542
 Ga         9.6397310239        1.9120475062       15.8597926226
  N         7.9124984585        4.6420752900        2.5211476095
 Ga         8.1208316089        2.7889243212        3.2876965275
  N         8.0230669331        2.8423442679        5.2475033558
 Ga         8.0486742437        4.7148808272        5.7945892400
  N         8.0376271764        4.7054465867        7.7871418043
 Ga         8.0164491738        2.8476886890        8.4332532653
  N         8.0182079321        2.8477011657       10.4221043244
 Ga         8.0442855000        4.7067746876       11.0658460174
  N         8.0632997301        4.7160847759       13.0556040769
 Ga         8.0211924981        2.8466685892       13.6156021978
  N         8.0476943168        2.8309370652       15.5751058492
 Ga         7.8691396354        4.6085150580       16.4732522613
  N         6.4130972752        7.4896689871        2.5983193872
 Ga         6.4116913727        5.7482362171        3.2815957881
  N         6.4154189262        5.6314290243        5.2414729174
 Ga         6.4163702754        7.4880894184        5.8645696647
  N         6.4189250185        7.4841714535        7.8360728153
 Ga         6.4188054135        5.6158607459        8.4300659347
  N         6.4209204011        5.6133342485       10.4201293717
 Ga         6.4212845003        7.4827856012       11.0200738680
  N         6.4221163107        7.4832706828       12.9867828726
 Ga         6.4230596321        5.6141540298       13.6151138537
  N         6.4210662009        5.6481469612       15.5723059395
 Ga         6.4240098704        7.4844497226       15.8552122629
  N         4.7021894197       10.2155961506        2.5204893619
 Ga         4.9011365827        8.3623498835        3.2717205219
  N         4.8064285121        8.4150089915        5.2360608602
 Ga         4.8348916457       10.2862489958        5.7945531271
  N         4.8200837179       10.2734402808        7.7870885984
 Ga         4.8018553683        8.4171267486        8.4320492438
  N         4.8017181828        8.4171198850       10.4214458465
 Ga         4.8288673116       10.2761693969       11.0674112194
  N         4.8475998617       10.2869881672       13.0574988133
 Ga         4.8038474921        8.4175454217       13.6192454865
  N         4.8308196443        8.4020460455       15.5783967551
 Ga         4.6534740444       10.1772519759       16.4804687725
  O         0.1861680434        3.4911833689       -0.5172548791
  H        -0.0067393817        7.4949598342        1.6185886179
  C         0.7371004145        2.1775909805       -0.8315684319
  H         1.8253247328        2.0919907738       -0.6585571244
  H         0.2573992017        1.3387763238       -0.2970299894
  H         0.6029850456        1.9704895512       -1.9084967321
     206
 i =        2, E =     -8480.6183365318
  N        -0.0220540926        2.0653461621        2.5361327347
 Ga        -0.0188569919        0.1164670430        2.8395679540
  N        -0.0168648536        0.0554449951        5.0085208892
 Ga        -0.0163140349        1.8919094111        5.7830295565
  N        -0.0132549418        1.9014929923        7.7829524919
 Ga        -0.0124069829        0.0581393449        8.4376250384
  N        -0.0112227455        0.0557261420       10.4082480445
 Ga        -0.0102313782        1.8960616384       11.0652335410
  N        -0.0093277501        1.8754348784       13.0554504710
 Ga        -0.0084289548        0.0561581294       13.8700497999
  N        -0.0102181775        0.0546896075       16.0599026468
 Ga        -0.0102483522        2.1073632558       16.4881291852
 Ga        -0.0041930773        3.7076594412        1.2844789418
  N        -1.4727387657        4.6291389449        2.4500255436
 Ga        -1.6903051031        2.8031927333        3.2702821677
  N        -1.6321690967        2.8478045066        5.2459898888
 Ga        -1.6500851193        4.7132943783        5.7944378093
  N        -1.6280578020        4.7090388357        7.7868957230
 Ga        -1.6103788433        2.8466473357        8.4286788942
  N        -1.6073737694        2.8484723375       10.4193635814
 Ga        -1.6344762996        4.7055523004       11.0678784102
  N        -1.6492500465        4.7163444847       13.0564101630
 Ga        -1.6069907369        2.8466619234       13.6190019310
  N        -1.6367523878        2.8313530017       15.5752190307
 Ga        -1.4448383466        4.5989823682       16.4887633196
  N        -0.0064854803        3.7667447931       17.6200936865
  N        -3.2213643808        7.6012254925        2.4956735019
 Ga        -3.1951316804        5.5895426895        2.8308878342
  N        -3.2294900965        5.6291498782        5.0013528442
 Ga        -3.2355506640        7.4494992822        5.7922478178
  N        -3.2255070734        7.4756178938        7.7816815652
 Ga        -3.2284055196        5.6273274635        8.4394449565
  N        -3.2267797671        5.6269648136       10.4082319841
 Ga        -3.2283676665        7.4650322485       11.0666133464
  N        -3.2253516866        7.4455672845       13.0534666039
 Ga        -3.2247611663        5.6253568545       13.8689524889
  N        -3.2244160951        5.6255035085       16.0583004729
 Ga        -3.2278768943        7.6660065304       16.4759805942
 Ga        -3.2692288444        9.3612333208        1.4381176163
  N        -4.7413654832       10.2124295878        2.5178910628
 Ga        -4.9409967038        8.3619629030        3.2701657102
  N        -4.8347520785        8.4144542742        5.2344401937
 Ga        -4.8668018793       10.2881595127        5.7894812331
  N        -4.8458483535       10.2747020971        7.7831607875
 Ga        -4.8282633612        8.4191996250        8.4292530051
  N        -4.8235654359        8.4175299157       10.4176613796
 Ga        -4.8505091477       10.2771475859       11.0635605564
  N        -4.8660939755       10.2869219765       13.0511906161
 Ga        -4.8230587014        8.4182145093       13.6135189231
  N        -4.8489881257        8.4057789453       15.5711054313
 Ga        -4.6734002588       10.1767563521       16.4766688238
  N        -3.2231935447        9.3364118867       17.6175779943
  N         3.1832068937        1.9281436596        2.6088050264
 Ga         3.1884026418        0.1817217228        3.2671480200
  N         3.2036026040        0.0554112083        5.2334650634
 Ga         3.1961552955        1.9168306556        5.8644222352
  N         3.2047545135        1.9123371277        7.8367826541
 Ga         3.2020485951        0.0466414811        8.4306140590
  N         3.2057524205        0.0422367733       10.4185732874
 Ga         3.2046639960        1.9133461866       11.0189881788
  N         3.2061644093        1.9124934295       12.9856172308
 Ga         3.2061263771        0.0431042818       13.6124607125
  N         3.2046076009        0.0719567113       15.5695993331
 Ga         3.2075499466        1.9108839296       15.8560112857
  N         1.4482335043        4.6381944113        2.4856770008
 Ga         1.6523506333        2.8051279060        3.2689578652
  N         1.5974968027        2.8467733284        5.2441077111
 Ga         1.6183296569        4.7137029113        5.7876446204
  N         1.6019807144        4.7091994536        7.7822870617
 Ga         1.5846430195        2.8474761059        8.4261820944
  N         1.5861107398        2.8486779450       10.4178033108
 Ga         1.6137133297        4.7053142355       11.0687383533
  N         1.6311829618        4.7166379644       13.0575115191
 Ga         1.5874588888        2.8473575554       13.6199552146
  N         1.6174742276        2.8301146259       15.5777362494
 Ga         1.4287975544        4.6016257832       16.4893473103
  N        -0.0172558899        7.4807273817        2.6773434378
 Ga        -0.0158217923        5.6105372511        3.2975674418
  N        -0.0182795418        5.6647962375        5.2387193352
 Ga        -0.0165141218        7.4841997722        5.9220126893
  N        -0.0129995123        7.4880413141        7.8662615038
 Ga        -0.0120372589        5.6113899700        8.4435800340
  N        -0.0103975816        5.6131413148       10.4273212018
 Ga        -0.0100384132        7.4825042099       11.0239885649
  N        -0.0092732378        7.4833527352       12.9881944194
 Ga        -0.0091214782        5.6136471740       13.6193328727
  N        -0.0106269728        5.6486343759       15.5748396333
 Ga        -0.0115530133        7.4842881695       15.8620451062
  N        -1.7247190468       10.2050153902        2.4937697816
 Ga        -1.6129595108        8.4068181716        3.3119061236
  N        -1.6016349378        8.4048756692        5.2371584169
 Ga        -1.5985259896       10.2937182914        5.7951339783
  N        -1.6113179929       10.2716227559        7.7827049810
 Ga        -1.6356831642        8.4217985877        8.4453857124
  N        -1.6306882540        8.4183907466       10.4265597430
 Ga        -1.6040783202       10.2783927688       11.0662371633
  N        -1.5849704531       10.2867788438       13.0528429002
 Ga        -1.6283611199        8.4178383364       13.6153910706
  N        -1.6042274034        8.4045570605       15.5745081848
 Ga        -1.7796857849       10.1783611060       16.4760406843
  N         6.4114033610        2.0472925440        2.5186168697
 Ga         6.4120975682        0.0811279101        2.8586368780
  N         6.4166686512        0.0589141819        5.0086813661
 Ga         6.4138415354        1.8915591395        5.7967664120
  N         6.4179190629        1.9010162956        7.7878115082
 Ga         6.4188476838        0.0568489271        8.4401412461
  N         6.4216373416        0.0548088395       10.4075934639
 Ga         6.4214417232        1.8955206867       11.0647859259
  N         6.4228760706        1.8751586111       13.0534155659
 Ga         6.4228774676        0.0557934051       13.8667486480
  N         6.4239428993        0.0540512852       16.0571767295
 Ga         6.4210892504        2.0998512080       16.4758826345
 Ga         6.4148275374        3.7799064686        1.4998113830
  N         4.9115261498        4.6444030398        2.5180026866
 Ga         4.6962430106        2.7913434164        3.2786809846
  N         4.8064816202        2.8427151100        5.2404285961
 Ga         4.7829739085        4.7139899023        5.7916380736
  N         4.8005772802        4.7046153237        7.7850180544
 Ga         4.8196972692        2.8473401160        8.4316409324
  N         4.8247921453        2.8478827327       10.4200778795
 Ga         4.7981265551        4.7067991053       11.0653604468
  N         4.7822372110        4.7165623204       13.0536591247
 Ga         4.8247704958        2.8472310300       13.6143082164
  N         4.7983854020        2.8342104344       15.5720231962
 Ga         4.9764682121        4.6063961902       16.4774016187
  N         6.4263760990        3.7686443645       17.6170271073
  N         3.1839805372        7.6045951145        2.4970420718
 Ga         3.1612051176        5.5925113240        2.8322892958
  N         3.1997248694        5.6315487950        5.0023538282
 Ga         3.2049688312        7.4484607405        5.7953974220
  N         3.1994296041        7.4754286510        7.7839215924
 Ga         3.2024938416        5.6265176975        8.4384338244
  N         3.2048474692        5.6272371645       10.4080827826
 Ga         3.2076234061        7.4643709553       11.0700718760
  N         3.2067185719        7.4450065385       13.0576407614
 Ga         3.2070080521        5.6249136862       13.8731492773
  N         3.2061700518        5.6270340371       16.0615297787
 Ga         3.2059234383        7.6716836511       16.4830288089
 Ga         3.2290927393        9.3646845394        1.4532649290
  N         1.6860961170       10.2036501676        2.4988973094
 Ga         1.5754539115        8.4043401898        3.3189262317
  N         1.5704716856        8.4042262461        5.2423388390
 Ga         1.5652304675       10.2924104292        5.8008170757
  N         1.5846570273       10.2707397527        7.7869945100
 Ga         1.6102300545        8.4206618294        8.4478614236
  N         1.6101917879        8.4182663789       10.4288295945
 Ga         1.5827019706       10.2783343071       11.0686656875
  N         1.5663685833       10.2868361203       13.0556866228
 Ga         1.6095755887        8.4177049992       13.6184036805
  N         1.5794853432        8.4032886462       15.5755895394
 Ga         1.7664233870       10.1734689762       16.4824834117
  N         3.2104806264        9.3376417419       17.6113711021
  N         9.6378069480        1.9273213091        2.6240748393
 Ga         9.6352428491        0.1814759889        3.2806120287
  N         9.6282541624        0.0538332145        5.2434583510
 Ga         9.6347421389        1.9170205250        5.8714665210
  N         9.6324030362        1.9117467639        7.8425496403
 Ga         9.6369486102        0.0453601877        8.4348865318
  N         9.6373044643        0.0415254317       10.4222371777
 Ga         9.6386817645        1.9129720305       11.0202441636
  N         9.6389844821        1.9123575522       12.9860154327
 Ga         9.6393050841        0.0438626234       13.6166226313
  N         9.6372330165        0.0771647058       15.5729696446
 Ga         9.6376123422        1.9134560832       15.8619585617
  N         7.9163657977        4.6429933509        2.5212547362
 Ga         8.1235859630        2.7904653252        3.2878558294
  N         8.0227826075        2.8429126211        5.2480855934
 Ga         8.0492379565        4.7154195794        5.7937608696
  N         8.0373680847        4.7055476045        7.7865458455
 Ga         8.0169023202        2.8475660234        8.4332315679
  N         8.0177716675        2.8475654397       10.4213017489
 Ga         8.0442424977        4.7065203906       11.0651212393
  N         8.0630139300        4.7163314404       13.0539596902
 Ga         8.0209300363        2.8468079147       13.6153986499
  N         8.0451671616        2.8330813024       15.5743641980
 Ga         7.8690436145        4.6083576076       16.4765552360
  N         6.4133660457        7.4872994952        2.5985544353
 Ga         6.4132582787        5.7466128469        3.2821455662
  N         6.4158986296        5.6314209936        5.2418332410
 Ga         6.4163893479        7.4880766397        5.8627978439
  N         6.4188340570        7.4847094649        7.8341796526
 Ga         6.4187472150        5.6161798959        8.4301133264
  N         6.4209988302        5.6134980691       10.4192282376
 Ga         6.4215074004        7.4827968565       11.0196812184
  N         6.4222478341        7.4835847796       12.9857154055
 Ga         6.4224383272        5.6142035847       13.6139732659
  N         6.4206670492        5.6453349279       15.5705431083
 Ga         6.4241650679        7.4835895663       15.8566492557
  N         4.7006349690       10.2134060879        2.5232526872
 Ga         4.9050744473        8.3609970219        3.2734081954
  N         4.8022823518        8.4142954573        5.2366031992
 Ga         4.8367671543       10.2869877030        5.7938371864
  N         4.8201718175       10.2740842718        7.7862701706
 Ga         4.8022567028        8.4187629921        8.4318086413
  N         4.8016373624        8.4173146742       10.4202114596
 Ga         4.8293515988       10.2766092164       11.0668186794
  N         4.8473424106       10.2870530889       13.0556679363
 Ga         4.8036319889        8.4182758751       13.6186142903
  N         4.8329476286        8.4020742290       15.5772424580
 Ga         4.6503386344       10.1764176558       16.4824272800
  O         0.1925771455        3.4420399624       -0.4307242365
  H        -0.0117961990        7.4853623356        1.6414511422
  C         0.7400663678        2.1729922643       -0.8315544088
  H         1.8200186824        2.1252018777       -0.6229486777
  H         0.2515838534        1.3513991014       -0.2850164347
  H         0.5679523050        2.0207085603       -1.9089284264
     206
 i =        3, E =     -8480.6213980483
  N        -0.0208463480        2.0504911703        2.5371478242
 Ga        -0.0187277958        0.1028384763        2.8471065657
  N        -0.0167841258        0.0566837793        5.0118530714
 Ga        -0.0164924623        1.8918026263        5.7854139861
  N        -0.0134498909        1.9017927995        7.7838920452
 Ga        -0.0124357151        0.0585132278        8.4371693836
  N        -0.0112105287        0.0559582476       10.4078946663
 Ga        -0.0102219248        1.8961419758       11.0653004776
  N        -0.0094381560        1.8758344951       13.0555366431
 Ga        -0.0087471348        0.0563802162       13.8697457565
  N        -0.0100414626        0.0554795276       16.0608434217
 Ga        -0.0101925849        2.1082680389       16.4865314238
 Ga        -0.0076721386        3.7120045460        1.3200308153
  N        -1.4880203785        4.6347723477        2.4637397310
 Ga        -1.6917814081        2.8016719847        3.2696448426
  N        -1.6298136394        2.8487960354        5.2454678810
 Ga        -1.6511007712        4.7130922138        5.7973695266
  N        -1.6287381334        4.7083752734        7.7884584550
 Ga        -1.6101978601        2.8465720608        8.4287875056
  N        -1.6073728607        2.8482682041       10.4192760768
 Ga        -1.6345098155        4.7052806671       11.0680647997
  N        -1.6491610880        4.7160786216       13.0566908189
 Ga        -1.6071279921        2.8465335726       13.6190280246
  N        -1.6371591247        2.8310521076       15.5748735672
 Ga        -1.4448513566        4.5983271703       16.4870583751
  N        -0.0064757648        3.7674253929       17.6193827382
  N        -3.2232037284        7.6077816418        2.4976147280
 Ga        -3.2066346039        5.6003540688        2.8324215627
  N        -3.2286085637        5.6278899896        5.0015334465
 Ga        -3.2361522173        7.4487987870        5.7926809280
  N        -3.2265889129        7.4744863664        7.7820371836
 Ga        -3.2283923196        5.6270684836        8.4399279301
  N        -3.2267749653        5.6268330823       10.4086255045
 Ga        -3.2286489406        7.4649619465       11.0671765197
  N        -3.2255287898        7.4459430842       13.0543832924
 Ga        -3.2247182422        5.6253554111       13.8689201128
  N        -3.2246919110        5.6261509100       16.0595515789
 Ga        -3.2274953513        7.6671296796       16.4750071840
 Ga        -3.2656133577        9.3612488000        1.4371961293
  N        -4.7394200655       10.2117050922        2.5140307955
 Ga        -4.9419657748        8.3615801871        3.2710710506
  N        -4.8356258072        8.4137827097        5.2347136344
 Ga        -4.8665306851       10.2873709486        5.7894491047
  N        -4.8464079874       10.2747141397        7.7828769009
 Ga        -4.8284058976        8.4192177306        8.4287614168
  N        -4.8236842627        8.4176596538       10.4174402417
 Ga        -4.8506578104       10.2772277364       11.0638178623