 DBCSR| Multiplication driver                                               BLAS
 DBCSR| Multrec recursion limit                                              512
 DBCSR| Multiplication stack size                                           1000
 DBCSR| Maximum elements for images                                    UNLIMITED
 DBCSR| Multiplicative factor virtual images                                   1
 DBCSR| Multiplication size stacks                                             3
 DBCSR| Number of 3D layers                                               SINGLE
 DBCSR| Use MPI memory allocation                                              T
 DBCSR| Use RMA algorithm                                                      F
 DBCSR| Use Communication thread                                               T
 DBCSR| Communication thread load                                             87


  **** **** ******  **  PROGRAM STARTED AT               2019-07-08 17:40:58.601
 ***** ** ***  *** **   PROGRAM STARTED ON        blg4617.int.ets1.calculquebec.
 **    ****   ******    PROGRAM STARTED BY                                   rzk
 ***** **    ** ** **   PROGRAM PROCESS ID                                148238
  **** **  *******  **  PROGRAM STARTED IN /lustre04/scratch/rzk/rzk/GaN-carbene
                                           /443-adatoms-both-2x2/09-BondBreaking
                                           -CH/02-0401-CH-to-NTop-PES/PRACTICE

 CP2K| version string:                    CP2K version 7.0 (Development Version)
 CP2K| source code revision number:                                    svn:18619
 CP2K| cp2kflags: libint fftw3 libxc parallel mpi3 scalapack mkl                
 CP2K| is freely available from                            https://www.cp2k.org/
 CP2K| Program compiled at                          Sun Apr  7 00:48:11 EDT 2019
 CP2K| Program compiled on                      beluga2.int.ets1.calculquebec.ca
 CP2K| Program compiled for                    Beluga-Linux-x86-64-intel-openmpi
 CP2K| Data directory path    /home/rzk/projects/def-rzk/group/cp2k/cp2k-mcgill/
 CP2K| Input file name                                            TEST-1.restart
 
 GLOBAL| Force Environment number                                              1
 GLOBAL| Basis set file name                                        BASIS_MOLOPT
 GLOBAL| Potential file name                                      GTH_POTENTIALS
 GLOBAL| MM Potential file name                                     MM_POTENTIAL
 GLOBAL| Coordinate file name                                      __STD_INPUT__
 GLOBAL| Method name                                                        CP2K
 GLOBAL| Project name                                                       TEST
 GLOBAL| Preferred FFT library                                             FFTW3
 GLOBAL| Preferred diagonalization lib.                                       SL
 GLOBAL| Run type                                                        GEO_OPT
 GLOBAL| All-to-all communication in single precision                          F
 GLOBAL| FFTs using library dependent lengths                                  F
 GLOBAL| Global print level                                               MEDIUM
 GLOBAL| MPI I/O enabled                                                       T
 GLOBAL| Total number of message passing processes                            40
 GLOBAL| Number of threads for this process                                    1
 GLOBAL| This output is from process                                           0
 GLOBAL| CPU model name :  Intel(R) Xeon(R) Gold 6148 CPU @ 2.40GHz

 MEMORY| system memory details [Kb]
 MEMORY|                        rank 0           min           max       average
 MEMORY| MemTotal            196614300     196614300     196614300     196614300
 MEMORY| MemFree             180718820     180718820     180718820     180718820
 MEMORY| Buffers                    76            76            76            76
 MEMORY| Cached                2693108       2693108       2693108       2693108
 MEMORY| Slab                  1782008       1782008       1782008       1782008
 MEMORY| SReclaimable           194636        194636        194636        194636
 MEMORY| MemLikelyFree       183606640     183606640     183606640     183606640


 *** Fundamental physical constants (SI units) ***

 *** Literature: B. J. Mohr and B. N. Taylor,
 ***             CODATA recommended values of the fundamental physical
 ***             constants: 2006, Web Version 5.1
 ***             http://physics.nist.gov/constants

 Speed of light in vacuum [m/s]                             2.99792458000000E+08
 Magnetic constant or permeability of vacuum [N/A**2]       1.25663706143592E-06
 Electric constant or permittivity of vacuum [F/m]          8.85418781762039E-12
 Planck constant (h) [J*s]                                  6.62606896000000E-34
 Planck constant (h-bar) [J*s]                              1.05457162825177E-34
 Elementary charge [C]                                      1.60217648700000E-19
 Electron mass [kg]                                         9.10938215000000E-31
 Electron g factor [ ]                                     -2.00231930436220E+00
 Proton mass [kg]                                           1.67262163700000E-27
 Fine-structure constant                                    7.29735253760000E-03
 Rydberg constant [1/m]                                     1.09737315685270E+07
 Avogadro constant [1/mol]                                  6.02214179000000E+23
 Boltzmann constant [J/K]                                   1.38065040000000E-23
 Atomic mass unit [kg]                                      1.66053878200000E-27
 Bohr radius [m]                                            5.29177208590000E-11

 *** Conversion factors ***

 [u] -> [a.u.]                                              1.82288848426455E+03
 [Angstrom] -> [Bohr] = [a.u.]                              1.88972613288564E+00
 [a.u.] = [Bohr] -> [Angstrom]                              5.29177208590000E-01
 [a.u.] -> [s]                                              2.41888432650478E-17
 [a.u.] -> [fs]                                             2.41888432650478E-02
 [a.u.] -> [J]                                              4.35974393937059E-18
 [a.u.] -> [N]                                              8.23872205491840E-08
 [a.u.] -> [K]                                              3.15774647902944E+05
 [a.u.] -> [kJ/mol]                                         2.62549961709828E+03
 [a.u.] -> [kcal/mol]                                       6.27509468713739E+02
 [a.u.] -> [Pa]                                             2.94210107994716E+13
 [a.u.] -> [bar]                                            2.94210107994716E+08
 [a.u.] -> [atm]                                            2.90362800883016E+08
 [a.u.] -> [eV]                                             2.72113838565563E+01
 [a.u.] -> [Hz]                                             6.57968392072181E+15
 [a.u.] -> [1/cm] (wave numbers)                            2.19474631370540E+05
 [a.u./Bohr**2] -> [1/cm]                                   5.14048714338585E+03
 
          ----------------------------------------------------------------------
 COLVARS| COLVAR INPUT INDEX:        1
 COLVARS| BOND          >>> ATOMS:                                     3       4
          ----------------------------------------------------------------------

 CELL_TOP| Volume [angstrom^3]:                                          125.000
 CELL_TOP| Vector a [angstrom     5.000     0.000     0.000    |a| =       5.000
 CELL_TOP| Vector b [angstrom     0.000     5.000     0.000    |b| =       5.000
 CELL_TOP| Vector c [angstrom     0.000     0.000     5.000    |c| =       5.000
 CELL_TOP| Angle (b,c), alpha [degree]:                                   90.000
 CELL_TOP| Angle (a,c), beta  [degree]:                                   90.000
 CELL_TOP| Angle (a,b), gamma [degree]:                                   90.000
 CELL_TOP| Numerically orthorhombic:                                         YES
 RESTRAINT| Active restraint on COLLECTIVE section Nr.     1. K [a.u.]=10.000000
 
 GENERATE|  Preliminary Number of Bonds generated:                             0
 GENERATE|  Achieved consistency in connectivity generation.

 CELL| Volume [angstrom^3]:                                              125.000
 CELL| Vector a [angstrom]:       5.000     0.000     0.000    |a| =       5.000
 CELL| Vector b [angstrom]:       0.000     5.000     0.000    |b| =       5.000
 CELL| Vector c [angstrom]:       0.000     0.000     5.000    |c| =       5.000
 CELL| Angle (b,c), alpha [degree]:                                       90.000
 CELL| Angle (a,c), beta  [degree]:                                       90.000
 CELL| Angle (a,b), gamma [degree]:                                       90.000
 CELL| Numerically orthorhombic:                                             YES

 CELL_REF| Volume [angstrom^3]:                                          125.000
 CELL_REF| Vector a [angstrom     5.000     0.000     0.000    |a| =       5.000
 CELL_REF| Vector b [angstrom     0.000     5.000     0.000    |b| =       5.000
 CELL_REF| Vector c [angstrom     0.000     0.000     5.000    |c| =       5.000
 CELL_REF| Angle (b,c), alpha [degree]:                                   90.000
 CELL_REF| Angle (a,c), beta  [degree]:                                   90.000
 CELL_REF| Angle (a,b), gamma [degree]:                                   90.000
 CELL_REF| Numerically orthorhombic:                                         YES

 *******************************************************************************
 *******************************************************************************
 **                                                                           **
 **     #####                         ##              ##                      **
 **    ##   ##            ##          ##              ##                      **
 **   ##     ##                       ##            ######                    **
 **   ##     ##  ##   ##  ##   #####  ##  ##   ####   ##    #####    #####    **
 **   ##     ##  ##   ##  ##  ##      ## ##   ##      ##   ##   ##  ##   ##   **
 **   ##  ## ##  ##   ##  ##  ##      ####     ###    ##   ######   ######    **
 **    ##  ###   ##   ##  ##  ##      ## ##      ##   ##   ##       ##        **
 **     #######   #####   ##   #####  ##  ##  ####    ##    #####   ##        **
 **           ##                                                    ##        **
 **                                                                           **
 **                                                ... make the atoms dance   **
 **                                                                           **
 **            Copyright (C) by CP2K developers group (2000 - 2018)           **
 **                                                                           **
 *******************************************************************************

 DFT| Spin unrestricted (spin-polarized) Kohn-Sham calculation               UKS
 DFT| Multiplicity                                                             1
 DFT| Number of spin states                                                    2
 DFT| Charge                                                                   0
 DFT| Self-interaction correction (SIC)                                       NO
 DFT| Cutoffs: density                                              1.000000E-10
 DFT|          gradient                                             1.000000E-10
 DFT|          tau                                                  1.000000E-10
 DFT|          cutoff_smoothing_range                               0.000000E+00
 DFT| XC density smoothing                                                  NONE
 DFT| XC derivatives                                                          PW
 FUNCTIONAL| ROUTINE=NEW
 FUNCTIONAL| PBE:
 FUNCTIONAL| J.P.Perdew, K.Burke, M.Ernzerhof, Phys. Rev. Letter, vol. 77, n 18,
 FUNCTIONAL|  pp. 3865-3868, (1996){spin polarized}                             
 vdW POTENTIAL|                                                   Pair Potential
 vdW POTENTIAL|          DFT-D3 (Version 3.1)
 vdW POTENTIAL|          Potential Form: S. Grimme et al, JCP 132: 154104 (2010)
 vdW POTENTIAL|          Zero Damping
 vdW POTENTIAL|          Cutoff Radius [Bohr]:                             18.90
 vdW POTENTIAL|          s6 Scaling Factor:                               1.0000
 vdW POTENTIAL|          sr6 Scaling Factor:                              1.2170
 vdW POTENTIAL|          s8 Scaling Factor:                               0.7220
 vdW POTENTIAL|          Cutoff for CN calculation:                   0.1000E-05

 QS| Method:                                                                 GPW
 QS| Density plane wave grid type                        NON-SPHERICAL FULLSPACE
 QS| Number of grid levels:                                                    5
 QS| Density cutoff [a.u.]:                                                150.0
 QS| Multi grid cutoff [a.u.]: 1) grid level                               150.0
 QS|                           2) grid level                                50.0
 QS|                           3) grid level                                16.7
 QS|                           4) grid level                                 5.6
 QS|                           5) grid level                                 1.9
 QS| Grid level progression factor:                                          3.0
 QS| Relative density cutoff [a.u.]:                                        20.0
 QS| Consistent realspace mapping and integration 
 QS| Interaction thresholds: eps_pgf_orb:                                1.0E-07
 QS|                         eps_filter_matrix:                          0.0E+00
 QS|                         eps_core_charge:                            1.0E-16
 QS|                         eps_rho_gspace:                             1.0E-14
 QS|                         eps_rho_rspace:                             1.0E-14
 QS|                         eps_gvg_rspace:                             1.0E-07
 QS|                         eps_ppl:                                    1.0E-02
 QS|                         eps_ppnl:                                   1.0E-09


 ATOMIC KIND INFORMATION

  1. Atomic kind: O                                     Number of atoms:       2

     Orbital Basis Set                                     DZVP-MOLOPT-SR-GTH-q6

       Number of orbital shell sets:                                           1
       Number of orbital shells:                                               5
       Number of primitive Cartesian functions:                                5
       Number of Cartesian basis functions:                                   14
       Number of spherical basis functions:                                   13
       Norm type:                                                              2

       Normalised Cartesian orbitals:

                        Set   Shell   Orbital            Exponent    Coefficient

                          1       1    2s               10.389228       0.396646
                                                         3.849621       0.208811
                                                         1.388401      -0.301641
                                                         0.496955      -0.274061
                                                         0.162492      -0.033677

                          1       2    3s               10.389228       0.303673
                                                         3.849621       0.240943
                                                         1.388401      -0.313066
                                                         0.496955      -0.043055
                                                         0.162492       0.213991

                          1       3    3px              10.389228      -1.530415
                                                         3.849621      -1.371928
                                                         1.388401      -0.761951
                                                         0.496955      -0.253695
                                                         0.162492      -0.035541
                          1       3    3py              10.389228      -1.530415
                                                         3.849621      -1.371928
                                                         1.388401      -0.761951
                                                         0.496955      -0.253695
                                                         0.162492      -0.035541
                          1       3    3pz              10.389228      -1.530415
                                                         3.849621      -1.371928
                                                         1.388401      -0.761951
                                                         0.496955      -0.253695
                                                         0.162492      -0.035541

                          1       4    4px              10.389228      -0.565392
                                                         3.849621      -0.038231
                                                         1.388401      -0.382373
                                                         0.496955       0.179070
                                                         0.162492       0.122714
                          1       4    4py              10.389228      -0.565392
                                                         3.849621      -0.038231
                                                         1.388401      -0.382373
                                                         0.496955       0.179070
                                                         0.162492       0.122714
                          1       4    4pz              10.389228      -0.565392
                                                         3.849621      -0.038231
                                                         1.388401      -0.382373
                                                         0.496955       0.179070
                                                         0.162492       0.122714

                          1       5    4dx2             10.389228       1.867377
                                                         3.849621       0.670994
                                                         1.388401       1.353441
                                                         0.496955       0.273538
                                                         0.162492       0.006620
                          1       5    4dxy             10.389228       3.234392
                                                         3.849621       1.162195
                                                         1.388401       2.344229
                                                         0.496955       0.473781
                                                         0.162492       0.011466
                          1       5    4dxz             10.389228       3.234392
                                                         3.849621       1.162195
                                                         1.388401       2.344229
                                                         0.496955       0.473781
                                                         0.162492       0.011466
                          1       5    4dy2             10.389228       1.867377
                                                         3.849621       0.670994
                                                         1.388401       1.353441
                                                         0.496955       0.273538
                                                         0.162492       0.006620
                          1       5    4dyz             10.389228       3.234392
                                                         3.849621       1.162195
                                                         1.388401       2.344229
                                                         0.496955       0.473781
                                                         0.162492       0.011466
                          1       5    4dz2             10.389228       1.867377
                                                         3.849621       0.670994
                                                         1.388401       1.353441
                                                         0.496955       0.273538
                                                         0.162492       0.006620

     GTH Potential information for                                    GTH-PBE-q6

       Description:                       Goedecker-Teter-Hutter pseudopotential
                                           Goedecker et al., PRB 54, 1703 (1996)
                                          Hartwigsen et al., PRB 58, 3641 (1998)
                                                      Krack, TCA 114, 145 (2005)

       Gaussian exponent of the core charge distribution:               8.360253
       Electronic configuration (s p d ...):                               2   4

       Parameters of the local part of the GTH pseudopotential:

                          rloc        C1          C2          C3          C4
                        0.244554  -16.667215    2.487311

       Parameters of the non-local part of the GTH pseudopotential:

                   l      r(l)      h(i,j,l)

                   0    0.220956   18.337458
                   1    0.211332

  2. Atomic kind: H                                     Number of atoms:       4

     Orbital Basis Set                                     DZVP-MOLOPT-SR-GTH-q1

       Number of orbital shell sets:                                           1
       Number of orbital shells:                                               3
       Number of primitive Cartesian functions:                                5
       Number of Cartesian basis functions:                                    5
       Number of spherical basis functions:                                    5
       Norm type:                                                              2

       Normalised Cartesian orbitals:

                        Set   Shell   Orbital            Exponent    Coefficient

                          1       1    2s               10.068468      -0.133023
                                                         2.680223      -0.177618
                                                         0.791502      -0.258419
                                                         0.239116      -0.107525
                                                         0.082193      -0.014019

                          1       2    3s               10.068468       0.344673
                                                         2.680223       1.819821
                                                         0.791502      -0.999069
                                                         0.239116       0.017430
                                                         0.082193       0.082660

                          1       3    3px              10.068468       0.155326
                                                         2.680223       0.367157
                                                         0.791502       0.311480
                                                         0.239116       0.080105
                                                         0.082193       0.033440
                          1       3    3py              10.068468       0.155326
                                                         2.680223       0.367157
                                                         0.791502       0.311480
                                                         0.239116       0.080105
                                                         0.082193       0.033440
                          1       3    3pz              10.068468       0.155326
                                                         2.680223       0.367157
                                                         0.791502       0.311480
                                                         0.239116       0.080105
                                                         0.082193       0.033440

     GTH Potential information for                                    GTH-PBE-q1

       Description:                       Goedecker-Teter-Hutter pseudopotential
                                           Goedecker et al., PRB 54, 1703 (1996)
                                          Hartwigsen et al., PRB 58, 3641 (1998)
                                                      Krack, TCA 114, 145 (2005)

       Gaussian exponent of the core charge distribution:              12.500000
       Electronic configuration (s p d ...):                                   1

       Parameters of the local part of the GTH pseudopotential:

                          rloc        C1          C2          C3          C4
                        0.200000   -4.178900    0.724463


 MOLECULE KIND INFORMATION


 All atoms are their own molecule, skipping detailed information


 TOTAL NUMBERS AND MAXIMUM NUMBERS

  Total number of            - Atomic kinds:                                   2
                             - Atoms:                                          6
                             - Shell sets:                                     6
                             - Shells:                                        22
                             - Primitive Cartesian functions:                 30
                             - Cartesian basis functions:                     48
                             - Spherical basis functions:                     46

  Maximum angular momentum of- Orbital basis functions:                        2
                             - Local part of the GTH pseudopotential:          2
                             - Non-local part of the GTH pseudopotential:      0


 MODULE QUICKSTEP:  ATOMIC COORDINATES IN angstrom

  Atom  Kind  Element       X           Y           Z          Z(eff)       Mass

       1     1 O    8   -1.485218    0.289681   -0.749317      6.00      15.9994
       2     2 H    1   -1.459017    1.253945   -0.684543      1.00       1.0079
       3     2 H    1   -0.576439   -0.001259   -0.457221      1.00       1.0079
       4     1 O    8    0.926608   -0.563197    0.104436      6.00      15.9994
       5     2 H    1    0.951863   -0.485416    1.068444      1.00       1.0079
       6     2 H    1    1.833327   -0.289563   -0.186055      1.00       1.0079




 SCF PARAMETERS         Density guess:                                    ATOMIC
                        --------------------------------------------------------
                        max_scf:                                              80
                        max_scf_history:                                       0
                        max_diis:                                              4
                        --------------------------------------------------------
                        eps_scf:                                        5.00E-06
                        eps_scf_history:                                0.00E+00
                        eps_diis:                                       1.00E-01
                        eps_eigval:                                     1.00E-05
                        --------------------------------------------------------
                        level_shift [a.u.]:                                 0.00
                        --------------------------------------------------------
                        Outer loop SCF in use 
                        No variables optimised in outer loop
                        eps_scf                                         5.00E-06
                        max_scf                                                4
                        No outer loop optimization
                        step_size                                       5.00E-01

 PW_GRID| Information for grid number                                          1
 PW_GRID| Grid distributed over                                    40 processors
 PW_GRID| Real space group dimensions                                    40    1
 PW_GRID| the grid is blocked:                                                NO
 PW_GRID| Cutoff [a.u.]                                                    150.0
 PW_GRID| spherical cutoff:                                                   NO
 PW_GRID|   Bounds   1            -27      26                Points:          54
 PW_GRID|   Bounds   2            -27      26                Points:          54
 PW_GRID|   Bounds   3            -27      26                Points:          54
 PW_GRID| Volume element (a.u.^3)  0.5357E-02     Volume (a.u.^3)       843.5418
 PW_GRID| Grid span                                                    FULLSPACE
 PW_GRID|   Distribution                         Average         Max         Min
 PW_GRID|   G-Vectors                             3936.6        3942        3888
 PW_GRID|   G-Rays                                  72.9          73          72
 PW_GRID|   Real Space Points                     3936.6        5832        2916

 PW_GRID| Information for grid number                                          2
 PW_GRID| Grid distributed over                                    40 processors
 PW_GRID| Real space group dimensions                                     5    8
 PW_GRID| the grid is blocked:                                                NO
 PW_GRID| Cutoff [a.u.]                                                     50.0
 PW_GRID| spherical cutoff:                                                   NO
 PW_GRID|   Bounds   1            -16      15                Points:          32
 PW_GRID|   Bounds   2            -16      15                Points:          32
 PW_GRID|   Bounds   3            -16      15                Points:          32
 PW_GRID| Volume element (a.u.^3)  0.2574E-01     Volume (a.u.^3)       843.5418
 PW_GRID| Grid span                                                    FULLSPACE
 PW_GRID|   Distribution                         Average         Max         Min
 PW_GRID|   G-Vectors                              819.2         896         768
 PW_GRID|   G-Rays                                  25.6          28          24
 PW_GRID|   Real Space Points                      819.2         896         768

 PW_GRID| Information for grid number                                          3
 PW_GRID| Grid distributed over                                    40 processors
 PW_GRID| Real space group dimensions                                     5    8
 PW_GRID| the grid is blocked:                                                NO
 PW_GRID| Cutoff [a.u.]                                                     16.7
 PW_GRID| spherical cutoff:                                                   NO
 PW_GRID|   Bounds   1             -9       8                Points:          18
 PW_GRID|   Bounds   2             -9       8                Points:          18
 PW_GRID|   Bounds   3             -9       8                Points:          18
 PW_GRID| Volume element (a.u.^3)  0.1446         Volume (a.u.^3)       843.5418
 PW_GRID| Grid span                                                    FULLSPACE
 PW_GRID|   Distribution                         Average         Max         Min
 PW_GRID|   G-Vectors                              145.8         180         126
 PW_GRID|   G-Rays                                   8.1          10           7
 PW_GRID|   Real Space Points                      145.8         216         108

 PW_GRID| Information for grid number                                          4
 PW_GRID| Grid distributed over                                    40 processors
 PW_GRID| Real space group dimensions                                     5    8
 PW_GRID| the grid is blocked:                                                NO
 PW_GRID| Cutoff [a.u.]                                                      5.6
 PW_GRID| spherical cutoff:                                                   NO
 PW_GRID|   Bounds   1             -6       5                Points:          12
 PW_GRID|   Bounds   2             -6       5                Points:          12
 PW_GRID|   Bounds   3             -6       5                Points:          12
 PW_GRID| Volume element (a.u.^3)  0.4882         Volume (a.u.^3)       843.5418
 PW_GRID| Grid span                                                    FULLSPACE
 PW_GRID|   Distribution                         Average         Max         Min
 PW_GRID|   G-Vectors                               43.2          60          36
 PW_GRID|   G-Rays                                   3.6           5           3
 PW_GRID|   Real Space Points                       43.2          72          24

 PW_GRID| Information for grid number                                          5
 PW_GRID| Grid distributed over                                    40 processors
 PW_GRID| Real space group dimensions                                     5    8
 PW_GRID| the grid is blocked:                                                NO
 PW_GRID| Cutoff [a.u.]                                                      1.9
 PW_GRID| spherical cutoff:                                                   NO
 PW_GRID|   Bounds   1             -3       2                Points:           6
 PW_GRID|   Bounds   2             -3       2                Points:           6
 PW_GRID|   Bounds   3             -3       2                Points:           6
 PW_GRID| Volume element (a.u.^3)   3.905         Volume (a.u.^3)       843.5418
 PW_GRID| Grid span                                                    FULLSPACE
 PW_GRID|   Distribution                         Average         Max         Min
 PW_GRID|   G-Vectors                                5.4          12           0
 PW_GRID|   G-Rays                                   0.9           2           0
 PW_GRID|   Real Space Points                        5.4          12           0

 POISSON| Solver                                                        PERIODIC
 POISSON| Periodicity                                                        XYZ

 RS_GRID| Information for grid number                                          1
 RS_GRID|   Bounds   1            -27      26                Points:          54
 RS_GRID|   Bounds   2            -27      26                Points:          54
 RS_GRID|   Bounds   3            -27      26                Points:          54
 RS_GRID| Real space fully replicated
 RS_GRID| Group size                                                           1

 RS_GRID| Information for grid number                                          2
 RS_GRID|   Bounds   1            -16      15                Points:          32
 RS_GRID|   Bounds   2            -16      15                Points:          32
 RS_GRID|   Bounds   3            -16      15                Points:          32
 RS_GRID| Real space fully replicated
 RS_GRID| Group size                                                           1

 RS_GRID| Information for grid number                                          3
 RS_GRID|   Bounds   1             -9       8                Points:          18
 RS_GRID|   Bounds   2             -9       8                Points:          18
 RS_GRID|   Bounds   3             -9       8                Points:          18
 RS_GRID| Real space fully replicated
 RS_GRID| Group size                                                           1

 RS_GRID| Information for grid number                                          4
 RS_GRID|   Bounds   1             -6       5                Points:          12
 RS_GRID|   Bounds   2             -6       5                Points:          12
 RS_GRID|   Bounds   3             -6       5                Points:          12
 RS_GRID| Real space fully replicated
 RS_GRID| Group size                                                           1

 RS_GRID| Information for grid number                                          5
 RS_GRID|   Bounds   1             -3       2                Points:           6
 RS_GRID|   Bounds   2             -3       2                Points:           6
 RS_GRID|   Bounds   3             -3       2                Points:           6
 RS_GRID| Real space fully replicated
 RS_GRID| Group size                                                           1

 BFGS| Use rational function optimization for step estimation:                NO
 BFGS| Use model Hessian for initial guess:                                  YES
 BFGS| Restart Hessian:                                                       NO
 BFGS| Trust radius:                                                       0.472

 *******************************************************************************
 ***                     STARTING GEOMETRY OPTIMIZATION                      ***
 ***                                   BFGS                                  ***
 *******************************************************************************

 Spin 1

 Number of electrons:                                                          8
 Number of occupied orbitals:                                                  8
 Number of molecular orbitals:                                                 8

 Spin 2

 Number of electrons:                                                          8
 Number of occupied orbitals:                                                  8
 Number of molecular orbitals:                                                 8

 Number of orbital functions:                                                 46
 Number of independent orbital functions:                                     46

 Extrapolation method: initial_guess

 Atomic guess: The first density matrix is obtained in terms of atomic orbitals
               and electronic configurations assigned to each atomic kind

 Guess for atomic kind: O

 Electronic structure
    Total number of core electrons                                          2.00
    Total number of valence electrons                                       6.00
    Total number of electrons                                               8.00
    Multiplicity                                                   not specified
    S   [  2.00] 2.00
    P      4.00
 

 *******************************************************************************
                  Iteration          Convergence                     Energy [au]
 *******************************************************************************
                          1        0.702811                     -15.577904332270
                          2        0.612408                     -15.588447180504
                          3        0.955344E-02                 -15.655871208406
                          4        0.223754E-02                 -15.655885053552
                          5        0.157183E-02                 -15.655885461027
                          6        0.124953E-02                 -15.655885607150
                          7        0.312011E-06                 -15.655885858066

 Energy components [Hartree]           Total Energy ::          -15.655885858066
                                        Band Energy ::           -2.983128125584
                                     Kinetic Energy ::           11.754765134683
                                   Potential Energy ::          -27.410650992750
                                      Virial (-V/T) ::            2.331875684345
                                        Core Energy ::          -26.153522949072
                                          XC Energy ::           -3.157392363346
                                     Coulomb Energy ::           13.655029454351
                       Total Pseudopotential Energy ::          -37.943026860963
                       Local Pseudopotential Energy ::          -39.220419683052
                    Nonlocal Pseudopotential Energy ::            1.277392822089
                                        Confinement ::            0.347387772086

 Orbital energies  State     L     Occupation   Energy[a.u.]          Energy[eV]

                       1     0          2.000      -0.861522          -23.443215
 
                       1     1          4.000      -0.315021           -8.572154
 

 Total Electron Density at R=0:                                         0.000093

 Guess for atomic kind: H

 Electronic structure
    Total number of core electrons                                          0.00
    Total number of valence electrons                                       1.00
    Total number of electrons                                               1.00
    Multiplicity                                                   not specified
    S      1.00
 

 *******************************************************************************
                  Iteration          Convergence                     Energy [au]
 *******************************************************************************
                          1        0.250972E-02                  -0.375256815885
                          2        0.570752E-04                  -0.375258666164
                          3        0.832405E-09                  -0.375258667122

 Energy components [Hartree]           Total Energy ::           -0.375258667122
                                        Band Energy ::           -0.076317618391
                                     Kinetic Energy ::            0.771356566341
                                   Potential Energy ::           -1.146615233463
                                      Virial (-V/T) ::            1.486491829455
                                        Core Energy ::           -0.456090715790
                                          XC Energy ::           -0.314218627334
                                     Coulomb Energy ::            0.395050676003
                       Total Pseudopotential Energy ::           -1.238482237174
                       Local Pseudopotential Energy ::           -1.238482237174
                    Nonlocal Pseudopotential Energy ::            0.000000000000
                                        Confinement ::            0.110349550431

 Orbital energies  State     L     Occupation   Energy[a.u.]          Energy[eV]

                       1     0          1.000      -0.076318           -2.076708
 

 Total Electron Density at R=0:                                         0.425022

 Spin 1
 Re-scaling the density matrix to get the right number of electrons for spin 1
                  # Electrons              Trace(P)               Scaling factor
                            8                 8.004                        0.999

 Spin 2
 Re-scaling the density matrix to get the right number of electrons for spin 2
                  # Electrons              Trace(P)               Scaling factor
                            8                 8.004                        0.999


 SCF WAVEFUNCTION OPTIMIZATION

  ----------------------------------- OT ---------------------------------------
  Minimizer      : CG                  : conjugate gradient
  Preconditioner : FULL_ALL            : diagonalization, state selective
  Precond_solver : DEFAULT
  Line search    : 2PNT                : 2 energies, one gradient
  stepsize       :    0.15000000                  energy_gap     :    0.08000000
  eps_taylor     :   0.10000E-15                  max_taylor     :             4
  ----------------------------------- OT ---------------------------------------

  Step     Update method      Time    Convergence         Total energy    Change
  ------------------------------------------------------------------------------
     1 OT CG       0.15E+00    0.2     0.12289127       -32.0455469007 -3.20E+01
     2 OT LS       0.19E+00    0.2                      -33.0491038986
     3 OT CG       0.19E+00    0.3     0.09150658       -33.0291399345 -9.84E-01
     4 OT LS       0.86E-01    0.2                      -32.9426576246
     5 OT CG       0.86E-01    0.4     0.06599881       -33.2085348781 -1.79E-01
     6 OT LS       0.15E+00    0.2                      -33.4004337987
     7 OT CG       0.15E+00    0.3     0.03240374       -33.4441228436 -2.36E-01
     8 OT LS       0.23E+00    0.2                      -33.5242531776
     9 OT CG       0.23E+00    0.3     0.05973713       -33.5242146750 -8.01E-02
    10 OT LS       0.42E-01    0.2                      -32.8156152941
    11 OT CG       0.42E-01    0.3     0.07517131       -33.5814472912 -5.72E-02
    12 OT LS       0.12E+00    0.2                      -33.7366416464
    13 OT CG       0.12E+00    0.3     0.06306281       -33.8489698990 -2.68E-01
    14 OT LS       0.21E+00    0.2                      -34.1045230667
    15 OT CG       0.21E+00    0.3     0.08869935       -34.0287783597 -1.80E-01
    16 OT LS       0.16E-01    0.2                      -32.5850682520
    17 OT CG       0.16E-01    0.3     0.08990796       -34.0385192967 -9.74E-03
    18 OT LS       0.65E-01    0.2                      -34.1276874563
    19 OT CG       0.65E-01    0.3     0.03739492       -34.3030870655 -2.65E-01
    20 OT LS       0.15E+00    0.2                      -34.3555643000
    21 OT CG       0.15E+00    0.3     0.02477676       -34.3806948675 -7.76E-02
    22 OT LS       0.22E+00    0.2                      -34.4249568679
    23 OT CG       0.22E+00    0.3     0.01752149       -34.4296213822 -4.89E-02
    24 OT LS       0.17E+00    0.2                      -34.4466852838
    25 OT CG       0.17E+00    0.3     0.00832412       -34.4485618768 -1.89E-02
    26 OT LS       0.25E+00    0.2                      -34.4542216012
    27 OT CG       0.25E+00    0.3     0.00547520       -34.4548239418 -6.26E-03
    28 OT LS       0.23E+00    0.2                      -34.4573867424
    29 OT CG       0.23E+00    0.3     0.00319539       -34.4573926768 -2.57E-03
    30 OT LS       0.16E+00    0.2                      -34.4578895031
    31 OT CG       0.16E+00    0.3     0.00216509       -34.4580068832 -6.14E-04
    32 OT LS       0.18E+00    0.2                      -34.4583201381
    33 OT CG       0.18E+00    0.3     0.00145691       -34.4583242767 -3.17E-04
    34 OT LS       0.18E+00    0.2                      -34.4584649751
    35 OT CG       0.18E+00    0.3     0.00084937       -34.4584650357 -1.41E-04
    36 OT LS       0.21E+00    0.2                      -34.4585201238
    37 OT CG       0.21E+00    0.3     0.00050580       -34.4585214063 -5.64E-05
    38 OT LS       0.19E+00    0.2                      -34.4585391186
    39 OT CG       0.19E+00    0.3     0.00034716       -34.4585393507 -1.79E-05
    40 OT LS       0.21E+00    0.2                      -34.4585484901
    41 OT CG       0.21E+00    0.3     0.00016114       -34.4585485506 -9.20E-06
    42 OT LS       0.22E+00    0.2                      -34.4585506639
    43 OT CG       0.22E+00    0.3     0.00013889       -34.4585506732 -2.12E-06
    44 OT LS       0.14E+00    0.2                      -34.4585512901
    45 OT CG       0.14E+00    0.3     0.00006798       -34.4585516534 -9.80E-07
    46 OT LS       0.22E+00    0.2                      -34.4585519782
    47 OT CG       0.22E+00    0.3     0.00003820       -34.4585520342 -3.81E-07
    48 OT LS       0.23E+00    0.2                      -34.4585521591
    49 OT CG       0.23E+00    0.3     0.00002435       -34.4585521593 -1.25E-07
    50 OT LS       0.22E+00    0.2                      -34.4585522060
    51 OT CG       0.22E+00    0.3     0.00001464       -34.4585522063 -4.70E-08
    52 OT LS       0.15E+00    0.2                      -34.4585522163
    53 OT CG       0.15E+00    0.3     0.00000882       -34.4585522183 -1.20E-08
    54 OT LS       0.16E+00    0.2                      -34.4585522228
    55 OT CG       0.16E+00    0.3     0.00000483       -34.4585522228 -4.54E-09

  *** SCF run converged in    55 steps ***


  Electronic density on regular grids:        -15.9999997840        0.0000002160
  Core density on regular grids:               16.0000000000        0.0000000000
  Total charge density on r-space grids:        0.0000002161
  Total charge density g-space grids:           0.0000002161

  Overlap energy of the core charge distribution:               0.00000006516260
  Self energy of the core charge distribution:                -88.69430999347530
  Core Hamiltonian energy:                                     25.86885345222489
  Hartree energy:                                              36.84978740224257
  Exchange-correlation energy:                                 -8.48025052570997
  Dispersion energy:                                           -0.00263262329227

  Total energy:                                               -34.45855222284748

  outer SCF iter =    1 RMS gradient =   0.48E-05 energy =        -34.4585522228
  outer SCF loop converged in   1 iterations or   55 steps


  Integrated absolute spin density  :                               0.0000000000
  Ideal and single determinant S**2 :                    0.000000       0.000000

 !-----------------------------------------------------------------------------!
                     Mulliken Population Analysis

 #  Atom  Element  Kind  Atomic population (alpha,beta) Net charge  Spin moment
       1     O        1         3.148143     3.148143    -0.296285     0.000000
       2     H        2         0.433917     0.433917     0.132167     0.000000
       3     H        2         0.428251     0.428251     0.143499    -0.000000
       4     O        1         3.135212     3.135212    -0.270424     0.000000
       5     H        2         0.429879     0.429879     0.140243     0.000000
       6     H        2         0.424599     0.424599     0.150801     0.000000
 # Total charge and spin        8.000000     8.000000     0.000000     0.000000

 !-----------------------------------------------------------------------------!

 !-----------------------------------------------------------------------------!
                           Hirshfeld Charges

  #Atom  Element  Kind  Ref Charge     Population       Spin moment  Net charge
      1       O      1       6.000    3.578   3.578            0.000     -1.157
      2       H      2       1.000    0.219   0.219            0.000      0.561
      3       H      2       1.000    0.204   0.204           -0.000      0.592
      4       O      1       6.000    3.574   3.574            0.000     -1.148
      5       H      2       1.000    0.218   0.218            0.000      0.564
      6       H      2       1.000    0.206   0.206            0.000      0.589

  Total Charge                                                            0.001
 !-----------------------------------------------------------------------------!

 ENERGY| Total FORCE_EVAL ( QS ) energy (a.u.):              -33.028516420768078


 --------  Informations at step =     0 ------------
  Optimization Method        =                 BFGS
  Total Energy               =       -33.0285164208
  Used time                  =               15.190
 ---------------------------------------------------

 --------------------------
 OPTIMIZATION STEP:      1
 --------------------------

  Step is scaled; Scaling factor =  0.01175

 Spin 1

 Number of electrons:                                                          8
 Number of occupied orbitals:                                                  8
 Number of molecular orbitals:                                                 8

 Spin 2

 Number of electrons:                                                          8
 Number of occupied orbitals:                                                  8
 Number of molecular orbitals:                                                 8

 Number of orbital functions:                                                 46
 Number of independent orbital functions:                                     46

 Parameters for the always stable predictor-corrector (ASPC) method:

  ASPC order: 0

  B(1) =   1.000000

 Parameters for the always stable predictor-corrector (ASPC) method:

  ASPC order: 0

  B(1) =   1.000000

 Extrapolation method: ASPC


 SCF WAVEFUNCTION OPTIMIZATION

  ----------------------------------- OT ---------------------------------------
  Minimizer      : CG                  : conjugate gradient
  Preconditioner : FULL_ALL            : diagonalization, state selective
  Precond_solver : DEFAULT
  Line search    : 2PNT                : 2 energies, one gradient
  stepsize       :    0.15000000                  energy_gap     :    0.08000000
  eps_taylor     :   0.10000E-15                  max_taylor     :             4
  ----------------------------------- OT ---------------------------------------

  Step     Update method      Time    Convergence         Total energy    Change
  ------------------------------------------------------------------------------
     1 OT CG       0.15E+00    0.2     0.01724872       -34.3450810849 -3.43E+01
     2 OT LS       0.43E+00    0.2                      -34.3722594742
     3 OT CG       0.43E+00    0.3     0.00742758       -34.3921247548 -4.70E-02
     4 OT LS       0.20E+00    0.2                      -34.3903077756
     5 OT CG       0.20E+00    0.4     0.00101321       -34.3960125809 -3.89E-03
     6 OT LS       0.29E+00    0.3                      -34.3961111108
     7 OT CG       0.29E+00    0.3     0.00031895       -34.3961228834 -1.10E-04
     8 OT LS       0.21E+00    0.2                      -34.3961292572
     9 OT CG       0.21E+00    0.3     0.00007828       -34.3961306002 -7.72E-06
    10 OT LS       0.34E+00    0.2                      -34.3961312484
    11 OT CG       0.34E+00    0.3     0.00001725       -34.3961313686 -7.68E-07
    12 OT LS       0.23E+00    0.2                      -34.3961313885
    13 OT CG       0.23E+00    0.3     0.00000595       -34.3961313941 -2.54E-08
    14 OT LS       0.29E+00    0.2                      -34.3961313977
    15 OT CG       0.29E+00    0.3     0.00000109       -34.3961313978 -3.72E-09

  *** SCF run converged in    15 steps ***


  Electronic density on regular grids:        -15.9999999430        0.0000000570
  Core density on regular grids:               16.0000000000       -0.0000000000
  Total charge density on r-space grids:        0.0000000570
  Total charge density g-space grids:           0.0000000570

  Overlap energy of the core charge distribution:               0.00000001546457
  Self energy of the core charge distribution:                -88.69430999347530
  Core Hamiltonian energy:                                     25.93947552343603
  Hartree energy:                                              36.84179384100504
  Exchange-correlation energy:                                 -8.48057875196905
  Dispersion energy:                                           -0.00251203224327

  Total energy:                                               -34.39613139778197

  outer SCF iter =    1 RMS gradient =   0.11E-05 energy =        -34.3961313978
  outer SCF loop converged in   1 iterations or   15 steps


  Integrated absolute spin density  :                               0.0000000000
  Ideal and single determinant S**2 :                    0.000000       0.000000

 !-----------------------------------------------------------------------------!
                     Mulliken Population Analysis

 #  Atom  Element  Kind  Atomic population (alpha,beta) Net charge  Spin moment
       1     O        1         3.214021     3.214021    -0.428041     0.000000
       2     H        2         0.434917     0.434917     0.130167    -0.000000
       3     H        2         0.464418     0.464418     0.071164     0.000000
       4     O        1         3.062008     3.062008    -0.124016    -0.000000
       5     H        2         0.414929     0.414929     0.170142     0.000000
       6     H        2         0.409708     0.409708     0.180584    -0.000000
 # Total charge and spin        8.000000     8.000000     0.000000     0.000000

 !-----------------------------------------------------------------------------!

 !-----------------------------------------------------------------------------!
                           Hirshfeld Charges

  #Atom  Element  Kind  Ref Charge     Population       Spin moment  Net charge
      1       O      1       6.000    3.612   3.612            0.000     -1.224
      2       H      2       1.000    0.219   0.219           -0.000      0.562
      3       H      2       1.000    0.195   0.195            0.000      0.610
      4       O      1       6.000    3.560   3.560           -0.000     -1.120
      5       H      2       1.000    0.212   0.212           -0.000      0.575
      6       H      2       1.000    0.200   0.200           -0.000      0.599

  Total Charge                                                            0.001
 !-----------------------------------------------------------------------------!

 ENERGY| Total FORCE_EVAL ( QS ) energy (a.u.):              -30.142159253763367


 --------  Informations at step =     1 ------------
  Optimization Method        =                 BFGS
  Total Energy               =       -30.1421592538
  Real energy change         =         2.8863571670
  Predicted change in energy =        -7.8073665116
  Scaling factor             =         0.0117463286
  Step size                  =         0.4724315332
  Trust radius               =         0.4724315332
  Decrease in energy         =                   NO
  Used time                  =                4.763

  Convergence check :
  Max. step size             =         0.4724315332
  Conv. limit for step size  =         0.0030000000
  Convergence in step size   =                   NO
  RMS step size              =         0.2140978940
  Conv. limit for RMS step   =         0.0015000000
  Convergence in RMS step    =                   NO
  Max. gradient              =        12.0455558952
  Conv. limit for gradients  =         0.0004500000
  Conv. for gradients        =                   NO
  RMS gradient               =         4.3895461643
  Conv. limit for RMS grad.  =         0.0003000000
  Conv. for gradients        =                   NO
 ---------------------------------------------------

 --------------------------
 OPTIMIZATION STEP:      2
 --------------------------

  Step is scaled; Scaling factor =  0.12297

 Spin 1

 Number of electrons:                                                          8
 Number of occupied orbitals:                                                  8
 Number of molecular orbitals:                                                 8

 Spin 2

 Number of electrons:                                                          8
 Number of occupied orbitals:                                                  8
 Number of molecular orbitals:                                                 8

 Number of orbital functions:                                                 46
 Number of independent orbital functions:                                     46

 Parameters for the always stable predictor-corrector (ASPC) method:

  ASPC order: 0

  B(1) =   2.000000
  B(2) =  -1.000000

 Parameters for the always stable predictor-corrector (ASPC) method:

  ASPC order: 0

  B(1) =   2.000000
  B(2) =  -1.000000

 Extrapolation method: ASPC


 SCF WAVEFUNCTION OPTIMIZATION

  ----------------------------------- OT ---------------------------------------
  Minimizer      : CG                  : conjugate gradient
  Preconditioner : FULL_ALL            : diagonalization, state selective
  Precond_solver : DEFAULT
  Line search    : 2PNT                : 2 energies, one gradient
  stepsize       :    0.15000000                  energy_gap     :    0.08000000
  eps_taylor     :   0.10000E-15                  max_taylor     :             4
  ----------------------------------- OT ---------------------------------------

  Step     Update method      Time    Convergence         Total energy    Change
  ------------------------------------------------------------------------------
     1 OT CG       0.15E+00    0.2     0.02055430       -34.3156155964 -3.43E+01
     2 OT LS       0.44E+00    0.2                      -34.3543288091
     3 OT CG       0.44E+00    0.3     0.00807644       -34.3843136310 -6.87E-02
     4 OT LS       0.19E+00    0.2                      -34.3805249107
     5 OT CG       0.19E+00    0.3     0.00081525       -34.3888463024 -4.53E-03
     6 OT LS       0.30E+00    0.2                      -34.3889095289
     7 OT CG       0.30E+00    0.3     0.00035770       -34.3889199827 -7.37E-05
     8 OT LS       0.21E+00    0.2                      -34.3889284233
     9 OT CG       0.21E+00    0.3     0.00006731       -34.3889300600 -1.01E-05
    10 OT LS       0.36E+00    0.2                      -34.3889305606
    11 OT CG       0.36E+00    0.3     0.00001356       -34.3889306570 -5.97E-07
    12 OT LS       0.26E+00    0.2                      -34.3889306720
    13 OT CG       0.26E+00    0.3     0.00000568       -34.3889306746 -1.76E-08
    14 OT LS       0.26E+00    0.2                      -34.3889306776
    15 OT CG       0.26E+00    0.3     0.00000093       -34.3889306776 -3.07E-09

  *** SCF run converged in    15 steps ***


  Electronic density on regular grids:        -16.0000000839       -0.0000000839
  Core density on regular grids:               16.0000000000        0.0000000000
  Total charge density on r-space grids:       -0.0000000839
  Total charge density g-space grids:          -0.0000000839

  Overlap energy of the core charge distribution:               0.00000001168797
  Self energy of the core charge distribution:                -88.69430999347530
  Core Hamiltonian energy:                                     25.71234715072035
  Hartree energy:                                              37.00903061365283
  Exchange-correlation energy:                                 -8.41343560077875
  Dispersion energy:                                           -0.00256285944181

  Total energy:                                               -34.38893067763470

  outer SCF iter =    1 RMS gradient =   0.93E-06 energy =        -34.3889306776
  outer SCF loop converged in   1 iterations or   15 steps


  Integrated absolute spin density  :                               0.0000000000
  Ideal and single determinant S**2 :                    0.000000       0.000000

 !-----------------------------------------------------------------------------!
                     Mulliken Population Analysis

 #  Atom  Element  Kind  Atomic population (alpha,beta) Net charge  Spin moment
       1     O        1         3.217022     3.217022    -0.434043    -0.000000
       2     H        2         0.428751     0.428751     0.142499    -0.000000
       3     H        2         0.423862     0.423862     0.152276    -0.000000
       4     O        1         3.129843     3.129843    -0.259686    -0.000000
       5     H        2         0.402718     0.402718     0.194564     0.000000
       6     H        2         0.397805     0.397805     0.204390    -0.000000
 # Total charge and spin        8.000000     8.000000     0.000000    -0.000000

 !-----------------------------------------------------------------------------!

 !-----------------------------------------------------------------------------!
                           Hirshfeld Charges

  #Atom  Element  Kind  Ref Charge     Population       Spin moment  Net charge
      1       O      1       6.000    3.613   3.613           -0.000     -1.226
      2       H      2       1.000    0.214   0.214           -0.000      0.572
      3       H      2       1.000    0.186   0.186           -0.000      0.628
      4       O      1       6.000    3.576   3.576           -0.000     -1.151
      5       H      2       1.000    0.213   0.213            0.000      0.574
      6       H      2       1.000    0.198   0.198           -0.000      0.604

  Total Charge                                                            0.001
 !-----------------------------------------------------------------------------!

 ENERGY| Total FORCE_EVAL ( QS ) energy (a.u.):              -33.084277377924217


 --------  Informations at step =     2 ------------
  Optimization Method        =                 BFGS
  Total Energy               =       -33.0842773779
  Real energy change         =        -2.9421181242
  Predicted change in energy =        -1.3526806181
  Scaling factor             =         0.1229726434
  Step size                  =         0.4724315332
  Trust radius               =         0.4724315332
  Decrease in energy         =                  YES
  Used time                  =                4.885

  Convergence check :
  Max. step size             =         0.4724315332
  Conv. limit for step size  =         0.0030000000
  Convergence in step size   =                   NO
  RMS step size              =         0.1639523306
  Conv. limit for RMS step   =         0.0015000000
  Convergence in RMS step    =                   NO
  Max. gradient              =         6.9067431716
  Conv. limit for gradients  =         0.0004500000
  Conv. for gradients        =                   NO
  RMS gradient               =         2.4374020896
  Conv. limit for RMS grad.  =         0.0003000000
  Conv. for gradients        =                   NO
 ---------------------------------------------------

 --------------------------
 OPTIMIZATION STEP:      3
 --------------------------

  Step is scaled; Scaling factor =  0.00001

 Spin 1

 Number of electrons:                                                          8
 Number of occupied orbitals:                                                  8
 Number of molecular orbitals:                                                 8

 Spin 2

 Number of electrons:                                                          8
 Number of occupied orbitals:                                                  8
 Number of molecular orbitals:                                                 8

 Number of orbital functions:                                                 46
 Number of independent orbital functions:                                     46

 Parameters for the always stable predictor-corrector (ASPC) method:

  ASPC order: 1

  B(1) =   2.500000
  B(2) =  -2.000000
  B(3) =   0.500000

 Parameters for the always stable predictor-corrector (ASPC) method:

  ASPC order: 1

  B(1) =   2.500000
  B(2) =  -2.000000
  B(3) =   0.500000

 Extrapolation method: ASPC


 SCF WAVEFUNCTION OPTIMIZATION

  ----------------------------------- OT ---------------------------------------
  Minimizer      : CG                  : conjugate gradient
  Preconditioner : FULL_ALL            : diagonalization, state selective
  Precond_solver : DEFAULT
  Line search    : 2PNT                : 2 energies, one gradient
  stepsize       :    0.15000000                  energy_gap     :    0.08000000
  eps_taylor     :   0.10000E-15                  max_taylor     :             4
  ----------------------------------- OT ---------------------------------------

  Step     Update method      Time    Convergence         Total energy    Change
  ------------------------------------------------------------------------------
     1 OT CG       0.15E+00    0.2     0.03276015       -34.1581257631 -3.42E+01
     2 OT LS       0.38E+00    0.2                      -34.2530032311
     3 OT CG       0.38E+00    0.3     0.01408332       -34.3076781571 -1.50E-01
     4 OT LS       0.24E+00    0.2                      -34.3194978601
     5 OT CG       0.24E+00    0.3     0.00194664       -34.3254208505 -1.77E-02
     6 OT LS       0.34E+00    0.2                      -34.3258538532
     7 OT CG       0.34E+00    0.3     0.00040233       -34.3258961311 -4.75E-04
     8 OT LS       0.25E+00    0.2                      -34.3259092694
     9 OT CG       0.25E+00    0.3     0.00015058       -34.3259111347 -1.50E-05
    10 OT LS       0.32E+00    0.2                      -34.3259136912
    11 OT CG       0.32E+00    0.3     0.00001739       -34.3259138172 -2.68E-06
    12 OT LS       0.34E+00    0.2                      -34.3259138552
    13 OT CG       0.34E+00    0.3     0.00000491       -34.3259138553 -3.81E-08

  *** SCF run converged in    13 steps ***


  Electronic density on regular grids:        -16.0000001301       -0.0000001301
  Core density on regular grids:               16.0000000000        0.0000000000
  Total charge density on r-space grids:       -0.0000001301
  Total charge density g-space grids:          -0.0000001301

  Overlap energy of the core charge distribution:               0.00005644921867
  Self energy of the core charge distribution:                -88.69430999347530
  Core Hamiltonian energy:                                     26.75822627519943
  Hartree energy:                                              36.31025957978612
  Exchange-correlation energy:                                 -8.69741862586576
  Dispersion energy:                                           -0.00272754021147

  Total energy:                                               -34.32591385534831

  outer SCF iter =    1 RMS gradient =   0.49E-05 energy =        -34.3259138553
  outer SCF loop converged in   1 iterations or   13 steps


  Integrated absolute spin density  :                               0.0000000000
  Ideal and single determinant S**2 :                    0.000000      -0.000000

 !-----------------------------------------------------------------------------!
                     Mulliken Population Analysis

 #  Atom  Element  Kind  Atomic population (alpha,beta) Net charge  Spin moment
       1     O        1         3.088080     3.088080    -0.176159    -0.000000
       2     H        2         0.428070     0.428070     0.143861    -0.000000
       3     H        2         0.484215     0.484215     0.031570    -0.000000
       4     O        1         3.082182     3.082182    -0.164363     0.000000
       5     H        2         0.453437     0.453437     0.093126     0.000000
       6     H        2         0.464017     0.464017     0.071966     0.000000
 # Total charge and spin        8.000000     8.000000    -0.000000     0.000000

 !-----------------------------------------------------------------------------!

 !-----------------------------------------------------------------------------!
                           Hirshfeld Charges

  #Atom  Element  Kind  Ref Charge     Population       Spin moment  Net charge
      1       O      1       6.000    3.535   3.535           -0.000     -1.070
      2       H      2       1.000    0.209   0.209           -0.000      0.582
      3       H      2       1.000    0.256   0.256           -0.000      0.487
      4       O      1       6.000    3.552   3.552            0.000     -1.103
      5       H      2       1.000    0.223   0.223            0.000      0.554
      6       H      2       1.000    0.224   0.224            0.000      0.552

  Total Charge                                                            0.001
 !-----------------------------------------------------------------------------!

 ENERGY| Total FORCE_EVAL ( QS ) energy (a.u.):              -29.859451071374277


 --------  Informations at step =     3 ------------
  Optimization Method        =                 BFGS
  Total Energy               =       -29.8594510714
  Real energy change         =         3.2248263065
  Predicted change in energy =       -25.9899919892
  Scaling factor             =         0.0000138040
  Step size                  =         0.4724315332
  Trust radius               =         0.4724315332
  Decrease in energy         =                   NO
  Used time                  =                4.232

  Convergence check :
  Max. step size             =         0.4724315332
  Conv. limit for step size  =         0.0030000000
  Convergence in step size   =                   NO
  RMS step size              =         0.2233556255
  Conv. limit for RMS step   =         0.0015000000
  Convergence in RMS step    =                   NO
  Max. gradient              =        12.9141020825
  Conv. limit for gradients  =         0.0004500000
  Conv. for gradients        =                   NO
  RMS gradient               =         4.5704473614
  Conv. limit for RMS grad.  =         0.0003000000
  Conv. for gradients        =                   NO
 ---------------------------------------------------

 --------------------------
 OPTIMIZATION STEP:      4
 --------------------------

  Step is scaled; Scaling factor =  0.16201

 Spin 1

 Number of electrons:                                                          8
 Number of occupied orbitals:                                                  8
 Number of molecular orbitals:                                                 8

 Spin 2

 Number of electrons:                                                          8
 Number of occupied orbitals:                                                  8
 Number of molecular orbitals:                                                 8

 Number of orbital functions:                                                 46
 Number of independent orbital functions:                                     46

 Parameters for the always stable predictor-corrector (ASPC) method:

  ASPC order: 2

  B(1) =   2.800000
  B(2) =  -2.800000
  B(3) =   1.200000
  B(4) =  -0.200000

 Parameters for the always stable predictor-corrector (ASPC) method:

  ASPC order: 2

  B(1) =   2.800000
  B(2) =  -2.800000
  B(3) =   1.200000
  B(4) =  -0.200000

 Extrapolation method: ASPC


 SCF WAVEFUNCTION OPTIMIZATION

  ----------------------------------- OT ---------------------------------------
  Minimizer      : CG                  : conjugate gradient
  Preconditioner : FULL_ALL            : diagonalization, state selective
  Precond_solver : DEFAULT
  Line search    : 2PNT                : 2 energies, one gradient
  stepsize       :    0.15000000                  energy_gap     :    0.08000000
  eps_taylor     :   0.10000E-15                  max_taylor     :             4
  ----------------------------------- OT ---------------------------------------

  Step     Update method      Time    Convergence         Total energy    Change
  ------------------------------------------------------------------------------
     1 OT CG       0.15E+00    0.2     0.06376906       -33.8305337353 -3.38E+01
     2 OT LS       0.37E+00    0.2                      -34.1874183460
     3 OT CG       0.37E+00    0.3     0.03269744       -34.3515681953 -5.21E-01
     4 OT LS       0.19E+00    0.2                      -34.3658551494
     5 OT CG       0.19E+00    0.3     0.00983241       -34.4186861098 -6.71E-02
     6 OT LS       0.23E+00    0.2                      -34.4266872689
     7 OT CG       0.23E+00    0.4     0.00307119       -34.4269111382 -8.23E-03
     8 OT LS       0.24E+00    0.3                      -34.4277574198
     9 OT CG       0.24E+00    0.3     0.00067552       -34.4277594770 -8.48E-04
    10 OT LS       0.31E+00    0.2                      -34.4278091672
    11 OT CG       0.31E+00    0.3     0.00019611       -34.4278116631 -5.22E-05
    12 OT LS       0.23E+00    0.2                      -34.4278145086
    13 OT CG       0.23E+00    0.3     0.00008270       -34.4278149170 -3.25E-06
    14 OT LS       0.27E+00    0.2                      -34.4278155804
    15 OT CG       0.27E+00    0.3     0.00001902       -34.4278155950 -6.78E-07
    16 OT LS       0.30E+00    0.2                      -34.4278156350
    17 OT CG       0.30E+00    0.3     0.00000585       -34.4278156355 -4.05E-08
    18 OT LS       0.30E+00    0.2                      -34.4278156393
    19 OT CG       0.30E+00    0.3     0.00000141       -34.4278156393 -3.80E-09

  *** SCF run converged in    19 steps ***


  Electronic density on regular grids:        -15.9999999418        0.0000000582
  Core density on regular grids:               16.0000000000       -0.0000000000
  Total charge density on r-space grids:        0.0000000582
  Total charge density g-space grids:           0.0000000582

  Overlap energy of the core charge distribution:               0.00000008809613
  Self energy of the core charge distribution:                -88.69430999347530
  Core Hamiltonian energy:                                     25.96907438529272
  Hartree energy:                                              36.79490363933623
  Exchange-correlation energy:                                 -8.49478532829866
  Dispersion energy:                                           -0.00269843026059

  Total energy:                                               -34.42781563930948

  outer SCF iter =    1 RMS gradient =   0.14E-05 energy =        -34.4278156393
  outer SCF loop converged in   1 iterations or   19 steps


  Integrated absolute spin density  :                               0.0000000000
  Ideal and single determinant S**2 :                    0.000000      -0.000000

 !-----------------------------------------------------------------------------!
                     Mulliken Population Analysis

 #  Atom  Element  Kind  Atomic population (alpha,beta) Net charge  Spin moment
       1     O        1         3.148010     3.148010    -0.296020     0.000000
       2     H        2         0.425442     0.425442     0.149116     0.000000
       3     H        2         0.428129     0.428129     0.143743    -0.000000
       4     O        1         3.138395     3.138395    -0.276791     0.000000
       5     H        2         0.426163     0.426163     0.147673     0.000000
       6     H        2         0.433861     0.433861     0.132278     0.000000
 # Total charge and spin        8.000000     8.000000    -0.000000     0.000000

 !-----------------------------------------------------------------------------!

 !-----------------------------------------------------------------------------!
                           Hirshfeld Charges

  #Atom  Element  Kind  Ref Charge     Population       Spin moment  Net charge
      1       O      1       6.000    3.582   3.582            0.000     -1.164
      2       H      2       1.000    0.209   0.209            0.000      0.581
      3       H      2       1.000    0.203   0.203           -0.000      0.594
      4       O      1       6.000    3.582   3.582            0.000     -1.163
      5       H      2       1.000    0.215   0.215            0.000      0.570
      6       H      2       1.000    0.208   0.208            0.000      0.584

  Total Charge                                                            0.001
 !-----------------------------------------------------------------------------!

 ENERGY| Total FORCE_EVAL ( QS ) energy (a.u.):              -31.162632709839055


 --------  Informations at step =     4 ------------
  Optimization Method        =                 BFGS
  Total Energy               =       -31.1626327098
  Real energy change         =        -1.3031816385
  Predicted change in energy =        -2.5807407989
  Scaling factor             =         0.1620058773
  Step size                  =         0.4724315332
  Trust radius               =         0.4724315332
[...]
  B(2) =  -3.428571
  B(3) =   1.928571
  B(4) =  -0.571429
  B(5) =   0.071429

 Parameters for the always stable predictor-corrector (ASPC) method:

  ASPC order: 3

  B(1) =   3.000000
  B(2) =  -3.428571
  B(3) =   1.928571
  B(4) =  -0.571429
  B(5) =   0.071429

 Extrapolation method: ASPC


 SCF WAVEFUNCTION OPTIMIZATION

  ----------------------------------- OT ---------------------------------------
  Minimizer      : CG                  : conjugate gradient
  Preconditioner : FULL_ALL            : diagonalization, state selective
  Precond_solver : DEFAULT
  Line search    : 2PNT                : 2 energies, one gradient
  stepsize       :    0.15000000                  energy_gap     :    0.08000000
  eps_taylor     :   0.10000E-15                  max_taylor     :             4
  ----------------------------------- OT ---------------------------------------

  Step     Update method      Time    Convergence         Total energy    Change
  ------------------------------------------------------------------------------
     1 OT CG       0.15E+00    0.3     0.00003641       -34.4530403278 -3.45E+01
     2 OT LS       0.35E+00    0.2                      -34.4530404425
     3 OT CG       0.35E+00    0.3     0.00001997       -34.4530404972 -1.69E-07
     4 OT LS       0.24E+00    0.2                      -34.4530405254
     5 OT CG       0.24E+00    0.3     0.00000181       -34.4530405324 -3.53E-08

  *** SCF run converged in     5 steps ***


  Electronic density on regular grids:        -15.9999997601        0.0000002399
  Core density on regular grids:               16.0000000000       -0.0000000000
  Total charge density on r-space grids:        0.0000002399
  Total charge density g-space grids:           0.0000002399

  Overlap energy of the core charge distribution:               0.00000006146569
  Self energy of the core charge distribution:                -88.69430999347530
  Core Hamiltonian energy:                                     25.88832287549234
  Hartree energy:                                              36.83977952344898
  Exchange-correlation energy:                                 -8.48422276718649
  Dispersion energy:                                           -0.00261023218668

  Total energy:                                               -34.45304053244146

  outer SCF iter =    1 RMS gradient =   0.18E-05 energy =        -34.4530405324
  outer SCF loop converged in   1 iterations or    5 steps


  Integrated absolute spin density  :                               0.0000000000
  Ideal and single determinant S**2 :                    0.000000       0.000000

 !-----------------------------------------------------------------------------!
                     Mulliken Population Analysis

 #  Atom  Element  Kind  Atomic population (alpha,beta) Net charge  Spin moment
       1     O        1         3.166194     3.166194    -0.332388     0.000000
       2     H        2         0.439163     0.439163     0.121674     0.000000
       3     H        2         0.431947     0.431947     0.136105     0.000000
       4     O        1         3.115595     3.115595    -0.231191     0.000000
       5     H        2         0.425203     0.425203     0.149595    -0.000000
       6     H        2         0.421897     0.421897     0.156205     0.000000
 # Total charge and spin        8.000000     8.000000     0.000000     0.000000

 !-----------------------------------------------------------------------------!

 !-----------------------------------------------------------------------------!
                           Hirshfeld Charges

  #Atom  Element  Kind  Ref Charge     Population       Spin moment  Net charge
      1       O      1       6.000    3.585   3.585            0.000     -1.169
      2       H      2       1.000    0.222   0.222            0.000      0.556
      3       H      2       1.000    0.200   0.200            0.000      0.601
      4       O      1       6.000    3.571   3.571           -0.000     -1.143
      5       H      2       1.000    0.216   0.216           -0.000      0.568
      6       H      2       1.000    0.206   0.206           -0.000      0.588

  Total Charge                                                            0.001
 !-----------------------------------------------------------------------------!

 ENERGY| Total FORCE_EVAL ( QS ) energy (a.u.):              -34.453030746897554


 -------------------------------------------------------------------------------
 -                                                                             -
 -                                DBCSR STATISTICS                             -
 -                                                                             -
 -------------------------------------------------------------------------------
 COUNTER                                    TOTAL       BLAS       SMM       ACC
 flops     5 x     8 x     8              3640320     100.0%      0.0%      0.0%
 flops    10 x     8 x     5              6297600     100.0%      0.0%      0.0%
 flops     5 x     5 x     8              7264000     100.0%      0.0%      0.0%
 flops    10 x     8 x     8              7280640     100.0%      0.0%      0.0%
 flops     5 x    13 x     8              7554560     100.0%      0.0%      0.0%
 flops    13 x     5 x     8              7554560     100.0%      0.0%      0.0%
 flops     8 x     8 x     8              7598080     100.0%      0.0%      0.0%
 flops    10 x     8 x    13              8186880     100.0%      0.0%      0.0%
 flops     8 x     8 x     5             10675200     100.0%      0.0%      0.0%
 flops     8 x     8 x    13             13877760     100.0%      0.0%      0.0%
 flops    13 x    13 x     8             14731392     100.0%      0.0%      0.0%
 flops    31 x     8 x     5             19522560     100.0%      0.0%      0.0%
 flops    31 x     8 x     8             22569984     100.0%      0.0%      0.0%
 flops    31 x     8 x    13             25379328     100.0%      0.0%      0.0%
 flops     5 x     8 x     5             29075200     100.0%      0.0%      0.0%
 flops    13 x     8 x     5             33704320     100.0%      0.0%      0.0%
 flops     5 x     8 x    13             37797760     100.0%      0.0%      0.0%
 flops    13 x     8 x    13             43815616     100.0%      0.0%      0.0%
 flops inhomo. stacks                           0       0.0%      0.0%      0.0%
 flops total                       306.525760E+06     100.0%      0.0%      0.0%
 flops max/rank                    208.670560E+06     100.0%      0.0%      0.0%
 matmuls inhomo. stacks                         0       0.0%      0.0%      0.0%
 matmuls total                             268900     100.0%      0.0%      0.0%
 number of processed stacks                211208     100.0%      0.0%      0.0%
 average stack size                                     1.3       0.0       0.0
 marketing flops                   331.760544E+06
 -------------------------------------------------------------------------------
 # multiplications                          25263
 max memory usage/rank             233.549824E+06
 # max total images/rank                        5
 # max 3D layers                                1
 # MPI messages exchanged                63662760
 MPI messages size (bytes):
  total size                         1.638999E+09
  min size                           0.000000E+00
  max size                           3.224000E+03
  average size                      25.745012E+00
 MPI breakdown and total messages size (bytes):
             size <=      128            61443216                        0
       128 < size <=     8192             2219544               1638998496
      8192 < size <=    32768                   0                        0
     32768 < size <=   131072                   0                        0
    131072 < size <=  4194304                   0                        0
   4194304 < size <= 16777216                   0                        0
  16777216 < size                               0                        0
 -------------------------------------------------------------------------------

 *** WARNING in dbcsr/mm/dbcsr_mm.F:268 :: Using a non-square number of ***
 *** MPI ranks might lead to poor performance.                          ***
 *** Used ranks: 40                                                     ***
 *** Suggested: 36 81                                                   ***

 -------------------------------------------------------------------------------
 
 MEMORY| Estimated peak process memory [MiB]                                 223

 -------------------------------------------------------------------------------
 ----                             MULTIGRID INFO                            ----
 -------------------------------------------------------------------------------
 count for grid        1:         347608          cutoff [a.u.]          150.00
 count for grid        2:         172651          cutoff [a.u.]           50.00
 count for grid        3:         210543          cutoff [a.u.]           16.67
 count for grid        4:         127824          cutoff [a.u.]            5.56
 count for grid        5:            600          cutoff [a.u.]            1.85
 total gridlevel count  :         859226

 -------------------------------------------------------------------------------
 -                                                                             -
 -                         MESSAGE PASSING PERFORMANCE                         -
 -                                                                             -
 -------------------------------------------------------------------------------

 ROUTINE             CALLS      AVE VOLUME [Bytes]
 MP_Group             2957
 MP_Bcast            10830                  14843.
 MP_Allreduce       160765                     14.
 MP_Sync             11481
 MP_Alltoall        144681                  26439.
 MP_SendRecv         11544                    244.
 MP_ISendRecv       531336                  12217.
 MP_Wait           2967184
 MP_comm_split         876
 MP_ISend          3366972                    113.
 MP_IRecv          3351570                     94.
 MP_Recv               584                    288.
 MP_Memory         3186674
 -------------------------------------------------------------------------------


 -------------------------------------------------------------------------------
 -                                                                             -
 -                           R E F E R E N C E S                               -
 -                                                                             -
 -------------------------------------------------------------------------------
 
 CP2K version 7.0 (Development Version), the CP2K developers group (2018).
 CP2K is freely available from https://www.cp2k.org/ .

 Schuett, Ole; Messmer, Peter; Hutter, Juerg; VandeVondele, Joost. 
 Electronic Structure Calculations on Graphics Processing Units, John Wiley & Sons, Ltd, 173-190 (2016). 
 GPU-Accelerated Sparse Matrix-Matrix Multiplication for Linear Scaling Density Functional Theory.
 http://dx.doi.org/10.1002/9781118670712.ch8


 Borstnik, U; VandeVondele, J; Weber, V; Hutter, J. 
 PARALLEL COMPUTING, 40 (5-6), 47-58 (2014). 
 Sparse matrix multiplication: The distributed block-compressed sparse
 row library.
 http://dx.doi.org/10.1016/j.parco.2014.03.012


 Hutter, J; Iannuzzi, M; Schiffmann, F; VandeVondele, J. 
 WILEY INTERDISCIPLINARY REVIEWS-COMPUTATIONAL MOLECULAR SCIENCE, 4 (1), 15-25 (2014). 
 CP2K: atomistic simulations of condensed matter systems.
 http://dx.doi.org/10.1002/wcms.1159


 Grimme, S; Ehrlich, S; Goerigk, L. 
 JOURNAL OF COMPUTATIONAL CHEMISTRY, 32, 1456 (2011). 
 Effect of the damping function in dispersion corrected density functional theory.
 http://dx.doi.org/10.1002/jcc.21759


 Grimme, S; Antony, J; Ehrlich, S; Krieg, H. 
 JOURNAL OF CHEMICAL PHYSICS, 132 (15), 154104 (2010). 
 A consistent and accurate ab initio parametrization of density
 functional dispersion correction (DFT-D) for the 94 elements H-Pu.
 http://dx.doi.org/10.1063/1.3382344


 VandeVondele, J; Hutter, J. 
 JOURNAL OF CHEMICAL PHYSICS, 127 (11), 114105 (2007). 
 Gaussian basis sets for accurate calculations on molecular systems in
 gas and condensed phases.
 http://dx.doi.org/10.1063/1.2770708


 Krack, M. 
 THEORETICAL CHEMISTRY ACCOUNTS, 114 (1-3), 145-152 (2005). 
 Pseudopotentials for H to Kr optimized for gradient-corrected
 exchange-correlation functionals.
 http://dx.doi.org/10.1007/s00214-005-0655-y


 VandeVondele, J; Krack, M; Mohamed, F; Parrinello, M; Chassaing, T;
 Hutter, J. COMPUTER PHYSICS COMMUNICATIONS, 167 (2), 103-128 (2005). 
 QUICKSTEP: Fast and accurate density functional calculations using a
 mixed Gaussian and plane waves approach.
 http://dx.doi.org/10.1016/j.cpc.2004.12.014


 Frigo, M; Johnson, SG. 
 PROCEEDINGS OF THE IEEE, 93 (2), 216-231 (2005). 
 The design and implementation of FFTW3.
 http://dx.doi.org/10.1109/JPROC.2004.840301


 Kolafa, J. 
 JOURNAL OF COMPUTATIONAL CHEMISTRY, 25 (3), 335-342 (2004). 
 Time-reversible always stable predictor-corrector method for molecular dynamics of polarizable molecules.
 http://dx.doi.org/10.1002/jcc.10385


 VandeVondele, J; Hutter, J. 
 JOURNAL OF CHEMICAL PHYSICS, 118 (10), 4365-4369 (2003). 
 An efficient orbital transformation method for electronic structure
 calculations.
 http://dx.doi.org/10.1063/1.1543154


 Hartwigsen, C; Goedecker, S; Hutter, J. 
 PHYSICAL REVIEW B, 58 (7), 3641-3662 (1998). 
 Relativistic separable dual-space Gaussian pseudopotentials from H to Rn.
 http://dx.doi.org/10.1103/PhysRevB.58.3641


 Lippert, G; Hutter, J; Parrinello, M. 
 MOLECULAR PHYSICS, 92 (3), 477-487 (1997). 
 A hybrid Gaussian and plane wave density functional scheme.
 http://dx.doi.org/10.1080/002689797170220


 Perdew, JP; Burke, K; Ernzerhof, M. 
 PHYSICAL REVIEW LETTERS, 77 (18), 3865-3868 (1996). 
 Generalized gradient approximation made simple.
 http://dx.doi.org/10.1103/PhysRevLett.77.3865


 Goedecker, S; Teter, M; Hutter, J. 
 PHYSICAL REVIEW B, 54 (3), 1703-1710 (1996). 
 Separable dual-space Gaussian pseudopotentials.
 http://dx.doi.org/10.1103/PhysRevB.54.1703


 -------------------------------------------------------------------------------
 -                                                                             -
 -                                T I M I N G                                  -
 -                                                                             -
 -------------------------------------------------------------------------------
 SUBROUTINE                       CALLS  ASD         SELF TIME        TOTAL TIME
                                MAXIMUM       AVERAGE  MAXIMUM  AVERAGE  MAXIMUM
 CP2K                                 1  1.0    0.031    0.048  298.777  298.778
 cp_geo_opt                           1  2.0    0.001    0.002  298.368  298.371
 geoopt_bfgs                          1  3.0    0.011    0.016  298.367  298.370
 cp_eval_at                          75  4.0    0.008    0.012  264.239  264.260
 qs_forces                           74  5.0    0.006    0.006  261.413  261.413
 qs_energies                         75  6.0    0.006    0.025  245.022  245.047
 scf_env_do_scf                      75  7.0    0.003    0.009  214.075  214.076
 scf_env_do_scf_inner_loop          759  8.0    0.027    0.051  202.894  202.902
 rs_pw_transfer                   13624 12.9    0.054    0.073  136.446  157.546
 mp_waitall_1                   2967184 16.7  135.424  157.233  135.424  157.233
 qs_rho_update_rho                  834  9.1    0.006    0.031  149.524  149.577
 calculate_rho_elec                1668 10.1   20.963  132.113  149.519  149.572
 density_rs2pw                     1668 11.1    0.053    0.056  127.726  148.699
 rs_pw_transfer_RS2PW_150          1818 12.9    1.139    1.242  124.298  145.426
 dbcsr_multiply_generic           25263 13.7    0.881    0.972   54.453   57.320
 rebuild_ks_matrix                  833  9.7    0.002    0.002   52.052   52.098
 qs_ks_build_kohn_sham_matrix       833 10.7    0.064    0.068   52.049   52.095
 sum_up_and_integrate               491 11.5    0.041    0.051   28.862   42.560
 integrate_v_rspace                 982 12.5    5.167   32.632   28.820   42.522
 qs_scf_new_mos                     759  9.0    0.004    0.004   37.746   37.795
 qs_scf_loop_do_ot                  759 10.0    0.005    0.008   37.742   37.791
 qs_ks_update_qs_env                834  9.0    0.006    0.007   35.270   35.302
 ot_scf_mini                        759 11.0    0.031    0.041   35.206   35.231
 mp_sum_dm                         3034  6.1   28.865   29.610   28.865   29.610
 virial_evaluate                     73  4.0    0.000    0.000   28.817   29.561
 pw_transfer                      26076 13.3    1.262    1.334   23.815   26.552
 potential_pw2rs                    982 13.5    0.032    0.034   23.583   26.186
 fft_wrap_pw1pw2                  24410 14.3    0.074    0.090   22.534   25.326
 fft3d_ps                         24410 16.3    1.385    1.823   21.722   24.561
 fft_wrap_pw1pw2_150              13810 15.6    0.337    0.417   20.702   23.473
 write_restart                       74  4.0    0.587   23.192    0.593   23.201
 mp_sum_l                        118244 14.8   18.835   21.836   18.835   21.836
 mp_alltoall_z22v                 24410 18.3   18.629   21.729   18.629   21.729
 multiply_cannon                  25263 14.7    4.579    4.866   19.607   20.513
 ot_mini                            759 12.0    0.004    0.004   20.019   20.038
 yz_to_x                           5671 17.2    0.113    0.171   16.708   19.627
 qs_ot_get_derivative               834 13.0    0.005    0.005   16.961   16.997
 qs_ks_update_qs_env_forces          74  6.0    0.000    0.000   16.870   16.877
 init_scf_run                        75  7.0    0.002    0.005   16.157   16.158
 scf_env_initial_rho_setup           75  8.0    0.001    0.003   16.155   16.156
 wfi_extrapolate                     75  9.0    0.008    0.018   15.792   15.792
 mp_sum_d                         20950 13.8   11.466   13.283   11.466   13.283
 make_m2s                         50526 14.7    0.906    0.987   12.815   13.203
 qs_energies_init_hamiltonians       75  7.0    0.001    0.001   12.028   12.060
 init_scf_loop                       75  8.0    0.002    0.002   11.027   11.036
 calculate_dispersion_pairpot        75  8.0    1.160    8.801    9.556    9.567
 qs_ot_get_derivative_taylor        662 14.0    0.013    0.015    9.184    9.240
 make_images                      50526 15.7    1.078    1.198    8.944    9.199
 qs_ot_get_p                       1668 11.8    0.006    0.007    8.372    8.453
 rs_pw_transfer_PW2RS_150          1206 14.8    0.932    0.996    7.834    7.958
 write_trajectory                   148  4.0    0.022    0.772    0.183    7.179
 qs_vxc_create                      833 11.7    0.010    0.011    6.589    6.601
 write_particle_coordinates          74  5.0    0.160    6.408    0.160    6.408
 -------------------------------------------------------------------------------

 The number of warnings for this run is : 1
 
 -------------------------------------------------------------------------------
  **** **** ******  **  PROGRAM ENDED AT                 2019-07-08 17:46:20.946
 ***** ** ***  *** **   PROGRAM RAN ON            blg4617.int.ets1.calculquebec.
 **    ****   ******    PROGRAM RAN BY                                       rzk
 ***** **    ** ** **   PROGRAM PROCESS ID                                148238
  **** **  *******  **  PROGRAM STOPPED IN /lustre04/scratch/rzk/rzk/GaN-carbene
                                           /443-adatoms-both-2x2/09-BondBreaking
                                           -CH/02-0401-CH-to-NTop-PES/PRACTICE
