     156
 i =       46, E =     -6136.6621623609
 Ga         0.0009350973       -0.0241371416       -0.5381129111
  N         0.0037232780        1.8499499811        0.6007395850
 Ga         0.0034239389        1.8197475590        2.6328839066
  N         0.0003227245       -0.0238101918        3.2635566088
 Ga         0.0008407767       -0.0229002950        5.2538363479
  N         0.0039302099        1.8518728389        5.8411367301
 Ga         0.0053042243        1.8493247635        7.8402327411
  N         0.0042374833       -0.0234353300        8.4409509752
 Ga         0.0072150136       -0.0241355860       10.4385054782
  N         0.0058799703        1.8483060257       11.0411947369
 Ga         0.0133546061        1.8446973144       13.0350992830
  N         0.0216662380       -0.0275013705       13.6296720173
 Ga         0.0404953932       -0.0511204754       15.6228411106
  N         0.0335794054        1.8319916701       16.2007502546
 Ga         0.0584638781        1.8146650407       18.2555912082
  N         0.0493616044       -0.0580655557       18.6568461400
 Ga        -1.6193702806        2.7813796170        0.3188368660
  N        -1.6200978885        4.6512917094        0.6016794044
 Ga        -1.5920857578        4.6673594546        2.6321719294
  N        -1.6190461635        2.7817143581        3.2226561132
 Ga        -1.6185490946        2.7827594607        5.2337262657
  N        -1.6182094164        4.6526858188        5.8398965032
 Ga        -1.6168346965        4.6524835378        7.8380004784
  N        -1.6173060808        2.7823082963        8.4441201172
 Ga        -1.6166747938        2.7836942695       10.4396366626
  N        -1.6176598958        4.6537867019       11.0473430508
 Ga        -1.6211498269        4.6523357489       13.0445459012
  N        -1.6037525014        2.7833611581       13.6631569695
 Ga        -1.5994298591        2.7951509647       15.6721613707
  N        -1.5903596132        4.6606149761       16.3034104241
 Ga        -1.4951102056        4.6537704704       18.3841454089
  N        -1.5320564702        2.7552523823       18.7100321538
 Ga        -3.2394771371        5.5864597019        0.3191669364
  N        -3.2329761390        7.4574954276        0.6010795487
 Ga        -3.2603885039        7.4726365872        2.6330096705
  N        -3.2389248720        5.5871576891        3.2229889318
 Ga        -3.2387001357        5.5877390445        5.2341366994
  N        -3.2326458606        7.4581689644        5.8394166447
 Ga        -3.2333325949        7.4581467545        7.8375530687
  N        -3.2374667107        5.5873863270        8.4407250427
 Ga        -3.2370242073        5.5854527892       10.4350190897
  N        -3.2285665054        7.4544247237       11.0447011594
 Ga        -3.2198639792        7.4479437677       13.0423154458
  N        -3.2386296757        5.5809984600       13.6811204964
 Ga        -3.2191522763        5.5757351426       15.7176404598
  N        -3.1976657150        7.4400474811       16.2757395862
 Ga        -3.1839556775        7.4029200064       18.3369359771
  N        -3.1311658465        5.5467306123       18.8811322636
 Ga         3.2472094404       -0.0238293859        0.3191906652
  N         3.2451241756        1.8459028039        0.6019712259
 Ga         3.2734134835        1.8623211027        2.6322063183
  N         3.2463141613       -0.0235323360        3.2227301851
 Ga         3.2473315212       -0.0224749709        5.2340384730
  N         3.2476847915        1.8476782879        5.8403143874
 Ga         3.2492120333        1.8475002274        7.8387536183
  N         3.2467681245       -0.0233375681        8.4405325090
 Ga         3.2496323697       -0.0241478461       10.4343320731
  N         3.2560500496        1.8459894389       11.0419706350
 Ga         3.2638592525        1.8390380234       13.0383151554
  N         3.2545635663       -0.0285847137       13.6581845999
 Ga         3.2650885766       -0.0338755754       15.6681203346
  N         3.2914885531        1.8311447777       16.2511052832
 Ga         3.3383614625        1.8295031235       18.2912825724
  N         3.3105492126       -0.0619749708       18.7374584720
 Ga         1.6266076303        2.7819706728        0.3188398014
  N         1.6326536792        4.6518872554        0.6020213562
 Ga         1.6049469858        4.6675056731        2.6325291995
  N         1.6263172407        2.7819053947        3.2234985192
 Ga         1.6273823460        2.7832993687        5.2350620341
  N         1.6324915630        4.6530606885        5.8428635852
 Ga         1.6322611884        4.6528148608        7.8430383370
  N         1.6285662063        2.7804376225        8.4425570406
 Ga         1.6308020199        2.7795350024       10.4379100650
  N         1.6267958217        4.6505946929       11.0331460400
 Ga         1.6233294494        4.6502166276       13.0270278394
  N         1.6389136600        2.7717455065       13.6317319724
 Ga         1.6690640044        2.7622107602       15.6245887991
  N         1.6234549175        4.6445452443       16.1238398565
 Ga         1.6963629739        4.6087715954       18.1052448009
  N         1.6927193615        2.7586310998       18.5901113432
 Ga         0.0069270879        5.5868146842       -0.5499373950
  N         0.0100308999        7.4612877570        0.6018345483
 Ga         0.0097907226        7.4304283033        2.6324930119
  N         0.0066883057        5.5870478466        3.2640568069
 Ga         0.0078435375        5.5880679652        5.2540212602
  N         0.0106174438        7.4627426492        5.8411546647
 Ga         0.0111951187        7.4609980562        7.8402311072
  N         0.0062187016        5.5873036081        8.4394501848
 Ga         0.0057096262        5.5867322943       10.4361240775
  N         0.0127822359        7.4601753735       11.0345938549
 Ga         0.0124580575        7.4631131789       13.0265299569
  N         0.0000605514        5.5923990818       13.6240943723
 Ga         0.0009245886        5.5811336021       15.6186797689
  N         0.0413418333        7.4498970832       16.2498831742
 Ga         0.0669130893        7.4087101641       18.3346459047
  N         0.1802005702        5.5507872408       18.8699706165
 Ga         6.4908278310       -0.0233087084        0.3186936938
  N         6.4980127323        1.8463707788        0.6018948994
 Ga         6.4698269578        1.8622728227        2.6320559162
  N         6.4919580066       -0.0234004214        3.2235094846
 Ga         6.4929202187       -0.0223516949        5.2351841314
  N         6.4978194050        1.8482217744        5.8408331242
 Ga         6.4973238092        1.8484610675        7.8393058760
  N         6.4927136291       -0.0211717543        8.4432721590
 Ga         6.4951710231       -0.0177317697       10.4392727118
  N         6.4977594627        1.8540990908       11.0485553488
 Ga         6.5017224105        1.8589141241       13.0471070461
  N         6.4904302514       -0.0142573128       13.6236191938
 Ga         6.5073547103       -0.0093250031       15.6235228874
  N         6.5151165821        1.8558033325       16.2437666774
 Ga         6.5799737561        1.8285895769       18.2961265253
  N         6.5790893364       -0.0770475532       18.6561479462
 Ga         4.8722399905        2.7827194755       -0.5498435812
  N         4.8750608953        4.6564068501        0.6027038471
 Ga         4.8745588085        4.6251338793        2.6326239735
  N         4.8719999592        2.7818864624        3.2638756273
 Ga         4.8727774839        2.7834175609        5.2534789496
  N         4.8752532183        4.6573416067        5.8413620741
 Ga         4.8746437717        4.6559530150        7.8404869665
  N         4.8734024399        2.7824632269        8.4404965195
 Ga         4.8765070406        2.7848546446       10.4375907661
  N         4.8805766293        4.6540264985       11.0447549119
 Ga         4.8801700461        4.6549634629       13.0450803793
  N         4.8750632825        2.7862827634       13.6584030928
 Ga         4.8811563305        2.7797052570       15.6799405779
  N         4.8435347427        4.6701277413       16.1384829243
 Ga         4.9637929582        4.6075017403       19.1054603055
  N         4.9606136927        2.7217142925       18.8223384397
 Ga         3.2527987738        5.5859164366        0.3189249566
  N         3.2517906682        7.4568840053        0.6007835887
 Ga         3.2791943794        7.4725348783        2.6327838784
  N         3.2521382383        5.5874888601        3.2239653096
 Ga         3.2528125912        5.5884543541        5.2356658933
  N         3.2534676231        7.4585710097        5.8431449173
 Ga         3.2554772352        7.4585311811        7.8434969414
  N         3.2536158745        5.5877657250        8.4467279400
 Ga         3.2550956167        5.5881818909       10.4459482376
  N         3.2588934896        7.4651834076       11.0345142320
 Ga         3.2588506256        7.4688188629       13.0295753666
  N         3.2448908437        5.5914912017       13.5872266026
 Ga         3.2462645649        5.6001075684       15.5825781350
  N         3.2740690049        7.4706183243       16.1279436658
 Ga         3.3342877114        7.4457810812       18.1330952671
  N         3.4390817239        5.4950788475       18.3278509259
  O         1.5712380037        5.0658554232       21.1996556032
  H         0.9952490748        5.3903001710       20.4187400526
  C         0.8781963216        3.9287834450       21.7505374869
  H         0.4482486996        3.2998280531       20.9538502305
  H         1.5950367293        3.3252911387       22.3204092935
  H         0.0734121572        4.2608583676       22.4227137762
  O         4.1990450885        4.8130551670       21.0374426565
  H         3.1771898091        4.9113675863       21.0374217351
  C         4.5912276864        3.8333258151       22.0327389864
  H         4.3085121643        2.8183049034       21.7204747662
  H         5.6811306234        3.8889780476       22.1360545528
  H         4.1202389992        4.0879482075       22.9905625938
     156
 i =       88, E =     -6136.6619176221
 Ga         0.0079998957       -0.0232263933       -0.5460476878
  N         0.0110068219        1.8514357810        0.6063571499
 Ga         0.0106062832        1.8203866011        2.6362567686
  N         0.0076675174       -0.0230291925        3.2688220847
 Ga         0.0081298765       -0.0219178867        5.2585075138
  N         0.0111314092        1.8527684449        5.8474964241
 Ga         0.0124799117        1.8506018718        7.8461511655
  N         0.0113033506       -0.0223336018        8.4480589142
 Ga         0.0139309697       -0.0225287242       10.4454091463
  N         0.0122248044        1.8499740519       11.0486040494
 Ga         0.0201593863        1.8460945458       13.0418099032
  N         0.0280357557       -0.0261022542       13.6366843984
 Ga         0.0478001649       -0.0494978830       15.6290084230
  N         0.0417070433        1.8312809906       16.2100762833
 Ga         0.0715415187        1.8052878690       18.2669440336
  N         0.0614343972       -0.0664137705       18.6699645401
 Ga        -1.6112992060        2.7819426072        0.3229123401
  N        -1.6130529179        4.6517741295        0.6066782503
 Ga        -1.5849450220        4.6679760523        2.6363121480
  N        -1.6117873443        2.7824279555        3.2280352023
 Ga        -1.6111287786        2.7837282312        5.2383937697
  N        -1.6110677530        4.6535443758        5.8461341388
 Ga        -1.6100066875        4.6537472076        7.8438035204
  N        -1.6105745814        2.7835715254        8.4512106467
 Ga        -1.6103943149        2.7854181322       10.4464593866
  N        -1.6118413263        4.6552265425       11.0558561989
 Ga        -1.6150606505        4.6532763649       13.0531147480
  N        -1.5964004353        2.7843758304       13.6720944923
 Ga        -1.5906694318        2.7955031880       15.6803070892
  N        -1.5838743538        4.6599264671       16.3119480352
 Ga        -1.4822022631        4.6467148548       18.3889165092
  N        -1.5139794887        2.7495486425       18.7343947616
 Ga        -3.2318910392        5.5876928930        0.3229402860
  N        -3.2251240130        7.4577359142        0.6063228760
 Ga        -3.2532391509        7.4733718583        2.6361463328
  N        -3.2316629184        5.5879264298        3.2282224208
 Ga        -3.2312531582        5.5886946647        5.2386982329
  N        -3.2254002043        7.4591353396        5.8455777501
 Ga        -3.2260886487        7.4594859431        7.8433339374
  N        -3.2308840402        5.5886233866        8.4476664308
 Ga        -3.2304522812        5.5868862693       10.4415976088
  N        -3.2222442827        7.4553494496       11.0535502877
 Ga        -3.2134433914        7.4491028289       13.0512427473
  N        -3.2336823461        5.5810531605       13.6925595090
 Ga        -3.2117580123        5.5769852448       15.7285417110
  N        -3.1897333498        7.4416395730       16.2834419351
 Ga        -3.1720217854        7.3966328599       18.3457599558
  N        -3.1185477244        5.5381921163       18.8876007181
 Ga         3.2540449226       -0.0237134281        0.3230856039
  N         3.2529763520        1.8467444557        0.6056337814
 Ga         3.2806640843        1.8627882913        2.6360715686
  N         3.2536017843       -0.0228242249        3.2277553585
 Ga         3.2545542841       -0.0218327700        5.2383756442
  N         3.2549814764        1.8484846907        5.8461527550
 Ga         3.2561342752        1.8485765903        7.8442470154
  N         3.2535454048       -0.0218462503        8.4483460318
 Ga         3.2559435693       -0.0225803930       10.4424170308
  N         3.2630165530        1.8477707700       11.0515503147
 Ga         3.2712239085        1.8407247014       13.0481663976
  N         3.2611530513       -0.0275566161       13.6667050660
 Ga         3.2747894599       -0.0348396480       15.6766902731
  N         3.3007945790        1.8316121550       16.2581892948
 Ga         3.3573522034        1.8183789341       18.2982001638
  N         3.3243805204       -0.0713681683       18.7446557868
 Ga         1.6333050099        2.7823586510        0.3229824534
  N         1.6402772178        4.6523989479        0.6067090401
 Ga         1.6121813607        4.6681451217        2.6364809910
  N         1.6337941908        2.7824858338        3.2285473710
 Ga         1.6344297290        2.7840588572        5.2394297352
  N         1.6396832616        4.6538858335        5.8487647501
 Ga         1.6390737054        4.6538339042        7.8484054915
  N         1.6358402020        2.7816780437        8.4498527898
 Ga         1.6374942752        2.7809457562       10.4451138309
  N         1.6329728378        4.6521907082       11.0402812103
 Ga         1.6287246808        4.6507573123       13.0331272880
  N         1.6454119652        2.7726608975       13.6395027464
 Ga         1.6760100555        2.7614502914       15.6322651531
  N         1.6295232692        4.6451839323       16.1257227393
 Ga         1.7127205351        4.6032594603       18.1040720274
  N         1.7103045149        2.7513790990       18.5769397495
 Ga         0.0137981687        5.5871072375       -0.5453602872
  N         0.0174057459        7.4622050018        0.6063668951
 Ga         0.0170325929        7.4311100111        2.6363235638
  N         0.0139371722        5.5877830899        3.2692682070
 Ga         0.0148650107        5.5889309414        5.2590082356
  N         0.0177912216        7.4636553554        5.8474864816
 Ga         0.0178885569        7.4624015816        7.8462444104
  N         0.0130078084        5.5885210218        8.4465657433
 Ga         0.0115556404        5.5880883382       10.4431856856
  N         0.0192398789        7.4616753424       11.0421746072
 Ga         0.0190649030        7.4646584953       13.0335382340
  N         0.0060134353        5.5935368179       13.6306194992
 Ga         0.0063491685        5.5826048286       15.6245939453
  N         0.0512964095        7.4496992727       16.2565449525
 Ga         0.0804787122        7.3986483581       18.3420581940
  N         0.1968054397        5.5409866506       18.8744427474
 Ga         6.4986490293       -0.0229468897        0.3228166738
  N         6.5052331420        1.8472907330        0.6060826675
 Ga         6.4774609706        1.8629588361        2.6362508832
  N         6.4991320051       -0.0226353412        3.2286814238
 Ga         6.5001227443       -0.0214957789        5.2396470624
  N         6.5051563575        1.8491399387        5.8466881205
 Ga         6.5039975665        1.8498425520        7.8447353320
  N         6.4995953932       -0.0196100436        8.4502569987
 Ga         6.5013270105       -0.0156702412       10.4460172729
  N         6.5041007645        1.8562247697       11.0574159593
 Ga         6.5084939292        1.8611956856       13.0558101902
  N         6.4967684873       -0.0115784824       13.6318779350
 Ga         6.5139884965       -0.0059995454       15.6316512168
  N         6.5235538628        1.8589341700       16.2553868790
 Ga         6.5999217716        1.8223694436       18.3090466264
  N         6.5941583624       -0.0871291007       18.6631967039
 Ga         4.8805619837        2.7831721230       -0.5423922614
  N         4.8825658697        4.6566182392        0.6064418110
 Ga         4.8821688347        4.6259346136        2.6366123488
  N         4.8793063794        2.7825314055        3.2684283766
 Ga         4.8802198302        2.7842365504        5.2579623440
  N         4.8824994620        4.6582532315        5.8471116499
 Ga         4.8813395184        4.6570024011        7.8457404919
  N         4.8801621634        2.7836903783        8.4475266432
 Ga         4.8830183482        2.7862169234       10.4443373973
  N         4.8867391523        4.6556819986       11.0521037137
 Ga         4.8859133181        4.6568924596       13.0510270844
  N         4.8823217976        2.7904149798       13.6707417413
 Ga         4.8892339481        2.7827764152       15.6923906781
  N         4.8433956557        4.6766940945       16.1574790316
 Ga         4.9800575818        4.5932206080       19.1176956533
  N         4.9770327104        2.7075452946       18.8392060981
 Ga         3.2601351237        5.5872642297        0.3230489081
  N         3.2584416261        7.4572523309        0.6062753968
 Ga         3.2866217640        7.4734701590        2.6361244194
  N         3.2595990050        5.5881300405        3.2288954436
 Ga         3.2600260639        5.5894461367        5.2398986118
  N         3.2606854853        7.4595216310        5.8491248234
 Ga         3.2623861979        7.4598162685        7.8489198544
  N         3.2603194278        5.5889396996        8.4532727150
 Ga         3.2611460773        5.5898427622       10.4518316738
  N         3.2651328503        7.4669147898       11.0414108648
 Ga         3.2648542798        7.4711593955       13.0352873451
  N         3.2505970172        5.5933052569       13.5927424627
 Ga         3.2494700249        5.6051012910       15.5846894608
  N         3.2813422576        7.4740743136       16.1343498710
 Ga         3.3503515243        7.4372580240       18.1381899248
  N         3.4674326814        5.4802210600       18.3104308652
  O         1.5645855902        4.9714785479       21.1796957785
  H         0.9894245336        5.3288468710       20.4105683882
  C         0.9038133137        3.7795635425       21.6572321206
  H         0.1301898799        3.4495353824       20.9451820964
  H         1.6351374086        2.9672859707       21.7633755192
  H         0.4343842139        3.9788201232       22.6316690659
  O         4.1863121617        4.8074483700       21.0321889743
  H         3.1593258836        4.8797276963       21.0278251345
  C         4.5972947201        3.8571036571       22.0486754433
  H         4.4242889245        2.8247394443       21.7130766714
  H         5.6687879756        4.0070110019       22.2257954735
  H         4.0406498689        4.0594918408       22.9720722586
     156
 i =       54, E =     -6136.6611921891
 Ga         0.0125140570       -0.0030182886       -0.5343393409
  N         0.0141904630        1.8703013349        0.6031019220
 Ga         0.0140252970        1.8385947145        2.6352004888
  N         0.0107246877       -0.0048828683        3.2662623325
 Ga         0.0107483005       -0.0046596076        5.2568390070
  N         0.0134183273        1.8699358394        5.8443125642
 Ga         0.0130417981        1.8669946179        7.8438962892
  N         0.0115344458       -0.0060787644        8.4445646662
 Ga         0.0130041223       -0.0069761248       10.4427434943
  N         0.0113424853        1.8653422422       11.0451903513
 Ga         0.0173774243        1.8605763860       13.0392818051
  N         0.0241386431       -0.0116095104       13.6339942065
 Ga         0.0417076208       -0.0361463869       15.6270726208
  N         0.0345859391        1.8455076652       16.2069216464
 Ga         0.0595386461        1.8188739250       18.2629063670
  N         0.0526697998       -0.0499027006       18.6750950634
 Ga        -1.6087659872        2.8017254693        0.3211859753
  N        -1.6097862896        4.6716158188        0.6033271755
 Ga        -1.5816568724        4.6867636434        2.6340947618
  N        -1.6086284748        2.8007887355        3.2247281468
 Ga        -1.6086211282        2.8010923960        5.2361980956
  N        -1.6087819044        4.6708948119        5.8429874572
 Ga        -1.6088610425        4.6701241930        7.8415950916
  N        -1.6098931049        2.7998857965        8.4477617526
 Ga        -1.6108150426        2.8008931350       10.4437092203
  N        -1.6126962730        4.6707609303       11.0514893609
 Ga        -1.6176654285        4.6683636149       13.0491513182
  N        -1.5997349304        2.7990494290       13.6680448615
 Ga        -1.5966361245        2.8094915434       15.6757350839
  N        -1.5911918064        4.6727665999       16.3085688621
 Ga        -1.4992802962        4.6602631168       18.3845993141
  N        -1.5164255265        2.7669004125       18.7597909447
 Ga        -3.2289214423        5.6072368286        0.3209121596
  N        -3.2224647284        7.4778681599        0.6033394071
 Ga        -3.2497868562        7.4919455819        2.6354394510
  N        -3.2284893409        5.6062557673        3.2253132542
 Ga        -3.2287907370        5.6064636563        5.2368523161
  N        -3.2231576548        7.4765063140        5.8429530812
 Ga        -3.2254253414        7.4755172485        7.8417007688
  N        -3.2301034860        5.6046547405        8.4444964278
 Ga        -3.2315043492        5.6030468662       10.4394520480
  N        -3.2235358058        7.4714324858       11.0492838276
 Ga        -3.2171295213        7.4640174879       13.0475896805
  N        -3.2360145125        5.5965478329       13.6864229876
 Ga        -3.2184272273        5.5894008525       15.7228170491
  N        -3.1967085385        7.4543614590       16.2794878391
 Ga        -3.1826075410        7.4126989994       18.3412891663
  N        -3.1362401011        5.5527124953       18.8878305549
 Ga         3.2574690557       -0.0038301389        0.3207739715
  N         3.2553224334        1.8656552486        0.6042429487
 Ga         3.2833002983        1.8806379631        2.6345877541
  N         3.2567198299       -0.0049017815        3.2255275757
 Ga         3.2568546502       -0.0046837030        5.2370215945
  N         3.2571826720        1.8655035697        5.8434508368
 Ga         3.2571905785        1.8651850418        7.8423801087
  N         3.2545013605       -0.0056073398        8.4451903428
 Ga         3.2551156911       -0.0069420131       10.4402298470
  N         3.2616939788        1.8633674688       11.0480537348
 Ga         3.2682236735        1.8557996285       13.0457174820
  N         3.2574936435       -0.0134410794       13.6616108302
 Ga         3.2690326691       -0.0234068086       15.6717795172
  N         3.2962928249        1.8441106711       16.2495943927
 Ga         3.3505595264        1.8315365967       18.2871141117
  N         3.3141105967       -0.0552532776       18.7427321881
 Ga         1.6370018707        2.8020173824        0.3207879493
  N         1.6430174930        4.6720150027        0.6033085058
 Ga         1.6151567189        4.6865306445        2.6342694287
  N         1.6366259058        2.8008940997        3.2258458262
 Ga         1.6368793065        2.8011882587        5.2377132626
  N         1.6418742665        4.6710777088        5.8456220348
 Ga         1.6400865861        4.6703234299        7.8461972395
  N         1.6363855612        2.7980084754        8.4465161333
 Ga         1.6367153415        2.7966172070       10.4426198086
  N         1.6318544491        4.6677186310       11.0374905736
 Ga         1.6252815253        4.6653579054       13.0316919786
  N         1.6419550742        2.7872410734       13.6367929994
 Ga         1.6702251396        2.7758630115       15.6310137304
  N         1.6249362637        4.6605412172       16.1244526046
 Ga         1.7013467678        4.6224358728       18.1039320967
  N         1.7027549360        2.7649623655       18.5580071225
 Ga         0.0167235337        5.6081184126       -0.5474727573
  N         0.0203181735        7.4816376676        0.6037136693
 Ga         0.0198375936        7.4493838174        2.6343187034
  N         0.0170682342        5.6060507365        3.2662848237
 Ga         0.0172483513        5.6064491286        5.2566158840
  N         0.0199508694        7.4808379239        5.8445486252
 Ga         0.0189945300        7.4783184838        7.8441406187
  N         0.0139437749        5.6047624242        8.4434598886
 Ga         0.0109608513        5.6040870627       10.4409938103
  N         0.0183815422        7.4773369515       11.0393583629
 Ga         0.0163225985        7.4785273833       13.0320675828
  N         0.0022537294        5.6074999937       13.6283053932
 Ga         0.0009549881        5.5976017964       15.6234841012
  N         0.0453508425        7.4641768544       16.2534388496
 Ga         0.0709134737        7.4151838697       18.3383242109
  N         0.1790761590        5.5573683176       18.8643478468
 Ga         6.5013265312       -0.0032243849        0.3206249239
  N         6.5085203122        1.8664400233        0.6037675378
 Ga         6.4803315629        1.8809517318        2.6342767784
  N         6.5021034648       -0.0047542935        3.2257051391
 Ga         6.5022778763       -0.0044578683        5.2376993766
  N         6.5073532625        1.8662686872        5.8435248635
 Ga         6.5048440568        1.8662420069        7.8424076941
  N         6.5002251341       -0.0033188528        8.4470370015
 Ga         6.5004247240        0.0000293559       10.4436275150
  N         6.5034057155        1.8716751974       11.0535593831
 Ga         6.5056682559        1.8743588601       13.0525148384
  N         6.4934447727        0.0025710593       13.6305823072
 Ga         6.5091606658        0.0079851349       15.6318478987
  N         6.5205472204        1.8728389756       16.2565684246
 Ga         6.5983089795        1.8421276311       18.3122819307
  N         6.5838609131       -0.0691073730       18.6604189313
 Ga         4.8821270279        2.8023165406       -0.5455319515
  N         4.8856608098        4.6767706323        0.6042774629
 Ga         4.8850587712        4.6444767224        2.6344622771
  N         4.8821659612        2.8007440459        3.2657034654
 Ga         4.8822733708        2.8013521491        5.2556379866
  N         4.8847294792        4.6754738879        5.8440523084
 Ga         4.8820640836        4.6734740050        7.8436381073
  N         4.8810711518        2.8001669151        8.4447132905
 Ga         4.8819801948        2.8019400300       10.4425962194
  N         4.8856443149        4.6714868297       11.0492732515
 Ga         4.8827929609        4.6713551684       13.0498368937
  N         4.8800038786        2.8033938590       13.6658898573
 Ga         4.8869702301        2.7959017026       15.6881015768
  N         4.8412331280        4.6875005910       16.1476255874
 Ga         4.9605047150        4.6075234649       19.1248253783
  N         4.9685198991        2.7235507206       18.8303358921
 Ga         3.2632424828        5.6064782441        0.3206726046
  N         3.2624311335        7.4773210912        0.6024967644
 Ga         3.2896846594        7.4917870291        2.6348770405
  N         3.2623519403        5.6064773745        3.2258038213
 Ga         3.2622744156        5.6068338829        5.2378801353
  N         3.2629741875        7.4767788754        5.8459805054
 Ga         3.2628002971        7.4756245021        7.8467762515
  N         3.2609765062        5.6051140845        8.4505481478
 Ga         3.2601877836        5.6057846703       10.4503512563
  N         3.2639863040        7.4827445713       11.0385196345
 Ga         3.2610604757        7.4853951401       13.0336267555
  N         3.2470080558        5.6079894424       13.5905859350
 Ga         3.2471229117        5.6178835889       15.5851188722
  N         3.2760459281        7.4873187543       16.1357575566
 Ga         3.3411584671        7.4546028279       18.1414995751
  N         3.4475501831        5.5022497196       18.3294451419
  O         1.4984980187        4.8852217649       21.1653939333
  H         0.9467501480        5.2963487103       20.4079230460
  C         0.8135299935        3.6665259744       21.5345968269