 DBCSR| Multiplication driver                                               BLAS
 DBCSR| Multrec recursion limit                                              512
 DBCSR| Multiplication stack size                                           1000
 DBCSR| Maximum elements for images                                    UNLIMITED
 DBCSR| Multiplicative factor virtual images                                   1
 DBCSR| Multiplication size stacks                                             3
 DBCSR| Number of 3D layers                                               SINGLE
 DBCSR| Use MPI memory allocation                                              T
 DBCSR| Use RMA algorithm                                                      F
 DBCSR| Use Communication thread                                               T
 DBCSR| Communication thread load                                             87


  **** **** ******  **  PROGRAM STARTED AT               2019-05-25 01:02:37.949
 ***** ** ***  *** **   PROGRAM STARTED ON        blg4216.int.ets1.calculquebec.
 **    ****   ******    PROGRAM STARTED BY                                   rzk
 ***** **    ** ** **   PROGRAM PROCESS ID                                338805
  **** **  *******  **  PROGRAM STARTED IN /lustre03/project/6004141/rzk/GaN-car
                                           bene/00-Surface/00-Preoptimization/44
                                           3-capped

 CP2K| version string:                    CP2K version 7.0 (Development Version)
 CP2K| source code revision number:                                    svn:18619
 CP2K| cp2kflags: libint fftw3 libxc parallel mpi3 scalapack mkl                
 CP2K| is freely available from                            https://www.cp2k.org/
 CP2K| Program compiled at                          Sun Apr  7 00:48:11 EDT 2019
 CP2K| Program compiled on                      beluga2.int.ets1.calculquebec.ca
 CP2K| Program compiled for                    Beluga-Linux-x86-64-intel-openmpi
 CP2K| Data directory path    /home/rzk/projects/def-rzk/group/cp2k/cp2k-mcgill/
 CP2K| Input file name                                                 start.inp
 
 GLOBAL| Force Environment number                                              1
 GLOBAL| Basis set file name                                        BASIS_MOLOPT
 GLOBAL| Potential file name                                      GTH_POTENTIALS
 GLOBAL| MM Potential file name                                     MM_POTENTIAL
 GLOBAL| Coordinate file name                                          start.xyz
 GLOBAL| Method name                                                        CP2K
 GLOBAL| Project name                                                       TEST
 GLOBAL| Preferred FFT library                                             FFTW3
 GLOBAL| Preferred diagonalization lib.                                       SL
 GLOBAL| Run type                                                        GEO_OPT
 GLOBAL| All-to-all communication in single precision                          F
 GLOBAL| FFTs using library dependent lengths                                  F
 GLOBAL| Global print level                                               MEDIUM
 GLOBAL| MPI I/O enabled                                                       T
 GLOBAL| Total number of message passing processes                            80
 GLOBAL| Number of threads for this process                                    1
 GLOBAL| This output is from process                                           0
 GLOBAL| CPU model name :  Intel(R) Xeon(R) Gold 6148 CPU @ 2.40GHz

 MEMORY| system memory details [Kb]
 MEMORY|                        rank 0           min           max       average
 MEMORY| MemTotal            196614300     196614300     196614300     196614300
 MEMORY| MemFree             184231820     184223444     184592724     184371444
 MEMORY| Buffers                    76            76            76            76
 MEMORY| Cached                1230800       1203524       1230800       1217162
 MEMORY| Slab                  1089652       1038624       1089652       1064138
 MEMORY| SReclaimable           155760        155760        156488        156124
 MEMORY| MemLikelyFree       185618456     185610080     185952812     185744806


 *** Fundamental physical constants (SI units) ***

 *** Literature: B. J. Mohr and B. N. Taylor,
 ***             CODATA recommended values of the fundamental physical
 ***             constants: 2006, Web Version 5.1
 ***             http://physics.nist.gov/constants

 Speed of light in vacuum [m/s]                             2.99792458000000E+08
 Magnetic constant or permeability of vacuum [N/A**2]       1.25663706143592E-06
 Electric constant or permittivity of vacuum [F/m]          8.85418781762039E-12
 Planck constant (h) [J*s]                                  6.62606896000000E-34
 Planck constant (h-bar) [J*s]                              1.05457162825177E-34
 Elementary charge [C]                                      1.60217648700000E-19
 Electron mass [kg]                                         9.10938215000000E-31
 Electron g factor [ ]                                     -2.00231930436220E+00
 Proton mass [kg]                                           1.67262163700000E-27
 Fine-structure constant                                    7.29735253760000E-03
 Rydberg constant [1/m]                                     1.09737315685270E+07
 Avogadro constant [1/mol]                                  6.02214179000000E+23
 Boltzmann constant [J/K]                                   1.38065040000000E-23
 Atomic mass unit [kg]                                      1.66053878200000E-27
 Bohr radius [m]                                            5.29177208590000E-11

 *** Conversion factors ***

 [u] -> [a.u.]                                              1.82288848426455E+03
 [Angstrom] -> [Bohr] = [a.u.]                              1.88972613288564E+00
 [a.u.] = [Bohr] -> [Angstrom]                              5.29177208590000E-01
 [a.u.] -> [s]                                              2.41888432650478E-17
 [a.u.] -> [fs]                                             2.41888432650478E-02
 [a.u.] -> [J]                                              4.35974393937059E-18
 [a.u.] -> [N]                                              8.23872205491840E-08
 [a.u.] -> [K]                                              3.15774647902944E+05
 [a.u.] -> [kJ/mol]                                         2.62549961709828E+03
 [a.u.] -> [kcal/mol]                                       6.27509468713739E+02
 [a.u.] -> [Pa]                                             2.94210107994716E+13
 [a.u.] -> [bar]                                            2.94210107994716E+08
 [a.u.] -> [atm]                                            2.90362800883016E+08
 [a.u.] -> [eV]                                             2.72113838565563E+01
 [a.u.] -> [Hz]                                             6.57968392072181E+15
 [a.u.] -> [1/cm] (wave numbers)                            2.19474631370540E+05
 [a.u./Bohr**2] -> [1/cm]                                   5.14048714338585E+03
 

 CELL_TOP| Volume [angstrom^3]:                                         4232.876
 CELL_TOP| Vector a [angstrom    12.982     0.000     0.000    |a| =      12.982
 CELL_TOP| Vector b [angstrom    -6.491    11.243     0.000    |b| =      12.982
 CELL_TOP| Vector c [angstrom     0.000     0.000    29.000    |c| =      29.000
 CELL_TOP| Angle (b,c), alpha [degree]:                                   90.000
 CELL_TOP| Angle (a,c), beta  [degree]:                                   90.000
 CELL_TOP| Angle (a,b), gamma [degree]:                                  120.000
 CELL_TOP| Numerically orthorhombic:                                          NO
 
 GENERATE|  Preliminary Number of Bonds generated:                             0
 GENERATE|  Achieved consistency in connectivity generation.

 CELL| Volume [angstrom^3]:                                             4232.876
 CELL| Vector a [angstrom]:      12.982     0.000     0.000    |a| =      12.982
 CELL| Vector b [angstrom]:      -6.491    11.243     0.000    |b| =      12.982
 CELL| Vector c [angstrom]:       0.000     0.000    29.000    |c| =      29.000
 CELL| Angle (b,c), alpha [degree]:                                       90.000
 CELL| Angle (a,c), beta  [degree]:                                       90.000
 CELL| Angle (a,b), gamma [degree]:                                      120.000
 CELL| Numerically orthorhombic:                                              NO

 CELL_REF| Volume [angstrom^3]:                                         4232.876
 CELL_REF| Vector a [angstrom    12.982     0.000     0.000    |a| =      12.982
 CELL_REF| Vector b [angstrom    -6.491    11.243     0.000    |b| =      12.982
 CELL_REF| Vector c [angstrom     0.000     0.000    29.000    |c| =      29.000
 CELL_REF| Angle (b,c), alpha [degree]:                                   90.000
 CELL_REF| Angle (a,c), beta  [degree]:                                   90.000
 CELL_REF| Angle (a,b), gamma [degree]:                                  120.000
 CELL_REF| Numerically orthorhombic:                                          NO

 *******************************************************************************
 *******************************************************************************
 **                                                                           **
 **     #####                         ##              ##                      **
 **    ##   ##            ##          ##              ##                      **
 **   ##     ##                       ##            ######                    **
 **   ##     ##  ##   ##  ##   #####  ##  ##   ####   ##    #####    #####    **
 **   ##     ##  ##   ##  ##  ##      ## ##   ##      ##   ##   ##  ##   ##   **
 **   ##  ## ##  ##   ##  ##  ##      ####     ###    ##   ######   ######    **
 **    ##  ###   ##   ##  ##  ##      ## ##      ##   ##   ##       ##        **
 **     #######   #####   ##   #####  ##  ##  ####    ##    #####   ##        **
 **           ##                                                    ##        **
 **                                                                           **
 **                                                ... make the atoms dance   **
 **                                                                           **
 **            Copyright (C) by CP2K developers group (2000 - 2018)           **
 **                                                                           **
 *******************************************************************************

 DFT| Spin restricted Kohn-Sham (RKS) calculation                            RKS
 DFT| Multiplicity                                                             1
 DFT| Number of spin states                                                    1
 DFT| Charge                                                                   0
 DFT| Self-interaction correction (SIC)                                       NO
 DFT| Cutoffs: density                                              1.000000E-10
 DFT|          gradient                                             1.000000E-10
 DFT|          tau                                                  1.000000E-10
 DFT|          cutoff_smoothing_range                               0.000000E+00
 DFT| XC density smoothing                                                  NONE
 DFT| XC derivatives                                                          PW
 FUNCTIONAL| ROUTINE=NEW
 FUNCTIONAL| PBE:
 FUNCTIONAL| J.P.Perdew, K.Burke, M.Ernzerhof, Phys. Rev. Letter, vol. 77, n 18,
 FUNCTIONAL|  pp. 3865-3868, (1996){spin unpolarized}                           
 vdW POTENTIAL|                                                   Pair Potential
 vdW POTENTIAL|          DFT-D3 (Version 3.1)
 vdW POTENTIAL|          Potential Form: S. Grimme et al, JCP 132: 154104 (2010)
 vdW POTENTIAL|          Zero Damping
 vdW POTENTIAL|          Cutoff Radius [Bohr]:                             18.90
 vdW POTENTIAL|          s6 Scaling Factor:                               1.0000
 vdW POTENTIAL|          sr6 Scaling Factor:                              1.2170
 vdW POTENTIAL|          s8 Scaling Factor:                               0.7220
 vdW POTENTIAL|          Cutoff for CN calculation:                   0.1000E-05

 QS| Method:                                                                 GPW
 QS| Density plane wave grid type                        NON-SPHERICAL FULLSPACE
 QS| Number of grid levels:                                                    5
 QS| Density cutoff [a.u.]:                                                600.0
 QS| Multi grid cutoff [a.u.]: 1) grid level                               600.0
 QS|                           2) grid level                               200.0
 QS|                           3) grid level                                66.7
 QS|                           4) grid level                                22.2
 QS|                           5) grid level                                 7.4
 QS| Grid level progression factor:                                          3.0
 QS| Relative density cutoff [a.u.]:                                        20.0
 QS| Consistent realspace mapping and integration 
 QS| Interaction thresholds: eps_pgf_orb:                                1.0E-07
 QS|                         eps_filter_matrix:                          0.0E+00
 QS|                         eps_core_charge:                            1.0E-16
 QS|                         eps_rho_gspace:                             1.0E-14
 QS|                         eps_rho_rspace:                             1.0E-14
 QS|                         eps_gvg_rspace:                             1.0E-07
 QS|                         eps_ppl:                                    1.0E-02
 QS|                         eps_ppnl:                                   1.0E-09


 ATOMIC KIND INFORMATION

  1. Atomic kind: Ga                                    Number of atoms:      96

     Orbital Basis Set                                        DZVP-MOLOPT-SR-GTH

       Number of orbital shell sets:                                           1
       Number of orbital shells:                                               7
       Number of primitive Cartesian functions:                                6
       Number of Cartesian basis functions:                                   30
       Number of spherical basis functions:                                   25
       Norm type:                                                              2

       Normalised Cartesian orbitals:

                        Set   Shell   Orbital            Exponent    Coefficient

                          1       1    2s                7.066654       0.013136
                                                         3.428369      -0.094392
                                                         1.430064       0.265435
                                                         0.571611       0.056465
                                                         0.232197      -0.192187
                                                         0.076562      -0.044987

                          1       2    3s                7.066654      -0.098564
                                                         3.428369       0.010390
                                                         1.430064       0.351249
                                                         0.571611       0.182615
                                                         0.232197      -0.425358
                                                         0.076562       0.190349

                          1       3    3px               7.066654       0.002364
                                                         3.428369       0.019222
                                                         1.430064       0.250132
                                                         0.571611      -0.058486
                                                         0.232197      -0.159451
                                                         0.076562      -0.020696
                          1       3    3py               7.066654       0.002364
                                                         3.428369       0.019222
                                                         1.430064       0.250132
                                                         0.571611      -0.058486
                                                         0.232197      -0.159451
                                                         0.076562      -0.020696
                          1       3    3pz               7.066654       0.002364
                                                         3.428369       0.019222
                                                         1.430064       0.250132
                                                         0.571611      -0.058486
                                                         0.232197      -0.159451
                                                         0.076562      -0.020696

                          1       4    4px               7.066654       0.492448
                                                         3.428369      -0.614736
                                                         1.430064      -0.191654
                                                         0.571611       0.037801
                                                         0.232197       0.302315
                                                         0.076562      -0.071336
                          1       4    4py               7.066654       0.492448
                                                         3.428369      -0.614736
                                                         1.430064      -0.191654
                                                         0.571611       0.037801
                                                         0.232197       0.302315
                                                         0.076562      -0.071336
                          1       4    4pz               7.066654       0.492448
                                                         3.428369      -0.614736
                                                         1.430064      -0.191654
                                                         0.571611       0.037801
                                                         0.232197       0.302315
                                                         0.076562      -0.071336

                          1       5    4dx2              7.066654     -15.264855
                                                         3.428369      -5.345726
                                                         1.430064      -1.022732
                                                         0.571611      -0.123148
                                                         0.232197      -0.006983
                                                         0.076562      -0.000022
                          1       5    4dxy              7.066654     -26.439504
                                                         3.428369      -9.259069
                                                         1.430064      -1.771423
                                                         0.571611      -0.213299
                                                         0.232197      -0.012094
                                                         0.076562      -0.000037
                          1       5    4dxz              7.066654     -26.439504
                                                         3.428369      -9.259069
                                                         1.430064      -1.771423
                                                         0.571611      -0.213299
                                                         0.232197      -0.012094
                                                         0.076562      -0.000037
                          1       5    4dy2              7.066654     -15.264855
                                                         3.428369      -5.345726
                                                         1.430064      -1.022732
                                                         0.571611      -0.123148
                                                         0.232197      -0.006983
                                                         0.076562      -0.000022
                          1       5    4dyz              7.066654     -26.439504
                                                         3.428369      -9.259069
                                                         1.430064      -1.771423
                                                         0.571611      -0.213299
                                                         0.232197      -0.012094
                                                         0.076562      -0.000037
                          1       5    4dz2              7.066654     -15.264855
                                                         3.428369      -5.345726
                                                         1.430064      -1.022732
                                                         0.571611      -0.123148
                                                         0.232197      -0.006983
                                                         0.076562      -0.000022

                          1       6    5dx2              7.066654      -5.739265
                                                         3.428369      -2.129289
                                                         1.430064      -0.700423
                                                         0.571611       0.161606
                                                         0.232197       0.043513
                                                         0.076562       0.011205
                          1       6    5dxy              7.066654      -9.940698
                                                         3.428369      -3.688037
                                                         1.430064      -1.213168
                                                         0.571611       0.279909
                                                         0.232197       0.075368
                                                         0.076562       0.019407
                          1       6    5dxz              7.066654      -9.940698
                                                         3.428369      -3.688037
                                                         1.430064      -1.213168
                                                         0.571611       0.279909
                                                         0.232197       0.075368
                                                         0.076562       0.019407
                          1       6    5dy2              7.066654      -5.739265
                                                         3.428369      -2.129289
                                                         1.430064      -0.700423
                                                         0.571611       0.161606
                                                         0.232197       0.043513
                                                         0.076562       0.011205
                          1       6    5dyz              7.066654      -9.940698
                                                         3.428369      -3.688037
                                                         1.430064      -1.213168
                                                         0.571611       0.279909
                                                         0.232197       0.075368
                                                         0.076562       0.019407
                          1       6    5dz2              7.066654      -5.739265
                                                         3.428369      -2.129289
                                                         1.430064      -0.700423
                                                         0.571611       0.161606
                                                         0.232197       0.043513
                                                         0.076562       0.011205

                          1       7    5fx3              7.066654       0.705879
                                                         3.428369      -0.273976
                                                         1.430064       0.113667
                                                         0.571611       0.132480
                                                         0.232197       0.012437
                                                         0.076562       0.003241
                          1       7    5fx2y             7.066654       1.578393
                                                         3.428369      -0.612629
                                                         1.430064       0.254167
                                                         0.571611       0.296234
                                                         0.232197       0.027811
                                                         0.076562       0.007246
                          1       7    5fx2z             7.066654       1.578393
                                                         3.428369      -0.612629
                                                         1.430064       0.254167
                                                         0.571611       0.296234
                                                         0.232197       0.027811
                                                         0.076562       0.007246
                          1       7    5fxy2             7.066654       1.578393
                                                         3.428369      -0.612629
                                                         1.430064       0.254167
                                                         0.571611       0.296234
                                                         0.232197       0.027811
                                                         0.076562       0.007246
                          1       7    5fxyz             7.066654       2.733856
                                                         3.428369      -1.061105
                                                         1.430064       0.440230
                                                         0.571611       0.513092
                                                         0.232197       0.048170
                                                         0.076562       0.012551
                          1       7    5fxz2             7.066654       1.578393
                                                         3.428369      -0.612629
                                                         1.430064       0.254167
                                                         0.571611       0.296234
                                                         0.232197       0.027811
                                                         0.076562       0.007246
                          1       7    5fy3              7.066654       0.705879
                                                         3.428369      -0.273976
                                                         1.430064       0.113667
                                                         0.571611       0.132480
                                                         0.232197       0.012437
                                                         0.076562       0.003241
                          1       7    5fy2z             7.066654       1.578393
                                                         3.428369      -0.612629
                                                         1.430064       0.254167
                                                         0.571611       0.296234
                                                         0.232197       0.027811
                                                         0.076562       0.007246
                          1       7    5fyz2             7.066654       1.578393
                                                         3.428369      -0.612629
                                                         1.430064       0.254167
                                                         0.571611       0.296234
                                                         0.232197       0.027811
                                                         0.076562       0.007246
                          1       7    5fz3              7.066654       0.705879
                                                         3.428369      -0.273976
                                                         1.430064       0.113667
                                                         0.571611       0.132480
                                                         0.232197       0.012437
                                                         0.076562       0.003241

     GTH Potential information for                                   GTH-PBE-q13

       Description:                       Goedecker-Teter-Hutter pseudopotential
                                           Goedecker et al., PRB 54, 1703 (1996)
                                          Hartwigsen et al., PRB 58, 3641 (1998)
                                                      Krack, TCA 114, 145 (2005)

       Gaussian exponent of the core charge distribution:               2.082466
       Electronic configuration (s p d ...):                           2   1  10

       Parameters of the local part of the GTH pseudopotential:

                          rloc        C1          C2          C3          C4
                        0.490000

       Parameters of the non-local part of the GTH pseudopotential:

                   l      r(l)      h(i,j,l)

                   0    0.416777   10.475690   -4.921768    0.870706
                                   -4.921768    7.770178   -2.248152
                                    0.870706   -2.248152    1.784415
                   1    0.569627    1.777985    0.195860
                                    0.195860   -0.231744
                   2    0.238126  -16.248680

  2. Atomic kind: N                                     Number of atoms:      96

     Orbital Basis Set                                        DZVP-MOLOPT-SR-GTH

       Number of orbital shell sets:                                           1
       Number of orbital shells:                                               5
       Number of primitive Cartesian functions:                                5
       Number of Cartesian basis functions:                                   14
       Number of spherical basis functions:                                   13
       Norm type:                                                              2

       Normalised Cartesian orbitals:

                        Set   Shell   Orbital            Exponent    Coefficient

                          1       1    2s                7.341988       0.360561
                                                         2.542637       0.139177
                                                         0.888575      -0.289383
                                                         0.333802      -0.182244
                                                         0.112012      -0.019197

                          1       2    3s                7.341988       0.282000
                                                         2.542637       0.177875
                                                         0.888575      -0.278381
                                                         0.333802       0.008577
                                                         0.112012       0.154176

                          1       3    3px               7.341988      -1.188719
                                                         2.542637      -0.973969
                                                         0.888575      -0.501079
                                                         0.333802      -0.144894
                                                         0.112012      -0.013986
                          1       3    3py               7.341988      -1.188719
                                                         2.542637      -0.973969
                                                         0.888575      -0.501079
                                                         0.333802      -0.144894
                                                         0.112012      -0.013986
                          1       3    3pz               7.341988      -1.188719
                                                         2.542637      -0.973969
                                                         0.888575      -0.501079
                                                         0.333802      -0.144894
                                                         0.112012      -0.013986

                          1       4    4px               7.341988      -0.094798
                                                         2.542637       0.050069
                                                         0.888575      -0.114797
                                                         0.333802       0.144793
                                                         0.112012       0.066710
                          1       4    4py               7.341988      -0.094798
                                                         2.542637       0.050069
                                                         0.888575      -0.114797
                                                         0.333802       0.144793
                                                         0.112012       0.066710
                          1       4    4pz               7.341988      -0.094798
                                                         2.542637       0.050069
                                                         0.888575      -0.114797
                                                         0.333802       0.144793
                                                         0.112012       0.066710

                          1       5    4dx2              7.341988       1.354688
                                                         2.542637       0.690378
                                                         0.888575       0.855359
                                                         0.333802       0.091746
                                                         0.112012       0.001253
                          1       5    4dxy              7.341988       2.346389
                                                         2.542637       1.195770
                                                         0.888575       1.481524
                                                         0.333802       0.158910
                                                         0.112012       0.002169
                          1       5    4dxz              7.341988       2.346389
                                                         2.542637       1.195770
                                                         0.888575       1.481524
                                                         0.333802       0.158910
                                                         0.112012       0.002169
                          1       5    4dy2              7.341988       1.354688
                                                         2.542637       0.690378
                                                         0.888575       0.855359
                                                         0.333802       0.091746
                                                         0.112012       0.001253
                          1       5    4dyz              7.341988       2.346389
                                                         2.542637       1.195770
                                                         0.888575       1.481524
                                                         0.333802       0.158910
                                                         0.112012       0.002169
                          1       5    4dz2              7.341988       1.354688
                                                         2.542637       0.690378
                                                         0.888575       0.855359
                                                         0.333802       0.091746
                                                         0.112012       0.001253

     GTH Potential information for                                    GTH-PBE-q5

       Description:                       Goedecker-Teter-Hutter pseudopotential
                                           Goedecker et al., PRB 54, 1703 (1996)
                                          Hartwigsen et al., PRB 58, 3641 (1998)
                                                      Krack, TCA 114, 145 (2005)

       Gaussian exponent of the core charge distribution:               6.208322
       Electronic configuration (s p d ...):                               2   3

       Parameters of the local part of the GTH pseudopotential:

                          rloc        C1          C2          C3          C4
                        0.283791  -12.415226    1.868096

       Parameters of the non-local part of the GTH pseudopotential:

                   l      r(l)      h(i,j,l)

                   0    0.255405   13.630263
                   1    0.245495

  3. Atomic kind: H                                     Number of atoms:      16

     Orbital Basis Set                                     DZVP-MOLOPT-SR-GTH-q1

       Number of orbital shell sets:                                           1
       Number of orbital shells:                                               3
       Number of primitive Cartesian functions:                                5
       Number of Cartesian basis functions:                                    5
       Number of spherical basis functions:                                    5
       Norm type:                                                              2

       Normalised Cartesian orbitals:

                        Set   Shell   Orbital            Exponent    Coefficient

                          1       1    2s               10.068468      -0.133023
                                                         2.680223      -0.177618
                                                         0.791502      -0.258419
                                                         0.239116      -0.107525
                                                         0.082193      -0.014019

                          1       2    3s               10.068468       0.344673
                                                         2.680223       1.819821
                                                         0.791502      -0.999069
                                                         0.239116       0.017430
                                                         0.082193       0.082660

                          1       3    3px              10.068468       0.155326
                                                         2.680223       0.367157
                                                         0.791502       0.311480
                                                         0.239116       0.080105
                                                         0.082193       0.033440
                          1       3    3py              10.068468       0.155326
                                                         2.680223       0.367157
                                                         0.791502       0.311480
                                                         0.239116       0.080105
                                                         0.082193       0.033440
                          1       3    3pz              10.068468       0.155326
                                                         2.680223       0.367157
                                                         0.791502       0.311480
                                                         0.239116       0.080105
                                                         0.082193       0.033440

     GTH Potential information for                                    GTH-PBE-q1

       Description:                       Goedecker-Teter-Hutter pseudopotential
                                           Goedecker et al., PRB 54, 1703 (1996)
                                          Hartwigsen et al., PRB 58, 3641 (1998)
                                                      Krack, TCA 114, 145 (2005)

       Gaussian exponent of the core charge distribution:              12.500000
       Electronic configuration (s p d ...):                                   1

       Parameters of the local part of the GTH pseudopotential:

                          rloc        C1          C2          C3          C4
                        0.200000   -4.178900    0.724463


 MOLECULE KIND INFORMATION


 All atoms are their own molecule, skipping detailed information


 TOTAL NUMBERS AND MAXIMUM NUMBERS

  Total number of            - Atomic kinds:                                   3
                             - Atoms:                                        208
                             - Shell sets:                                   208
                             - Shells:                                      1200
                             - Primitive Cartesian functions:               1136
                             - Cartesian basis functions:                   4304
                             - Spherical basis functions:                   3728

  Maximum angular momentum of- Orbital basis functions:                        3
                             - Local part of the GTH pseudopotential:          2
                             - Non-local part of the GTH pseudopotential:      4


 MODULE QUICKSTEP:  ATOMIC COORDINATES IN angstrom

  Atom  Kind  Element       X           Y           Z          Z(eff)       Mass

       1     1 Ga  31    0.000000    0.000000    0.000000     13.00      69.7230
       2     2 N    7    0.000000    1.873841    0.619431      5.00      14.0067
       3     1 Ga  31    0.000000    1.873841    2.593000     13.00      69.7230
       4     2 N    7    0.000000    0.000000    3.212431      5.00      14.0067
       5     1 Ga  31    0.000000    0.000000    5.186000     13.00      69.7230
       6     2 N    7    0.000000    1.873841    5.805431      5.00      14.0067
       7     1 Ga  31    0.000000    1.873841    7.779000     13.00      69.7230
       8     2 N    7    0.000000    0.000000    8.398431      5.00      14.0067
       9     1 Ga  31    0.000000    0.000000   10.372000     13.00      69.7230
      10     2 N    7    0.000000    1.873841   10.991431      5.00      14.0067
      11     1 Ga  31    0.000000    1.873841   12.965000     13.00      69.7230
      12     2 N    7    0.000000    0.000000   13.584431      5.00      14.0067
      13     1 Ga  31   -1.622794    2.810762    0.000000     13.00      69.7230
      14     2 N    7   -1.622794    4.684603    0.619431      5.00      14.0067
      15     1 Ga  31   -1.622794    4.684603    2.593000     13.00      69.7230
      16     2 N    7   -1.622794    2.810762    3.212431      5.00      14.0067
      17     1 Ga  31   -1.622794    2.810762    5.186000     13.00      69.7230
      18     2 N    7   -1.622794    4.684603    5.805431      5.00      14.0067
      19     1 Ga  31   -1.622794    4.684603    7.779000     13.00      69.7230
      20     2 N    7   -1.622794    2.810762    8.398431      5.00      14.0067
      21     1 Ga  31   -1.622794    2.810762   10.372000     13.00      69.7230
      22     2 N    7   -1.622794    4.684603   10.991431      5.00      14.0067
      23     1 Ga  31   -1.622794    4.684603   12.965000     13.00      69.7230
      24     2 N    7   -1.622794    2.810762   13.584431      5.00      14.0067
      25     1 Ga  31   -3.245588    5.621524    0.000000     13.00      69.7230
      26     2 N    7   -3.245588    7.495365    0.619431      5.00      14.0067
      27     1 Ga  31   -3.245588    7.495365    2.593000     13.00      69.7230
      28     2 N    7   -3.245588    5.621524    3.212431      5.00      14.0067
      29     1 Ga  31   -3.245588    5.621524    5.186000     13.00      69.7230
      30     2 N    7   -3.245588    7.495365    5.805431      5.00      14.0067
      31     1 Ga  31   -3.245588    7.495365    7.779000     13.00      69.7230
      32     2 N    7   -3.245588    5.621524    8.398431      5.00      14.0067
      33     1 Ga  31   -3.245588    5.621524   10.372000     13.00      69.7230
      34     2 N    7   -3.245588    7.495365   10.991431      5.00      14.0067
      35     1 Ga  31   -3.245588    7.495365   12.965000     13.00      69.7230
      36     2 N    7   -3.245588    5.621524   13.584431      5.00      14.0067
      37     1 Ga  31   -4.868383    8.432286    0.000000     13.00      69.7230
      38     2 N    7   -4.868383   10.306127    0.619431      5.00      14.0067
      39     1 Ga  31   -4.868383   10.306127    2.593000     13.00      69.7230
      40     2 N    7   -4.868383    8.432286    3.212431      5.00      14.0067
      41     1 Ga  31   -4.868383    8.432286    5.186000     13.00      69.7230
      42     2 N    7   -4.868383   10.306127    5.805431      5.00      14.0067
      43     1 Ga  31   -4.868383   10.306127    7.779000     13.00      69.7230
      44     2 N    7   -4.868383    8.432286    8.398431      5.00      14.0067
      45     1 Ga  31   -4.868383    8.432286   10.372000     13.00      69.7230
      46     2 N    7   -4.868383   10.306127   10.991431      5.00      14.0067
      47     1 Ga  31   -4.868383   10.306127   12.965000     13.00      69.7230
      48     2 N    7   -4.868383    8.432286   13.584431      5.00      14.0067
      49     1 Ga  31    3.245588    0.000000    0.000000     13.00      69.7230
      50     2 N    7    3.245588    1.873841    0.619431      5.00      14.0067
      51     1 Ga  31    3.245588    1.873841    2.593000     13.00      69.7230
      52     2 N    7    3.245588    0.000000    3.212431      5.00      14.0067
      53     1 Ga  31    3.245588    0.000000    5.186000     13.00      69.7230
      54     2 N    7    3.245588    1.873841    5.805431      5.00      14.0067
      55     1 Ga  31    3.245588    1.873841    7.779000     13.00      69.7230
      56     2 N    7    3.245588    0.000000    8.398431      5.00      14.0067
      57     1 Ga  31    3.245588    0.000000   10.372000     13.00      69.7230
      58     2 N    7    3.245588    1.873841   10.991431      5.00      14.0067
      59     1 Ga  31    3.245588    1.873841   12.965000     13.00      69.7230
      60     2 N    7    3.245588    0.000000   13.584431      5.00      14.0067
      61     1 Ga  31    1.622794    2.810762    0.000000     13.00      69.7230
      62     2 N    7    1.622794    4.684603    0.619431      5.00      14.0067
      63     1 Ga  31    1.622794    4.684603    2.593000     13.00      69.7230
      64     2 N    7    1.622794    2.810762    3.212431      5.00      14.0067
      65     1 Ga  31    1.622794    2.810762    5.186000     13.00      69.7230
      66     2 N    7    1.622794    4.684603    5.805431      5.00      14.0067
      67     1 Ga  31    1.622794    4.684603    7.779000     13.00      69.7230
      68     2 N    7    1.622794    2.810762    8.398431      5.00      14.0067
      69     1 Ga  31    1.622794    2.810762   10.372000     13.00      69.7230
      70     2 N    7    1.622794    4.684603   10.991431      5.00      14.0067
      71     1 Ga  31    1.622794    4.684603   12.965000     13.00      69.7230
      72     2 N    7    1.622794    2.810762   13.584431      5.00      14.0067
      73     1 Ga  31    0.000000    5.621524    0.000000     13.00      69.7230
      74     2 N    7    0.000000    7.495365    0.619431      5.00      14.0067
      75     1 Ga  31    0.000000    7.495365    2.593000     13.00      69.7230
      76     2 N    7    0.000000    5.621524    3.212431      5.00      14.0067
      77     1 Ga  31    0.000000    5.621524    5.186000     13.00      69.7230
      78     2 N    7    0.000000    7.495365    5.805431      5.00      14.0067
      79     1 Ga  31    0.000000    7.495365    7.779000     13.00      69.7230
      80     2 N    7    0.000000    5.621524    8.398431      5.00      14.0067
      81     1 Ga  31    0.000000    5.621524   10.372000     13.00      69.7230
      82     2 N    7    0.000000    7.495365   10.991431      5.00      14.0067
      83     1 Ga  31    0.000000    7.495365   12.965000     13.00      69.7230
      84     2 N    7    0.000000    5.621524   13.584431      5.00      14.0067
      85     1 Ga  31   -1.622794    8.432286    0.000000     13.00      69.7230
      86     2 N    7   -1.622794   10.306127    0.619431      5.00      14.0067
      87     1 Ga  31   -1.622794   10.306127    2.593000     13.00      69.7230
      88     2 N    7   -1.622794    8.432286    3.212431      5.00      14.0067
      89     1 Ga  31   -1.622794    8.432286    5.186000     13.00      69.7230
      90     2 N    7   -1.622794   10.306127    5.805431      5.00      14.0067
      91     1 Ga  31   -1.622794   10.306127    7.779000     13.00      69.7230
      92     2 N    7   -1.622794    8.432286    8.398431      5.00      14.0067
      93     1 Ga  31   -1.622794    8.432286   10.372000     13.00      69.7230
      94     2 N    7   -1.622794   10.306127   10.991431      5.00      14.0067
      95     1 Ga  31   -1.622794   10.306127   12.965000     13.00      69.7230
      96     2 N    7   -1.622794    8.432286   13.584431      5.00      14.0067
      97     1 Ga  31    6.491177    0.000000    0.000000     13.00      69.7230
      98     2 N    7    6.491177    1.873841    0.619431      5.00      14.0067
      99     1 Ga  31    6.491177    1.873841    2.593000     13.00      69.7230
     100     2 N    7    6.491177    0.000000    3.212431      5.00      14.0067
     101     1 Ga  31    6.491177    0.000000    5.186000     13.00      69.7230
     102     2 N    7    6.491177    1.873841    5.805431      5.00      14.0067
     103     1 Ga  31    6.491177    1.873841    7.779000     13.00      69.7230
     104     2 N    7    6.491177    0.000000    8.398431      5.00      14.0067
     105     1 Ga  31    6.491177    0.000000   10.372000     13.00      69.7230
     106     2 N    7    6.491177    1.873841   10.991431      5.00      14.0067
     107     1 Ga  31    6.491177    1.873841   12.965000     13.00      69.7230
     108     2 N    7    6.491177    0.000000   13.584431      5.00      14.0067
     109     1 Ga  31    4.868383    2.810762    0.000000     13.00      69.7230
     110     2 N    7    4.868383    4.684603    0.619431      5.00      14.0067
     111     1 Ga  31    4.868383    4.684603    2.593000     13.00      69.7230
     112     2 N    7    4.868383    2.810762    3.212431      5.00      14.0067
     113     1 Ga  31    4.868383    2.810762    5.186000     13.00      69.7230
     114     2 N    7    4.868383    4.684603    5.805431      5.00      14.0067
     115     1 Ga  31    4.868383    4.684603    7.779000     13.00      69.7230
     116     2 N    7    4.868383    2.810762    8.398431      5.00      14.0067
     117     1 Ga  31    4.868383    2.810762   10.372000     13.00      69.7230
     118     2 N    7    4.868383    4.684603   10.991431      5.00      14.0067
     119     1 Ga  31    4.868383    4.684603   12.965000     13.00      69.7230
     120     2 N    7    4.868383    2.810762   13.584431      5.00      14.0067
     121     1 Ga  31    3.245588    5.621524    0.000000     13.00      69.7230
     122     2 N    7    3.245588    7.495365    0.619431      5.00      14.0067
     123     1 Ga  31    3.245588    7.495365    2.593000     13.00      69.7230
     124     2 N    7    3.245588    5.621524    3.212431      5.00      14.0067
     125     1 Ga  31    3.245588    5.621524    5.186000     13.00      69.7230
     126     2 N    7    3.245588    7.495365    5.805431      5.00      14.0067
     127     1 Ga  31    3.245588    7.495365    7.779000     13.00      69.7230
     128     2 N    7    3.245588    5.621524    8.398431      5.00      14.0067
     129     1 Ga  31    3.245588    5.621524   10.372000     13.00      69.7230
     130     2 N    7    3.245588    7.495365   10.991431      5.00      14.0067
     131     1 Ga  31    3.245588    7.495365   12.965000     13.00      69.7230
     132     2 N    7    3.245588    5.621524   13.584431      5.00      14.0067
     133     1 Ga  31    1.622794    8.432286    0.000000     13.00      69.7230
     134     2 N    7    1.622794   10.306127    0.619431      5.00      14.0067
     135     1 Ga  31    1.622794   10.306127    2.593000     13.00      69.7230
     136     2 N    7    1.622794    8.432286    3.212431      5.00      14.0067
     137     1 Ga  31    1.622794    8.432286    5.186000     13.00      69.7230
     138     2 N    7    1.622794   10.306127    5.805431      5.00      14.0067
     139     1 Ga  31    1.622794   10.306127    7.779000     13.00      69.7230
     140     2 N    7    1.622794    8.432286    8.398431      5.00      14.0067
     141     1 Ga  31    1.622794    8.432286   10.372000     13.00      69.7230
     142     2 N    7    1.622794   10.306127   10.991431      5.00      14.0067
     143     1 Ga  31    1.622794   10.306127   12.965000     13.00      69.7230
     144     2 N    7    1.622794    8.432286   13.584431      5.00      14.0067
     145     1 Ga  31    9.736765    0.000000    0.000000     13.00      69.7230
     146     2 N    7    9.736765    1.873841    0.619431      5.00      14.0067
     147     1 Ga  31    9.736765    1.873841    2.593000     13.00      69.7230
     148     2 N    7    9.736765    0.000000    3.212431      5.00      14.0067
     149     1 Ga  31    9.736765    0.000000    5.186000     13.00      69.7230
     150     2 N    7    9.736765    1.873841    5.805431      5.00      14.0067
     151     1 Ga  31    9.736765    1.873841    7.779000     13.00      69.7230
     152     2 N    7    9.736765    0.000000    8.398431      5.00      14.0067
     153     1 Ga  31    9.736765    0.000000   10.372000     13.00      69.7230
     154     2 N    7    9.736765    1.873841   10.991431      5.00      14.0067
     155     1 Ga  31    9.736765    1.873841   12.965000     13.00      69.7230
     156     2 N    7    9.736765    0.000000   13.584431      5.00      14.0067
     157     1 Ga  31    8.113971    2.810762    0.000000     13.00      69.7230
     158     2 N    7    8.113971    4.684603    0.619431      5.00      14.0067
     159     1 Ga  31    8.113971    4.684603    2.593000     13.00      69.7230
     160     2 N    7    8.113971    2.810762    3.212431      5.00      14.0067
     161     1 Ga  31    8.113971    2.810762    5.186000     13.00      69.7230
     162     2 N    7    8.113971    4.684603    5.805431      5.00      14.0067
     163     1 Ga  31    8.113971    4.684603    7.779000     13.00      69.7230
     164     2 N    7    8.113971    2.810762    8.398431      5.00      14.0067
     165     1 Ga  31    8.113971    2.810762   10.372000     13.00      69.7230
     166     2 N    7    8.113971    4.684603   10.991431      5.00      14.0067
     167     1 Ga  31    8.113971    4.684603   12.965000     13.00      69.7230
     168     2 N    7    8.113971    2.810762   13.584431      5.00      14.0067
     169     1 Ga  31    6.491177    5.621524    0.000000     13.00      69.7230
     170     2 N    7    6.491177    7.495365    0.619431      5.00      14.0067
     171     1 Ga  31    6.491177    7.495365    2.593000     13.00      69.7230
     172     2 N    7    6.491177    5.621524    3.212431      5.00      14.0067
     173     1 Ga  31    6.491177    5.621524    5.186000     13.00      69.7230
     174     2 N    7    6.491177    7.495365    5.805431      5.00      14.0067
     175     1 Ga  31    6.491177    7.495365    7.779000     13.00      69.7230
     176     2 N    7    6.491177    5.621524    8.398431      5.00      14.0067
     177     1 Ga  31    6.491177    5.621524   10.372000     13.00      69.7230
     178     2 N    7    6.491177    7.495365   10.991431      5.00      14.0067
     179     1 Ga  31    6.491177    7.495365   12.965000     13.00      69.7230
     180     2 N    7    6.491177    5.621524   13.584431      5.00      14.0067
     181     1 Ga  31    4.868383    8.432286    0.000000     13.00      69.7230
     182     2 N    7    4.868383   10.306127    0.619431      5.00      14.0067
     183     1 Ga  31    4.868383   10.306127    2.593000     13.00      69.7230
     184     2 N    7    4.868383    8.432286    3.212431      5.00      14.0067
     185     1 Ga  31    4.868383    8.432286    5.186000     13.00      69.7230
     186     2 N    7    4.868383   10.306127    5.805431      5.00      14.0067
     187     1 Ga  31    4.868383   10.306127    7.779000     13.00      69.7230
     188     2 N    7    4.868383    8.432286    8.398431      5.00      14.0067
     189     1 Ga  31    4.868383    8.432286   10.372000     13.00      69.7230
     190     2 N    7    4.868383   10.306127   10.991431      5.00      14.0067
     191     1 Ga  31    4.868383   10.306127   12.965000     13.00      69.7230
     192     2 N    7    4.868383    8.432286   13.584431      5.00      14.0067
     193     3 H    1    4.868383    8.432286   -1.550000      1.00       1.0079
     194     3 H    1    1.622794    8.432286   -1.550000      1.00       1.0079
     195     3 H    1   -1.622794    8.432286   -1.550000      1.00       1.0079
     196     3 H    1   -4.868383    8.432286   -1.550000      1.00       1.0079
     197     3 H    1    6.491177    5.621524   -1.550000      1.00       1.0079
     198     3 H    1    3.245588    5.621524   -1.550000      1.00       1.0079
     199     3 H    1    0.000000    5.621524   -1.550000      1.00       1.0079
     200     3 H    1   -3.245588    5.621524   -1.550000      1.00       1.0079
     201     3 H    1    8.113971    2.810762   -1.550000      1.00       1.0079
     202     3 H    1    4.868383    2.810762   -1.550000      1.00       1.0079
     203     3 H    1    1.622794    2.810762   -1.550000      1.00       1.0079
     204     3 H    1   -1.622794    2.810762   -1.550000      1.00       1.0079
     205     3 H    1    0.000000   -0.000000   -1.550000      1.00       1.0079
     206     3 H    1    3.245589   -0.000000   -1.550000      1.00       1.0079
     207     3 H    1    6.491177   -0.000000   -1.550000      1.00       1.0079
     208     3 H    1    9.736765   -0.000000   -1.550000      1.00       1.0079




 SCF PARAMETERS         Density guess:                                    ATOMIC
                        --------------------------------------------------------
                        max_scf:                                             100
                        max_scf_history:                                       0
                        max_diis:                                              4
                        --------------------------------------------------------
                        eps_scf:                                        5.00E-06
                        eps_scf_history:                                0.00E+00
                        eps_diis:                                       1.00E-01
                        eps_eigval:                                     1.00E-05
                        --------------------------------------------------------
                        level_shift [a.u.]:                                 0.00
                        --------------------------------------------------------
                        Outer loop SCF in use 
                        No variables optimised in outer loop
                        eps_scf                                         5.00E-06
                        max_scf                                                4
                        No outer loop optimization
                        step_size                                       5.00E-01

 PW_GRID| Information for grid number                                          1
 PW_GRID| Grid distributed over                                    80 processors
 PW_GRID| Real space group dimensions                                    80    1
 PW_GRID| the grid is blocked:                                                NO
 PW_GRID| Cutoff [a.u.]                                                    600.0
 PW_GRID| spherical cutoff:                                                   NO
 PW_GRID|   Bounds   1           -144     143                Points:         288
 PW_GRID|   Bounds   2           -144     143                Points:         288
 PW_GRID|   Bounds   3           -312     312                Points:         625
 PW_GRID| Volume element (a.u.^3)  0.5510E-03     Volume (a.u.^3)     28564.8611
 PW_GRID| Grid span                                                    FULLSPACE
 PW_GRID|   Distribution                         Average         Max         Min
 PW_GRID|   G-Vectors                           648000.0      648000      648000
 PW_GRID|   G-Rays                                2250.0        2250        2250
 PW_GRID|   Real Space Points                   648000.0      720000      540000

 PW_GRID| Information for grid number                                          2
 PW_GRID| Grid distributed over                                    80 processors
 PW_GRID| Real space group dimensions                                    80    1
 PW_GRID| the grid is blocked:                                                NO
 PW_GRID| Cutoff [a.u.]                                                    200.0
 PW_GRID| spherical cutoff:                                                   NO
 PW_GRID|   Bounds   1            -80      79                Points:         160
 PW_GRID|   Bounds   2            -80      79                Points:         160
 PW_GRID|   Bounds   3           -180     179                Points:         360
 PW_GRID| Volume element (a.u.^3)  0.3099E-02     Volume (a.u.^3)     28564.8611
 PW_GRID| Grid span                                                    FULLSPACE
 PW_GRID|   Distribution                         Average         Max         Min
 PW_GRID|   G-Vectors                           115200.0      115360      115040
 PW_GRID|   G-Rays                                 720.0         721         719
 PW_GRID|   Real Space Points                   115200.0      115200      115200

 PW_GRID| Information for grid number                                          3
 PW_GRID| Grid distributed over                                    80 processors
 PW_GRID| Real space group dimensions                                    80    1
 PW_GRID| the grid is blocked:                                                NO
 PW_GRID| Cutoff [a.u.]                                                     66.7
 PW_GRID| spherical cutoff:                                                   NO
 PW_GRID|   Bounds   1            -48      47                Points:          96
 PW_GRID|   Bounds   2            -48      47                Points:          96
 PW_GRID|   Bounds   3           -108     107                Points:         216
 PW_GRID| Volume element (a.u.^3)  0.1435E-01     Volume (a.u.^3)     28564.8611
 PW_GRID| Grid span                                                    FULLSPACE
 PW_GRID|   Distribution                         Average         Max         Min
 PW_GRID|   G-Vectors                            24883.2       25728       23616
 PW_GRID|   G-Rays                                 259.2         268         246
 PW_GRID|   Real Space Points                    24883.2       41472       20736

 PW_GRID| Information for grid number                                          4
 PW_GRID| Grid distributed over                                    80 processors
 PW_GRID| Real space group dimensions                                     8   10
 PW_GRID| the grid is blocked:                                                NO
 PW_GRID| Cutoff [a.u.]                                                     22.2
 PW_GRID| spherical cutoff:                                                   NO
 PW_GRID|   Bounds   1            -27      26                Points:          54
 PW_GRID|   Bounds   2            -27      26                Points:          54
 PW_GRID|   Bounds   3            -60      59                Points:         120
 PW_GRID| Volume element (a.u.^3)  0.8163E-01     Volume (a.u.^3)     28564.8611
 PW_GRID| Grid span                                                    FULLSPACE
 PW_GRID|   Distribution                         Average         Max         Min
 PW_GRID|   G-Vectors                             4374.0        4590        4050
 PW_GRID|   G-Rays                                  81.0          85          75
 PW_GRID|   Real Space Points                     4374.0        5040        3600

 PW_GRID| Information for grid number                                          5
 PW_GRID| Grid distributed over                                    80 processors
 PW_GRID| Real space group dimensions                                     8   10
 PW_GRID| the grid is blocked:                                                NO
 PW_GRID| Cutoff [a.u.]                                                      7.4
 PW_GRID| spherical cutoff:                                                   NO
 PW_GRID|   Bounds   1            -16      15                Points:          32
 PW_GRID|   Bounds   2            -16      15                Points:          32
 PW_GRID|   Bounds   3            -36      35                Points:          72
 PW_GRID| Volume element (a.u.^3)  0.3874         Volume (a.u.^3)     28564.8611
 PW_GRID| Grid span                                                    FULLSPACE
 PW_GRID|   Distribution                         Average         Max         Min
 PW_GRID|   G-Vectors                              921.6        1120         512
 PW_GRID|   G-Rays                                  28.8          35          16
 PW_GRID|   Real Space Points                      921.6        1152         864

 POISSON| Solver                                                        PERIODIC
 POISSON| Periodicity                                                        XYZ

 RS_GRID| Information for grid number                                          1
 RS_GRID|   Bounds   1           -144     143                Points:         288
 RS_GRID|   Bounds   2           -144     143                Points:         288
 RS_GRID|   Bounds   3           -312     312                Points:         625
 RS_GRID| Real space distribution over                                  5 groups
 RS_GRID| Real space distribution along direction                              2
 RS_GRID| Border size                                                         79
 RS_GRID| Real space distribution over                                 16 groups
 RS_GRID| Real space distribution along direction                              3
 RS_GRID| Border size                                                         79
 RS_GRID|   Distribution                         Average         Max         Min
 RS_GRID|   Planes                                 215.6         216         215
 RS_GRID|   Distribution                         Average         Max         Min
 RS_GRID|   Planes                                 197.1         198         197

 RS_GRID| Information for grid number                                          2
 RS_GRID|   Bounds   1            -80      79                Points:         160
 RS_GRID|   Bounds   2            -80      79                Points:         160
 RS_GRID|   Bounds   3           -180     179                Points:         360
 RS_GRID| Real space distribution over                                  5 groups
 RS_GRID| Real space distribution along direction                              2
 RS_GRID| Border size                                                         45
 RS_GRID| Real space distribution over                                 16 groups
 RS_GRID| Real space distribution along direction                              3
 RS_GRID| Border size                                                         45
 RS_GRID|   Distribution                         Average         Max         Min
 RS_GRID|   Planes                                 122.0         122         122
 RS_GRID|   Distribution                         Average         Max         Min
 RS_GRID|   Planes                                 112.5         113         112

 RS_GRID| Information for grid number                                          3
 RS_GRID|   Bounds   1            -48      47                Points:          96
 RS_GRID|   Bounds   2            -48      47                Points:          96
 RS_GRID|   Bounds   3           -108     107                Points:         216
 RS_GRID| Real space fully replicated
 RS_GRID| Group size                                                           1

 RS_GRID| Information for grid number                                          4
 RS_GRID|   Bounds   1            -27      26                Points:          54
 RS_GRID|   Bounds   2            -27      26                Points:          54
 RS_GRID|   Bounds   3            -60      59                Points:         120
 RS_GRID| Real space fully replicated
 RS_GRID| Group size                                                           1

 RS_GRID| Information for grid number                                          5
 RS_GRID|   Bounds   1            -16      15                Points:          32
 RS_GRID|   Bounds   2            -16      15                Points:          32
 RS_GRID|   Bounds   3            -36      35                Points:          72
 RS_GRID| Real space fully replicated
 RS_GRID| Group size                                                           1

 BFGS| Use rational function optimization for step estimation:                NO
 BFGS| Use model Hessian for initial guess:                                  YES
 BFGS| Restart Hessian:                                                       NO
 BFGS| Trust radius:                                                       0.472

 *******************************************************************************
 ***                     STARTING GEOMETRY OPTIMIZATION                      ***
 ***                                   BFGS                                  ***
 *******************************************************************************

 Number of electrons:                                                       1744
 Number of occupied orbitals:                                                872
 Number of molecular orbitals:                                               872

 Number of orbital functions:                                               3728
 Number of independent orbital functions:                                   3728

 Extrapolation method: initial_guess

 Atomic guess: The first density matrix is obtained in terms of atomic orbitals
               and electronic configurations assigned to each atomic kind

 Guess for atomic kind: Ga

 Electronic structure
    Total number of core electrons                                         18.00
    Total number of valence electrons                                      13.00
    Total number of electrons                                              31.00
    Multiplicity                                                   not specified
    S   [  2.00  2.00  2.00] 2.00
    P   [  6.00  6.00] 1.00
    D     10.00
 

 *******************************************************************************
                  Iteration          Convergence                     Energy [au]
 *******************************************************************************
                          1         22.1524                     -44.516413224335
                          2         1.91043                     -73.305924441898
                          3        0.524291E-01                 -74.147756188929
                          4        0.359055E-02                 -74.148100266765
                          5        0.137660E-02                 -74.148101509825
                          6        0.820576E-03                 -74.148101603074
                          7        0.577059E-04                 -74.148101657024
                          8        0.577427E-08                 -74.148101657328

 Energy components [Hartree]           Total Energy ::          -74.148101657328
                                        Band Energy ::           -7.354344558070
                                     Kinetic Energy ::           99.564392614967
                                   Potential Energy ::         -173.712494272295
                                      Virial (-V/T) ::            1.744725094081
                                        Core Energy ::         -134.243973097364
                                          XC Energy ::           -9.781240980901
                                     Coulomb Energy ::           69.877112420937
                       Total Pseudopotential Energy ::         -233.873649274629
                       Local Pseudopotential Energy ::         -163.402683521975
                    Nonlocal Pseudopotential Energy ::          -70.470965752654
                                        Confinement ::            0.652835622975

 Orbital energies  State     L     Occupation   Energy[a.u.]          Energy[eV]

                       1     0          2.000      -0.307238           -8.360378
 
                       1     1          1.000      -0.061461           -1.672442
 
                       1     2         10.000      -0.667841          -18.172870
 

 Total Electron Density at R=0:                                         0.000004

 Guess for atomic kind: N

 Electronic structure
    Total number of core electrons                                          2.00
    Total number of valence electrons                                       5.00
    Total number of electrons                                               7.00
    Multiplicity                                                   not specified
    S   [  2.00] 2.00
    P      3.00
 

 *******************************************************************************
                  Iteration          Convergence                     Energy [au]
 *******************************************************************************
                          1        0.314603                      -9.513311037226
                          2        0.240982                      -9.524715106536
                          3        0.171660E-02                  -9.545365478140
                          4        0.189497E-03                  -9.545366407342
                          5        0.115171E-03                  -9.545366414563
                          6        0.842367E-04                  -9.545366416530
                          7        0.416372E-07                  -9.545366418792

 Energy components [Hartree]           Total Energy ::           -9.545366418792
                                        Band Energy ::           -2.053285301135
                                     Kinetic Energy ::            6.740378038236
                                   Potential Energy ::          -16.285744457028
                                      Virial (-V/T) ::            2.416147041701
                                        Core Energy ::          -15.542519058333
                                          XC Energy ::           -2.163416690174
                                     Coulomb Energy ::            8.160569329715
                       Total Pseudopotential Energy ::          -22.320027271038
                       Local Pseudopotential Energy ::          -23.240219346165
                    Nonlocal Pseudopotential Energy ::            0.920192075127
                                        Confinement ::            0.371301744695

 Orbital energies  State     L     Occupation   Energy[a.u.]          Energy[eV]

                       1     0          2.000      -0.663125          -18.044549
 
                       1     1          3.000      -0.242345           -6.594545
 

 Total Electron Density at R=0:                                         0.000019

 Guess for atomic kind: H

 Electronic structure
    Total number of core electrons                                          0.00
    Total number of valence electrons                                       1.00
    Total number of electrons                                               1.00
    Multiplicity                                                   not specified
    S      1.00
 

 *******************************************************************************
                  Iteration          Convergence                     Energy [au]
 *******************************************************************************
                          1        0.250972E-02                  -0.375256815885
                          2        0.570752E-04                  -0.375258666164
                          3        0.832405E-09                  -0.375258667122

 Energy components [Hartree]           Total Energy ::           -0.375258667122
                                        Band Energy ::           -0.076317618391
                                     Kinetic Energy ::            0.771356566341
                                   Potential Energy ::           -1.146615233463
                                      Virial (-V/T) ::            1.486491829455
                                        Core Energy ::           -0.456090715790
                                          XC Energy ::           -0.314218627334
                                     Coulomb Energy ::            0.395050676003
                       Total Pseudopotential Energy ::           -1.238482237174
                       Local Pseudopotential Energy ::           -1.238482237174
                    Nonlocal Pseudopotential Energy ::            0.000000000000
                                        Confinement ::            0.110349550431

 Orbital energies  State     L     Occupation   Energy[a.u.]          Energy[eV]

                       1     0          1.000      -0.076318           -2.076708
 

 Total Electron Density at R=0:                                         0.425022
 Re-scaling the density matrix to get the right number of electrons
                  # Electrons              Trace(P)               Scaling factor
                         1744              1744.000                        1.000


 SCF WAVEFUNCTION OPTIMIZATION

  ----------------------------------- OT ---------------------------------------
  Minimizer      : CG                  : conjugate gradient
  Preconditioner : FULL_ALL            : diagonalization, state selective
[...]
 flops   912 x    64 x    32        2550141812736     100.0%      0.0%      0.0%
 flops   944 x    32 x    64        2639620472832     100.0%      0.0%      0.0%
 flops   944 x    64 x    32        2639620472832     100.0%      0.0%      0.0%
 flops    25 x    13 x    32        2684738534400     100.0%      0.0%      0.0%
 flops   224 x    64 x    64        2699619729408     100.0%      0.0%      0.0%
 flops    13 x    25 x    32        2741202796800     100.0%      0.0%      0.0%
 flops   936 x    64 x   170        2755622338560     100.0%      0.0%      0.0%
 flops   912 x    64 x    64        2975165448192     100.0%      0.0%      0.0%
 flops   944 x    64 x    64        3079557218304     100.0%      0.0%      0.0%
 flops    25 x    13 x    64        3132194956800     100.0%      0.0%      0.0%
 flops    13 x    25 x    64        3198069929600     100.0%      0.0%      0.0%
 flops   936 x    32 x    32        4486715670528     100.0%      0.0%      0.0%
 flops   936 x    64 x    32        5234501615616     100.0%      0.0%      0.0%
 flops   936 x    32 x    64        5234501615616     100.0%      0.0%      0.0%
 flops    25 x    25 x    32        5289960960000     100.0%      0.0%      0.0%
 flops   936 x    64 x    64        6106918551552     100.0%      0.0%      0.0%
 flops    25 x    25 x    64        6171621120000     100.0%      0.0%      0.0%
 flops    13 x    32 x    13        9773399900160     100.0%      0.0%      0.0%
 flops    13 x    32 x    25       19830839558400     100.0%      0.0%      0.0%
 flops    25 x    32 x    13       19830839558400     100.0%      0.0%      0.0%
 flops    25 x    32 x    25       38270361600000     100.0%      0.0%      0.0%
 flops inhomo. stacks              61189310955520     100.0%      0.0%      0.0%
 flops total                       280.450805E+12     100.0%      0.0%      0.0%
 flops max/rank                      5.056770E+12     100.0%      0.0%      0.0%
 matmuls inhomo. stacks                   7279360     100.0%      0.0%      0.0%
 matmuls total                         5565298620     100.0%      0.0%      0.0%
 number of processed stacks             124546948     100.0%      0.0%      0.0%
 average stack size                                    44.7       0.0       0.0
 marketing flops                   302.080217E+12
 -------------------------------------------------------------------------------
 # multiplications                          32697
 max memory usage/rank               1.302684E+09
 # max total images/rank                        5
 # max 3D layers                                1
 # MPI messages exchanged               298196640
 MPI messages size (bytes):
  total size                        31.646867E+12
  min size                           0.000000E+00
  max size                           1.706752E+06
  average size                     106.127508E+03
 MPI breakdown and total messages size (bytes):
             size <=      128              637260                        0
       128 < size <=     8192            49626252             406538256384
      8192 < size <=    32768            88214568            1689639724032
     32768 < size <=   131072           125290560            8313600786432
    131072 < size <=  4194304            34428000           21235029536576
   4194304 < size <= 16777216                   0                        0
  16777216 < size                               0                        0
 -------------------------------------------------------------------------------

 *** WARNING in dbcsr/mm/dbcsr_mm.F:268 :: Using a non-square number of ***
 *** MPI ranks might lead to poor performance.                          ***
 *** Used ranks: 80                                                     ***
 *** Suggested: 81 169                                                  ***

 -------------------------------------------------------------------------------
 
 MEMORY| Estimated peak process memory [MiB]                                1253

 -------------------------------------------------------------------------------
 ----                             MULTIGRID INFO                            ----
 -------------------------------------------------------------------------------
 count for grid        1:         423089          cutoff [a.u.]          600.00
 count for grid        2:        3385520          cutoff [a.u.]          200.00
 count for grid        3:        3088445          cutoff [a.u.]           66.67
 count for grid        4:        4530069          cutoff [a.u.]           22.22
 count for grid        5:        4287399          cutoff [a.u.]            7.41
 total gridlevel count  :       15714522

 -------------------------------------------------------------------------------
 -                                                                             -
 -                         MESSAGE PASSING PERFORMANCE                         -
 -                                                                             -
 -------------------------------------------------------------------------------

 ROUTINE             CALLS      AVE VOLUME [Bytes]
 MP_Group             1717
 MP_Bcast            41459                  15115.
 MP_Allreduce       274853                    196.
 MP_Sync              1271
 MP_Alltoall        153953                5710976.
 MP_SendRecv          8848                   5911.
 MP_ISendRecv       838032                 127104.
 MP_Wait           7282656
 MP_comm_split        1266
 MP_ISend          8379242                 105259.
 MP_IRecv          8379242                 104600.
 MP_Recv               513                 159744.
 MP_Memory         3705380
 -------------------------------------------------------------------------------


 -------------------------------------------------------------------------------
 -                                                                             -
 -                           R E F E R E N C E S                               -
 -                                                                             -
 -------------------------------------------------------------------------------
 
 CP2K version 7.0 (Development Version), the CP2K developers group (2018).
 CP2K is freely available from https://www.cp2k.org/ .

 Schuett, Ole; Messmer, Peter; Hutter, Juerg; VandeVondele, Joost. 
 Electronic Structure Calculations on Graphics Processing Units, John Wiley & Sons, Ltd, 173-190 (2016). 
 GPU-Accelerated Sparse Matrix-Matrix Multiplication for Linear Scaling Density Functional Theory.
 http://dx.doi.org/10.1002/9781118670712.ch8


 Borstnik, U; VandeVondele, J; Weber, V; Hutter, J. 
 PARALLEL COMPUTING, 40 (5-6), 47-58 (2014). 
 Sparse matrix multiplication: The distributed block-compressed sparse
 row library.
 http://dx.doi.org/10.1016/j.parco.2014.03.012


 Hutter, J; Iannuzzi, M; Schiffmann, F; VandeVondele, J. 
 WILEY INTERDISCIPLINARY REVIEWS-COMPUTATIONAL MOLECULAR SCIENCE, 4 (1), 15-25 (2014). 
 CP2K: atomistic simulations of condensed matter systems.
 http://dx.doi.org/10.1002/wcms.1159


 Grimme, S; Ehrlich, S; Goerigk, L. 
 JOURNAL OF COMPUTATIONAL CHEMISTRY, 32, 1456 (2011). 
 Effect of the damping function in dispersion corrected density functional theory.
 http://dx.doi.org/10.1002/jcc.21759


 Grimme, S; Antony, J; Ehrlich, S; Krieg, H. 
 JOURNAL OF CHEMICAL PHYSICS, 132 (15), 154104 (2010). 
 A consistent and accurate ab initio parametrization of density
 functional dispersion correction (DFT-D) for the 94 elements H-Pu.
 http://dx.doi.org/10.1063/1.3382344


 VandeVondele, J; Hutter, J. 
 JOURNAL OF CHEMICAL PHYSICS, 127 (11), 114105 (2007). 
 Gaussian basis sets for accurate calculations on molecular systems in
 gas and condensed phases.
 http://dx.doi.org/10.1063/1.2770708


 Krack, M. 
 THEORETICAL CHEMISTRY ACCOUNTS, 114 (1-3), 145-152 (2005). 
 Pseudopotentials for H to Kr optimized for gradient-corrected
 exchange-correlation functionals.
 http://dx.doi.org/10.1007/s00214-005-0655-y


 VandeVondele, J; Krack, M; Mohamed, F; Parrinello, M; Chassaing, T;
 Hutter, J. COMPUTER PHYSICS COMMUNICATIONS, 167 (2), 103-128 (2005). 
 QUICKSTEP: Fast and accurate density functional calculations using a
 mixed Gaussian and plane waves approach.
 http://dx.doi.org/10.1016/j.cpc.2004.12.014


 Frigo, M; Johnson, SG. 
 PROCEEDINGS OF THE IEEE, 93 (2), 216-231 (2005). 
 The design and implementation of FFTW3.
 http://dx.doi.org/10.1109/JPROC.2004.840301


 Kolafa, J. 
 JOURNAL OF COMPUTATIONAL CHEMISTRY, 25 (3), 335-342 (2004). 
 Time-reversible always stable predictor-corrector method for molecular dynamics of polarizable molecules.
 http://dx.doi.org/10.1002/jcc.10385


 VandeVondele, J; Hutter, J. 
 JOURNAL OF CHEMICAL PHYSICS, 118 (10), 4365-4369 (2003). 
 An efficient orbital transformation method for electronic structure
 calculations.
 http://dx.doi.org/10.1063/1.1543154


 Hartwigsen, C; Goedecker, S; Hutter, J. 
 PHYSICAL REVIEW B, 58 (7), 3641-3662 (1998). 
 Relativistic separable dual-space Gaussian pseudopotentials from H to Rn.
 http://dx.doi.org/10.1103/PhysRevB.58.3641


 Lippert, G; Hutter, J; Parrinello, M. 
 MOLECULAR PHYSICS, 92 (3), 477-487 (1997). 
 A hybrid Gaussian and plane wave density functional scheme.
 http://dx.doi.org/10.1080/002689797170220


 Perdew, JP; Burke, K; Ernzerhof, M. 
 PHYSICAL REVIEW LETTERS, 77 (18), 3865-3868 (1996). 
 Generalized gradient approximation made simple.
 http://dx.doi.org/10.1103/PhysRevLett.77.3865


 Goedecker, S; Teter, M; Hutter, J. 
 PHYSICAL REVIEW B, 54 (3), 1703-1710 (1996). 
 Separable dual-space Gaussian pseudopotentials.
 http://dx.doi.org/10.1103/PhysRevB.54.1703


 -------------------------------------------------------------------------------
 -                                                                             -
 -                                T I M I N G                                  -
 -                                                                             -
 -------------------------------------------------------------------------------
 SUBROUTINE                       CALLS  ASD         SELF TIME        TOTAL TIME
                                MAXIMUM       AVERAGE  MAXIMUM  AVERAGE  MAXIMUM
 CP2K                                 1  1.0     0.35     0.39 14118.68 14118.73
 cp_geo_opt                           1  2.0     0.04     0.05 14116.86 14116.88
 geoopt_bfgs                          1  3.0     0.14     0.21 14116.82 14116.86
 cp_eval_at                          29  4.0     0.04     0.06 14100.86 14100.89
 qs_forces                           28  5.0     0.04     0.06 13917.30 13917.32
 qs_energies                         29  6.0     0.08     0.13 13784.02 13784.08
 scf_env_do_scf                      29  7.0     0.06     0.13 13570.93 13570.95
 scf_env_do_scf_inner_loop         2310  8.0     0.16     0.28 13195.58 13195.61
 rebuild_ks_matrix                 2338 10.0     0.01     0.01  6050.77  6053.66
 qs_ks_build_kohn_sham_matrix      2338 11.0     0.52     1.15  6050.77  6053.65
 qs_ks_update_qs_env               2349  9.0     0.02     0.03  5805.24  5807.95
 qs_rho_update_rho                 2339  9.0     0.03     0.05  5723.25  5731.19
 calculate_rho_elec                2339 10.0  2929.69  2993.26  5723.22  5731.15
 sum_up_and_integrate              1197 11.9     8.69     9.77  3220.05  3220.57
 integrate_v_rspace                1197 12.9  1695.07  1723.32  3211.36  3213.25
 pw_transfer                      37723 13.4     4.05     4.62  3106.76  3116.39
 fft_wrap_pw1pw2                  33047 14.4     0.39     0.45  3076.01  3085.21
 fft_wrap_pw1pw2_600              18903 15.8   196.32   216.52  2851.04  2856.09
 rs_pw_transfer                   17795 13.0     0.25     0.29  2664.42  2712.68
 fft3d_ps                         33047 16.4   832.87   904.70  2600.89  2628.17
 density_rs2pw                     2339 11.0     0.17     0.19  2520.53  2580.17
 qs_vxc_create                     2338 12.0     0.04     0.06  2276.26  2293.42
 dbcsr_multiply_generic           32697 13.8     2.10     2.84  1958.30  1963.23
 qs_scf_new_mos                    2310  9.0     0.02     0.02  1903.00  1907.15
 qs_scf_loop_do_ot                 2310 10.0     0.07     0.17  1902.98  1907.13
 mp_waitall_1                   6635826 16.8  1783.82  1868.76  1783.82  1868.76
 ot_scf_mini                       2310 11.0     0.16     0.28  1737.30  1739.55
 mp_alltoall_z22v                 33047 18.4  1513.47  1661.06  1513.47  1661.06
 xc_vxc_pw_create                  1197 12.9    62.15    71.72  1568.17  1585.33
 multiply_cannon                  32697 14.8    10.28    10.87  1514.11  1544.07
 mp_waitany                      646830 14.9  1240.45  1348.88  1240.45  1348.88
 xc_rho_set_and_dset_create        2338 14.0    10.18    10.92  1303.61  1323.27
 potential_pw2rs                   1197 13.9     0.87     0.99  1213.61  1215.54
 rs_pw_transfer_RS2PW_600          2397 13.0   410.53   455.03  1130.64  1178.26
 x_to_yz                          14141 18.1   142.38   163.38  1004.02  1048.28
 multiply_cannon_metrocomm3      653940 15.8     1.74     1.83   908.31  1025.46
 ot_mini                           2310 12.0     0.01     0.02   876.41   879.06
 yz_to_x                          11834 16.9    88.49    94.49   738.67   815.17
 xc_exc_calc                       1141 13.0     5.14     5.76   708.04   708.15
 rs_pw_transfer_PW2RS_600          1254 15.7   251.02   274.25   689.29   695.80
 qs_ot_get_derivative              1169 13.0     0.01     0.03   547.08   549.47
 multiply_cannon_metrocomm1      653940 15.8     1.98     2.11   343.67   443.97
 mp_alltoall_d11v                 24080 15.9   380.54   424.75   380.54   424.75
 rs_distribute_matrix              3564 12.0     4.03     8.79   371.64   415.91
 init_scf_loop                       39  8.0     0.01     0.03   374.76   374.77
 qs_ot_get_p                       2349 12.0     0.04     0.08   361.75   366.48
 mp_sum_d                         44015 14.6   282.48   343.60   282.48   343.60
 ot_new_cg_direction               1169 13.0     0.02     0.03   322.77   322.86
 apply_preconditioner_dbcsr        1208 14.0     0.00     0.00   319.25   320.74
 apply_all                         1208 15.0     0.13     0.19   319.25   320.74
 -------------------------------------------------------------------------------

 The number of warnings for this run is : 2
 
 -------------------------------------------------------------------------------
  **** **** ******  **  PROGRAM ENDED AT                 2019-05-25 04:58:31.492
 ***** ** ***  *** **   PROGRAM RAN ON            blg4216.int.ets1.calculquebec.
 **    ****   ******    PROGRAM RAN BY                                       rzk
 ***** **    ** ** **   PROGRAM PROCESS ID                                338805
  **** **  *******  **  PROGRAM STOPPED IN /lustre03/project/6004141/rzk/GaN-car
                                           bene/00-Surface/00-Preoptimization/44
                                           3-capped
[1558774712.162489] [blg4216:338819:0]          mpool.c:38   UCX  WARN  object 0x70402c0 was not returned to mpool ucp_requests
[1558774712.162543] [blg4216:338819:0]          mpool.c:38   UCX  WARN  object 0x7041ec0 was not returned to mpool ucp_requests
[1558774712.162545] [blg4216:338819:0]          mpool.c:38   UCX  WARN  object 0x70441c0 was not returned to mpool ucp_requests
[1558774712.193021] [blg4216:338806:0]          mpool.c:38   UCX  WARN  object 0x617c540 was not returned to mpool ucp_requests
[1558774712.193067] [blg4216:338806:0]          mpool.c:38   UCX  WARN  object 0x61838c0 was not returned to mpool ucp_requests
[1558774712.193069] [blg4216:338806:0]          mpool.c:38   UCX  WARN  object 0x61869c0 was not returned to mpool ucp_requests
[1558774712.193071] [blg4216:338806:0]          mpool.c:38   UCX  WARN  object 0x5991780 was not returned to mpool ucp_requests
[1558774712.175511] [blg4216:338810:0]          mpool.c:38   UCX  WARN  object 0x5ae5f40 was not returned to mpool ucp_requests
[1558774712.195170] [blg4216:338816:0]          mpool.c:38   UCX  WARN  object 0x6c8bc00 was not returned to mpool ucp_requests
[1558774712.195223] [blg4216:338816:0]          mpool.c:38   UCX  WARN  object 0x6c8d480 was not returned to mpool ucp_requests
[1558774712.197322] [blg4216:338820:0]          mpool.c:38   UCX  WARN  object 0x6f5bf80 was not returned to mpool ucp_requests
[1558774712.197372] [blg4216:338820:0]          mpool.c:38   UCX  WARN  object 0x6d16540 was not returned to mpool ucp_requests
[1558774712.215424] [blg4216:338815:0]          mpool.c:38   UCX  WARN  object 0x62d6d40 was not returned to mpool ucp_requests
[1558774712.215482] [blg4216:338815:0]          mpool.c:38   UCX  WARN  object 0x6046780 was not returned to mpool ucp_requests
[1558774712.215484] [blg4216:338815:0]          mpool.c:38   UCX  WARN  object 0x6048540 was not returned to mpool ucp_requests
[1558774712.170178] [blg4216:338813:0]          mpool.c:38   UCX  WARN  object 0x6401d40 was not returned to mpool ucp_requests
[1558774712.170220] [blg4216:338813:0]          mpool.c:38   UCX  WARN  object 0x5c7eac0 was not returned to mpool ucp_requests
[1558774712.208996] [blg4216:338805:0]          mpool.c:38   UCX  WARN  object 0x67e8500 was not returned to mpool ucp_requests
[1558774712.209052] [blg4216:338805:0]          mpool.c:38   UCX  WARN  object 0x67e8880 was not returned to mpool ucp_requests
[1558774712.209054] [blg4216:338805:0]          mpool.c:38   UCX  WARN  object 0x60119c0 was not returned to mpool ucp_requests
[1558774712.209055] [blg4216:338805:0]          mpool.c:38   UCX  WARN  object 0x6013240 was not returned to mpool ucp_requests
[1558774712.204834] [blg4216:338818:0]          mpool.c:38   UCX  WARN  object 0x6481640 was not returned to mpool ucp_requests
[1558774712.204882] [blg4216:338818:0]          mpool.c:38   UCX  WARN  object 0x6484c80 was not returned to mpool ucp_requests
[1558774712.204883] [blg4216:338818:0]          mpool.c:38   UCX  WARN  object 0x6486340 was not returned to mpool ucp_requests
[1558774712.139348] [blg4216:338807:0]          mpool.c:38   UCX  WARN  object 0x6a0af80 was not returned to mpool ucp_requests
[1558774712.139400] [blg4216:338807:0]          mpool.c:38   UCX  WARN  object 0x632b900 was not returned to mpool ucp_requests
[1558774712.139402] [blg4216:338807:0]          mpool.c:38   UCX  WARN  object 0x632e300 was not returned to mpool ucp_requests
[1558774712.139403] [blg4216:338807:0]          mpool.c:38   UCX  WARN  object 0x63300c0 was not returned to mpool ucp_requests
[1558774712.215945] [blg4216:338814:0]          mpool.c:38   UCX  WARN  object 0x6ef3ec0 was not returned to mpool ucp_requests
[1558774712.215999] [blg4216:338814:0]          mpool.c:38   UCX  WARN  object 0x6ef92c0 was not returned to mpool ucp_requests
[1558774712.215744] [blg4216:338817:0]          mpool.c:38   UCX  WARN  object 0x72c36c0 was not returned to mpool ucp_requests
[1558774712.215800] [blg4216:338817:0]          mpool.c:38   UCX  WARN  object 0x7078100 was not returned to mpool ucp_requests
[1558774712.182072] [blg4216:338812:0]          mpool.c:38   UCX  WARN  object 0x69b7800 was not returned to mpool ucp_requests
[1558774712.182122] [blg4216:338812:0]          mpool.c:38   UCX  WARN  object 0x69bf600 was not returned to mpool ucp_requests
[1558774712.206422] [blg4216:338808:0]          mpool.c:38   UCX  WARN  object 0x66782c0 was not returned to mpool ucp_requests
[1558774712.206476] [blg4216:338808:0]          mpool.c:38   UCX  WARN  object 0x667e680 was not returned to mpool ucp_requests
[1558774712.206478] [blg4216:338808:0]          mpool.c:38   UCX  WARN  object 0x66800c0 was not returned to mpool ucp_requests
[1558774712.206479] [blg4216:338808:0]          mpool.c:38   UCX  WARN  object 0x5ec06c0 was not returned to mpool ucp_requests
