     208
 i =        1, E =     -8127.2648040213
 Ga        -0.0006863140        0.0003114597       -0.0541173935
  N        -0.0005864043        1.8762956876        0.6726631376
 Ga         0.0018569538        1.8703752374        2.6200161155
  N         0.0008752150       -0.0008605633        3.2333625656
 Ga         0.0009299535       -0.0005366336        5.1883259222
  N        -0.0005666120        1.8730602749        5.8030009048
 Ga        -0.0001062123        1.8739811894        7.7721329819
  N         0.0000630350       -0.0005313910        8.4074592835
 Ga         0.0005151829       -0.0018096915       10.3909628013
  N         0.0004223814        1.8728444075       11.0233965653
 Ga         0.0008589309        1.8705685930       13.0250505832
  N        -0.0017220728       -0.0034624849       13.4956601460
 Ga        -1.6238326000        2.8100856635       -0.0590797153
  N        -1.6204271974        4.6863569468        0.6668154397
 Ga        -1.6221595174        4.6822138751        2.6179428363
  N        -1.6208811747        2.8099804654        3.2312464475
 Ga        -1.6226536255        2.8101363456        5.1884565110
  N        -1.6235160813        4.6843838301        5.8022037971
 Ga        -1.6227862319        4.6844131805        7.7719963665
  N        -1.6223002311        2.8107649983        8.4056152380
 Ga        -1.6218440094        2.8114697508       10.3875360863
  N        -1.6237132740        4.6843730571       11.0233647226
 Ga        -1.6259615346        4.6858762470       13.0243587781
  N        -1.6199358924        2.8110078274       13.4885617223
 Ga        -3.2468124861        5.6231572480       -0.0589874029
  N        -3.2442270334        7.4941996118        0.6701625577
 Ga        -3.2465068326        7.4976694245        2.6184840741
  N        -3.2450353745        5.6215337700        3.2282942997
 Ga        -3.2461592696        5.6217979183        5.1881464782
  N        -3.2457432902        7.4954555728        5.8025369680
 Ga        -3.2453907282        7.4947397551        7.7724423634
  N        -3.2456737361        5.6203296482        8.4053617516
 Ga        -3.2466935946        5.6212754888       10.3878900786
  N        -3.2412017898        7.4943235092       11.0271589358
 Ga        -3.2450751908        7.4984657370       13.0247825828
  N        -3.2508111229        5.6233299739       13.4879114828
 Ga        -4.8700055929        8.4331266237       -0.0604454939
  N        -4.8692295027       10.3041714877        0.6741230017
 Ga        -4.8677788713       10.3068795163        2.6210459636
  N        -4.8687842297        8.4322832960        3.2320604689
 Ga        -4.8684016595        8.4332185517        5.1881656872
  N        -4.8683317277       10.3061238900        5.8040745489
 Ga        -4.8678284638       10.3052622299        7.7732373102
  N        -4.8673123144        8.4317286825        8.4079297483
 Ga        -4.8643742550        8.4325172006       10.3911573439
  N        -4.8667226490       10.3070306334       11.0214853658
 Ga        -4.8680551299       10.3063129166       13.0235409981
  N        -4.8686704602        8.4329012598       13.4948482997
 Ga         3.2437338330        0.0005285253       -0.0521101162
  N         3.2474496848        1.8762414289        0.6716780146
 Ga         3.2440817641        1.8717868343        2.6199500862
  N         3.2465809430       -0.0006248034        3.2319642006
 Ga         3.2449183896       -0.0001857300        5.1887102547
  N         3.2456602946        1.8736095018        5.8032311465
 Ga         3.2463359768        1.8748766151        7.7726747178
  N         3.2463408515        0.0009232172        8.4062450889
 Ga         3.2469456745        0.0004791951       10.3897388990
  N         3.2467854912        1.8758843510       11.0229742348
 Ga         3.2457653902        1.8758412056       13.0241210789
  N         3.2459046036        0.0026479514       13.4900142467
 Ga         1.6217747247        2.8115509140       -0.0542212718
  N         1.6233237367        4.6878122718        0.6690197722
 Ga         1.6212817056        4.6811596569        2.6175108162
  N         1.6228863179        2.8103698474        3.2322446001
 Ga         1.6223581379        2.8090990921        5.1889005137
  N         1.6231202977        4.6840244054        5.8023728154
 Ga         1.6223872272        4.6843346015        7.7722339791
  N         1.6226046716        2.8103573899        8.4057434203
 Ga         1.6231710851        2.8090736209       10.3879948807
  N         1.6232632432        4.6831951912       11.0241366557
 Ga         1.6189549961        4.6835287666       13.0259589885
  N         1.6216016628        2.8099466164       13.4897104623
 Ga         0.0001385049        5.6243987963       -0.0618306656
  N         0.0001562312        7.4954436465        0.6709153616
 Ga         0.0000899878        7.4950125524        2.6165362259
  N        -0.0000986959        5.6218477730        3.2304951977
 Ga        -0.0004318608        5.6205051070        5.1882676827
  N         0.0010056946        7.4956481293        5.8020221036
 Ga         0.0001502037        7.4956628073        7.7725107053
  N        -0.0001232449        5.6215138896        8.4063032497
 Ga        -0.0011125554        5.6200319086       10.3885796711
  N         0.0024408356        7.4935818231       11.0252354555
 Ga         0.0019716023        7.4943417385       13.0267427823
  N        -0.0026156367        5.6209902098       13.4936740070
 Ga        -1.6225764555        8.4316472281       -0.0600265620
  N        -1.6212363058       10.3041565765        0.6688982524
 Ga        -1.6228019107       10.3066798273        2.6195713679
  N        -1.6222022418        8.4320350001        3.2305171311
 Ga        -1.6232368559        8.4327356717        5.1885523521
  N        -1.6228413976       10.3064387115        5.8030583557
 Ga        -1.6221031797       10.3054105262        7.7729703233
  N        -1.6229676898        8.4316702628        8.4049270685
 Ga        -1.6228892750        8.4318393521       10.3870827599
  N        -1.6232680379       10.3019081658       11.0217667323
 Ga        -1.6233769909       10.3082948839       13.0226143091
  N        -1.6208389668        8.4351135255       13.4887764099
 Ga         6.4919194472        0.0029922724       -0.0617826007
  N         6.4931208920        1.8720290427        0.6743707400
 Ga         6.4906365662        1.8747060196        2.6185571102
  N         6.4927572218       -0.0006479337        3.2303497957
 Ga         6.4907033206        0.0005794981        5.1884276033
  N         6.4910607317        1.8738896542        5.8031053663
 Ga         6.4914594777        1.8738800512        7.7736387380
  N         6.4916737563       -0.0005711877        8.4053263986
 Ga         6.4877493001        0.0018905838       10.3876602051
  N         6.4901189871        1.8714526738       11.0234056187
 Ga         6.4890663355        1.8730451949       13.0226728088
  N         6.4895539200        0.0010396594       13.4966470890
 Ga         4.8696037844        2.8103457725       -0.0603556262
  N         4.8703258310        4.6845739128        0.6684368394
 Ga         4.8660673801        4.6842318622        2.6185632390
  N         4.8674673337        2.8105262687        3.2312870755
 Ga         4.8678677410        2.8105848797        5.1884769506
  N         4.8685732898        4.6844076907        5.8026937425
 Ga         4.8690200656        4.6843326918        7.7723373076
  N         4.8687540901        2.8114854781        8.4060751872
 Ga         4.8711631039        2.8109517412       10.3888194213
  N         4.8709642125        4.6859830142       11.0228894163
 Ga         4.8675000021        4.6862610861       13.0241376323
  N         4.8679035377        2.8123694168       13.4898364275
 Ga         3.2441244041        5.6225805588       -0.0588176899
  N         3.2441275876        7.4955589159        0.6682019083
 Ga         3.2464654961        7.4963083010        2.6184173075
  N         3.2430314089        5.6221074413        3.2296609456
 Ga         3.2460822815        5.6208801080        5.1878753657
  N         3.2459266285        7.4947504986        5.8023756001
 Ga         3.2453711217        7.4953958497        7.7723140614
  N         3.2456855160        5.6205882403        8.4072270538
 Ga         3.2472687424        5.6205412319       10.3903361397
  N         3.2475237898        7.4965224930       11.0244746507
 Ga         3.2465383929        7.4962833385       13.0266973879
  N         3.2413906134        5.6206360173       13.4919001419
 Ga         1.6202838771        8.4325604064       -0.0640561565
  N         1.6208007267       10.3029938243        0.6695273956
 Ga         1.6265196531       10.3072689840        2.6183420074
  N         1.6221238789        8.4326067258        3.2308423556
 Ga         1.6242722191        8.4344732499        5.1887447954
  N         1.6231050614       10.3063085133        5.8025817311
 Ga         1.6224178180       10.3056742238        7.7707620071
  N         1.6233360051        8.4329662838        8.4066235725
 Ga         1.6238490115        8.4337919545       10.3892068578
  N         1.6197037234       10.3081218684       11.0229206559
 Ga         1.6202551262       10.3085709805       13.0252939860
  N         1.6232382888        8.4341388650       13.4955891510
 Ga         9.7357495773        0.0022193137       -0.0591676945
  N         9.7358439571        1.8735605173        0.6727574817
 Ga         9.7390943400        1.8728591426        2.6186085681
  N         9.7386113291       -0.0002552761        3.2320112449
 Ga         9.7365678126       -0.0008254983        5.1887935662
  N         9.7364394787        1.8734839451        5.8027546550
 Ga         9.7365477339        1.8747816534        7.7727231396
  N         9.7364868519        0.0002067696        8.4067118280
 Ga         9.7354571387        0.0020595111       10.3898146170
  N         9.7388857479        1.8774867357       11.0245115878
 Ga         9.7381637998        1.8740902641       13.0256464801
  N         9.7357622214        0.0001028157       13.4942742634
 Ga         8.1124238021        2.8095816054       -0.0621383917
  N         8.1167482490        4.6812493402        0.6688054124
 Ga         8.1119761025        4.6852668687        2.6183642296
  N         8.1154220807        2.8104804538        3.2304670721
 Ga         8.1136443026        2.8110642118        5.1885783466
  N         8.1135179531        4.6849373488        5.8022154866
 Ga         8.1140345360        4.6838973213        7.7723378260
  N         8.1139364796        2.8110701380        8.4062441431
 Ga         8.1108729129        2.8087281360       10.3887671110
  N         8.1146528524        4.6818631415       11.0249355714
 Ga         8.1104973376        4.6808963677       13.0236640986
  N         8.1123782497        2.8070422431       13.4891074960
 Ga         6.4913531394        5.6233010812       -0.0582922448
  N         6.4916241675        7.4924804599        0.6726289876
 Ga         6.4905618358        7.4981183225        2.6188020306
  N         6.4896277363        5.6223235303        3.2294788687
 Ga         6.4907404921        5.6221559726        5.1880720927
  N         6.4915101712        7.4958378089        5.8025545485
 Ga         6.4922827917        7.4955866727        7.7719606854
  N         6.4916642433        5.6218692883        8.4067187949
 Ga         6.4929736531        5.6213794856       10.3893223773
  N         6.4933848855        7.4969785363       11.0249520677
 Ga         6.4940863910        7.4959509410       13.0255129974
  N         6.4907510173        5.6228548663       13.4876221516
 Ga         4.8690181639        8.4334762774       -0.0544105106
  N         4.8645744225       10.3054280711        0.6723148020
 Ga         4.8716013914       10.3065566856        2.6204438320
  N         4.8674180333        8.4325669854        3.2317048241
 Ga         4.8690427442        8.4330604407        5.1887367370
  N         4.8687264929       10.3067119948        5.8031367509
 Ga         4.8679034683       10.3056684954        7.7723866528
  N         4.8690663385        8.4311220406        8.4051193551
 Ga         4.8690749158        8.4324377081       10.3869294739
  N         4.8646073917       10.3054439915       11.0222462585
 Ga         4.8659527424       10.3055647804       13.0243645689
  N         4.8717568743        8.4315624582       13.4904239572
  H         4.8681067699        8.4312103309       -1.6034231097
  H         1.6211049193        8.4304450958       -1.6087194806
  H        -1.6229479838        8.4312437690       -1.6065040325
  H        -4.8689209661        8.4297850658       -1.6070994088
  H         6.4936309245        5.6199294252       -1.6058898162
  H         3.2463478467        5.6225283456       -1.6058987651
  H         0.0017868559        5.6240637632       -1.6076430207
  H        -3.2444342967        5.6215731242       -1.6058937094
  H         8.1146726573        2.8093696033       -1.6080271843
  H         4.8706533868        2.8109676996       -1.6073725187
  H         1.6235530556        2.8139612278       -1.6034033978
  H        -1.6233874736        2.8118717317       -1.6062154709
  H        -0.0026249670        0.0004432141       -1.6035559075
  H         3.2456540806        0.0002895393       -1.6024404857
  H         6.4897790002       -0.0012280341       -1.6077280363
  H         9.7341148018       -0.0000159769       -1.6062376506
     208
 i =        2, E =     -8127.3015901825
 Ga        -0.0008186165        0.0009276515       -0.0934194532
  N         0.0002944295        1.8747915289        0.6777182157
 Ga         0.0005301332        1.8722820644        2.6032107667
  N         0.0011980428       -0.0008632582        3.2536708613
 Ga         0.0000428558       -0.0002129866        5.2003614615
  N        -0.0005809369        1.8736567805        5.8283490254
 Ga        -0.0002805442        1.8742700796        7.7937825430
  N         0.0008099503       -0.0021575185        8.4228308984
 Ga        -0.0033586842       -0.0002809591       10.4109833050
  N         0.0025826414        1.8706163416       11.0150716905
 Ga        -0.0005516238        1.8650434551       13.0509185671
  N        -0.0023395157       -0.0074726177       13.4573855172
 Ga        -1.6226316679        2.8108556463       -0.0966169209
  N        -1.6210470287        4.6851612370        0.6736902740
 Ga        -1.6230021212        4.6835986277        2.6011623592
  N        -1.6222444313        2.8109982819        3.2523285730
 Ga        -1.6233066355        2.8104462408        5.1993298040
  N        -1.6229048189        4.6849461543        5.8245008845
 Ga        -1.6225597417        4.6851008943        7.7890059924
  N        -1.6229366576        2.8126620440        8.4191946354
 Ga        -1.6193576187        2.8080935120       10.4063194160
  N        -1.6243212300        4.6836514096       11.0105038143
 Ga        -1.6281763641        4.6865804156       13.0459911864
  N        -1.6164370981        2.8132159772       13.4424276085
 Ga        -3.2466038636        5.6230568317       -0.0968774752
  N        -3.2449541405        7.4942101854        0.6750296651
 Ga        -3.2455514199        7.4956849709        2.6013708085
  N        -3.2456875175        5.6210241493        3.2509441837
 Ga        -3.2461291759        5.6215220136        5.1986279374
  N        -3.2445804824        7.4947405410        5.8266537618
 Ga        -3.2445601928        7.4940490114        7.7922092497
  N        -3.2455645617        5.6188344551        8.4199448070
 Ga        -3.2475444406        5.6237650506       10.4074636993
  N        -3.2411185276        7.4957529678       11.0196264621
 Ga        -3.2419736125        7.5019361021       13.0516782400
  N        -3.2518601161        5.6280583140       13.4397683683
 Ga        -4.8700306345        8.4344188460       -0.0971406188
  N        -4.8692825755       10.3054069965        0.6780325609
 Ga        -4.8671623325       10.3052001210        2.6031906912
  N        -4.8680509998        8.4312410362        3.2536440900
 Ga        -4.8676853814        8.4317434026        5.2002675408
  N        -4.8674774777       10.3063940259        5.8275430420
 Ga        -4.8678436713       10.3047191068        7.7922411135
  N        -4.8650645904        8.4333510189        8.4222180927
 Ga        -4.8614882986        8.4316506680       10.4101688337
  N        -4.8683200864       10.3097061820       11.0084536634
 Ga        -4.8688360173       10.3037722363       13.0461027823
  N        -4.8690508578        8.4300207213       13.4518506216
 Ga         3.2436157990        0.0007570067       -0.0923637949
  N         3.2459807568        1.8743241543        0.6773796665
 Ga         3.2465043770        1.8730663962        2.6032476714
  N         3.2469575825       -0.0006438924        3.2523711364
 Ga         3.2465386995        0.0002042771        5.1994089037
  N         3.2460526914        1.8737849373        5.8269066734
 Ga         3.2464800287        1.8764208632        7.7917230558
  N         3.2476462649        0.0013066029        8.4218808537
 Ga         3.2475022773        0.0038694596       10.4104104334
  N         3.2456362154        1.8804930219       11.0138835382
 Ga         3.2427472520        1.8766418088       13.0501669736
  N         3.2465992507        0.0027042468       13.4400528352
 Ga         1.6216027401        2.8114904230       -0.0941314060
  N         1.6235117104        4.6860255430        0.6754403904
 Ga         1.6221139605        4.6833442728        2.6019702541
  N         1.6234654240        2.8102921438        3.2530469853
 Ga         1.6226287503        2.8104387179        5.2005489823
  N         1.6222358003        4.6849115428        5.8282278948
 Ga         1.6216966028        4.6845646741        7.7938949031
  N         1.6233902732        2.8094674264        8.4193093265
 Ga         1.6196007343        2.8098729279       10.4060280141
  N         1.6248734110        4.6814665980       11.0155422917
 Ga         1.6151261281        4.6823206905       13.0509940220
  N         1.6172794761        2.8097657966       13.4474971922
 Ga        -0.0004864922        5.6233587817       -0.0992306125
  N        -0.0001467503        7.4949597396        0.6748878700
 Ga         0.0004591682        7.4955172227        2.6008091773
  N        -0.0006786609        5.6213469208        3.2518142032
 Ga        -0.0000928236        5.6217179802        5.1988702360
  N         0.0007816149        7.4954304417        5.8272085855
 Ga         0.0013686766        7.4957235467        7.7923537248
  N        -0.0020517583        5.6221450028        8.4210105192
 Ga         0.0025255873        5.6210871838       10.4083625769
  N         0.0049251174        7.4934144127       11.0141635673
 Ga         0.0072920415        7.4919469676       13.0493362497
  N        -0.0048436926        5.6205357153       13.4569680059
 Ga        -1.6236302285        8.4336089398       -0.0975561804
  N        -1.6232682124       10.3047917086        0.6755439673
 Ga        -1.6208255340       10.3062598857        2.6024100049
  N        -1.6229158307        8.4321858320        3.2522812738
 Ga        -1.6222117317        8.4317808645        5.1995543298
  N        -1.6222287740       10.3058020252        5.8258890661
 Ga        -1.6211999291       10.3038778008        7.7904153645
  N        -1.6226201877        8.4320763465        8.4175293169
 Ga        -1.6232865875        8.4278027191       10.4043337029
  N        -1.6256095033       10.2987663497       11.0077147798
 Ga        -1.6208257257       10.3083844139       13.0436896686
  N        -1.6149859995        8.4357993786       13.4445723527
 Ga         6.4905064501        0.0018317092       -0.0977860579
  N         6.4920811731        1.8720121402        0.6761395547
 Ga         6.4917535668        1.8741940260        2.6008117934
  N         6.4925120156        0.0001746500        3.2525197872
 Ga         6.4912705408        0.0008721877        5.1992092808
  N         6.4912408541        1.8738408646        5.8259004542
 Ga         6.4926382800        1.8741676758        7.7914043619
  N         6.4897894256        0.0002639711        8.4194696346
 Ga         6.4907615693        0.0000062371       10.4068331300
  N         6.4858491101        1.8689330081       11.0135029388
 Ga         6.4835673848        1.8715531672       13.0474650666
  N         6.4919140138        0.0010787352       13.4576542410
 Ga         4.8670174807        2.8112096757       -0.0969073219
  N         4.8696882297        4.6844272317        0.6746931511
 Ga         4.8674701188        4.6841980987        2.6015374761
  N         4.8693489791        2.8109673405        3.2527774088
 Ga         4.8688119421        2.8109725399        5.1993538098
  N         4.8679212458        4.6851143469        5.8253121827
 Ga         4.8703214661        4.6855809569        7.7901336418
  N         4.8701103118        2.8125342277        8.4198453584
 Ga         4.8711524581        2.8120419891       10.4074697639
  N         4.8723365268        4.6899679576       11.0133305166
 Ga         4.8666534902        4.6924295799       13.0501472862
  N         4.8650747257        2.8168383988       13.4392939096
 Ga         3.2437805444        5.6228855565       -0.0970604740
  N         3.2449893744        7.4948320261        0.6746613514
 Ga         3.2455817432        7.4953932592        2.6018478151
  N         3.2452477104        5.6213670133        3.2513922602
 Ga         3.2450947930        5.6210836412        5.1986492704
  N         3.2453832012        7.4946764249        5.8274108934
 Ga         3.2451063588        7.4948556703        7.7925399200
  N         3.2473643198        5.6191796181        8.4204042252
 Ga         3.2436082324        5.6194780382       10.4080480971
  N         3.2495749177        7.4941647409       11.0078959668
 Ga         3.2441391625        7.4939801012       13.0438899787
  N         3.2360995248        5.6207492066       13.4519946884
 Ga         1.6211568341        8.4338222157       -0.0998509854
  N         1.6216865279       10.3042387496        0.6740461572
 Ga         1.6244048837       10.3068912867        2.6004309128
  N         1.6230507346        8.4331101981        3.2523837969
 Ga         1.6231332492        8.4328543382        5.1994378529
  N         1.6233306784       10.3057439420        5.8274787409
 Ga         1.6226776054       10.3056750572        7.7926649682
  N         1.6248570618        8.4333699606        8.4202832423
 Ga         1.6256478541        8.4359593769       10.4078907226
  N         1.6208191930       10.3062926675       11.0154763507
 Ga         1.6201450950       10.3076576851       13.0520907544
  N         1.6251282556        8.4344447078       13.4643245976
 Ga         9.7372077548        0.0010738239       -0.0968287394
  N         9.7372191471        1.8722906909        0.6761106886
 Ga         9.7376439566        1.8739191219        2.6015372647
  N         9.7370370654        0.0000596629        3.2529402573
 Ga         9.7364907644        0.0006903286        5.1999643747
  N         9.7362034750        1.8744631487        5.8266608907
 Ga         9.7362514883        1.8752343861        7.7916502419
  N         9.7375574250        0.0019647583        8.4200657711
 Ga         9.7340686693        0.0014862261       10.4076685853
  N         9.7427546406        1.8765902986       11.0185622693
 Ga         9.7394606476        1.8744414642       13.0544250841
  N         9.7359637215        0.0011673271       13.4521028255
 Ga         8.1132508511        2.8111806661       -0.0977137629
  N         8.1157749306        4.6828668380        0.6745679540
 Ga         8.1132589946        4.6844468170        2.6014114643
  N         8.1144228455        2.8109223927        3.2528296249
 Ga         8.1135146245        2.8113933470        5.1995333842
  N         8.1138220074        4.6850411404        5.8248526622
 Ga         8.1141899099        4.6837830679        7.7900117441
  N         8.1141509748        2.8117908341        8.4198485911
 Ga         8.1119296618        2.8050623766       10.4078719770
  N         8.1160991200        4.6765290505       11.0172307995
 Ga         8.1119350985        4.6798793393       13.0511371573
  N         8.1087708385        2.8034375137       13.4390126767
 Ga         6.4897861447        5.6241112900       -0.0961254130
  N         6.4910837704        7.4940449065        0.6768914787
 Ga         6.4912612207        7.4955749085        2.6022337594
  N         6.4908373043        5.6206031693        3.2515818188
 Ga         6.4912303842        5.6216179815        5.1989218032
  N         6.4914987696        7.4953029082        5.8271819049
 Ga         6.4938096528        7.4956532038        7.7924132481
  N         6.4926887454        5.6217987843        8.4226183754
 Ga         6.4946341046        5.6246989454       10.4108481975
  N         6.4917121346        7.5034639594       11.0156140566
 Ga         6.4916269904        7.4950882487       13.0503884923
  N         6.4939390162        5.6236060214       13.4448026971
 Ga         4.8674553766        8.4345522370       -0.0940272401
  N         4.8669526210       10.3054179041        0.6777098062
 Ga         4.8697361550       10.3062288638        2.6033824530
  N         4.8680711545        8.4317571426        3.2524845132
 Ga         4.8688664614        8.4316294627        5.1998807940
  N         4.8678406549       10.3055064452        5.8280887160
 Ga         4.8670525794       10.3054542130        7.7929997200
  N         4.8697658110        8.4304646418        8.4166420952
 Ga         4.8685956170        8.4319261953       10.4024891462
  N         4.8605423360       10.3035266407       11.0082816083
 Ga         4.8647670310       10.3065303629       13.0447676527
  N         4.8684860460        8.4324343522       13.4471406473
  H         4.8684701260        8.4312510923       -1.6372106898
  H         1.6203886977        8.4298533815       -1.6430624349
  H        -1.6227164675        8.4304906362       -1.6407508020
  H        -4.8692020203        8.4297026402       -1.6402190606
  H         6.4944398538        5.6199753389       -1.6395568614
  H         3.2463097271        5.6225767771       -1.6402699036
  H         0.0022821477        5.6248349301       -1.6423868195
  H        -3.2444335141        5.6217595764       -1.6401629427
  H         8.1144325092        2.8081718367       -1.6412608909
  H         4.8715568982        2.8103476539       -1.6403369877
  H         1.6234188167        2.8142367050       -1.6372106415
  H        -1.6239267498        2.8113255195       -1.6397985246
  H        -0.0029285630        0.0004567453       -1.6364034229
  H         3.2449888156        0.0001955998       -1.6355514468
  H         6.4898134065       -0.0011054783       -1.6411070468
  H         9.7333859050        0.0001255240       -1.6398777027
     208
 i =        3, E =     -8127.3143792729
 Ga        -0.0009418831        0.0012178074       -0.1155380543
  N         0.0000794990        1.8738581368        0.6610739500
 Ga         0.0005457419        1.8739878242        2.5794725325
  N         0.0003402348       -0.0005372433        3.2651355807
 Ga         0.0006407140       -0.0005432318        5.2113856031
  N         0.0001359173        1.8735684397        5.8534070261
 Ga        -0.0005085659        1.8724267370        7.8132947761
  N         0.0002503008       -0.0024018507        8.4451658772
 Ga        -0.0013202928       -0.0034736179       10.4334796359
  N         0.0044166778        1.8679972558       11.0016704210
 Ga        -0.0037518077        1.8619765566       13.0762703245
  N        -0.0066153029       -0.0055244276       13.4207176986
 Ga        -1.6222957349        2.8117760127       -0.1181084521
  N        -1.6223230665        4.6841949519        0.6589708396
 Ga        -1.6219944310        4.6849029967        2.5766960015
  N        -1.6229327642        2.8114182234        3.2633709979
 Ga        -1.6227068280        2.8107922320        5.2088777937
  N        -1.6215375431        4.6852969198        5.8516232039
 Ga        -1.6212335526        4.6852673555        7.8127219705
  N        -1.6213880837        2.8110451135        8.4457000989
 Ga        -1.6220656505        2.8098227270       10.4364449542
  N        -1.6194472221        4.6826149567       11.0073047321
 Ga        -1.6249647978        4.6865355828       13.0783487084
  N        -1.6223924873        2.8117902060       13.3821139173
 Ga        -3.2462489080        5.6230701794       -0.1186543778
  N        -3.2463273332        7.4944770818        0.6588540847
 Ga        -3.2439537924        7.4945786066        2.5769800804
  N        -3.2447231948        5.6210213410        3.2621974478
 Ga        -3.2458438785        5.6209259466        5.2072957687
  N        -3.2435157783        7.4949021524        5.8523719542
 Ga        -3.2438341513        7.4944888326        7.8134298502
  N        -3.2449767166        5.6192177870        8.4477995185
 Ga        -3.2449390039        5.6225349311       10.4393071305
  N        -3.2423226127        7.4991731133       11.0096774394
 Ga        -3.2432269769        7.5013790702       13.0814008546
  N        -3.2507411414        5.6292648696       13.3768901845
 Ga        -4.8699878609        8.4345251746       -0.1179681519
  N        -4.8695191314       10.3056441735        0.6609512872
 Ga        -4.8669315388       10.3048625020        2.5796235839
  N        -4.8671354133        8.4305752027        3.2644762810
 Ga        -4.8671429985        8.4321553723        5.2104854504
  N        -4.8671942750       10.3065159452        5.8555445110
 Ga        -4.8668468552       10.3051569264        7.8162532334