     156
 i =        1, E =     -6136.6423688343
 Ga        -0.0031973172       -0.0158329503       -0.5375932912
  N        -0.0002729801        1.8584781303        0.6070007767
 Ga        -0.0003340647        1.8280286746        2.6383722594
  N        -0.0033776887       -0.0156158953        3.2696755698
 Ga        -0.0021654063       -0.0150503950        5.2603940893
  N         0.0008176961        1.8596741679        5.8482856598
 Ga         0.0022941850        1.8581489912        7.8482538448
  N         0.0008330328       -0.0150041988        8.4505817952
 Ga         0.0037455473       -0.0157232853       10.4497939314
  N         0.0042780751        1.8600685837       11.0415891652
 Ga         0.0095830440        1.8622344074       13.0320636246
  N         0.0153249670       -0.0087435469       13.6325426881
 Ga         0.0303971946       -0.0177766356       15.6248404782
  N         0.0199544273        1.8574883352       16.2216206303
 Ga         0.0449055017        1.8471863101       18.2877461548
  N         0.0483859084       -0.0267967662       18.6985697125
 Ga        -1.6230535742        2.7898791167        0.3238570423
  N        -1.6248091664        4.6597399420        0.6067018393
 Ga        -1.5956872994        4.6757304998        2.6367576628
  N        -1.6231061368        2.7899847389        3.2283142728
 Ga        -1.6217674239        2.7906184005        5.2398619940
  N        -1.6212819772        4.6608903194        5.8464755602
 Ga        -1.6191121618        4.6615334802        7.8452141732
  N        -1.6203684810        2.7918365901        8.4511825657
 Ga        -1.6194692179        2.7953416733       10.4471849984
  N        -1.6174700936        4.6668719762       11.0552092856
 Ga        -1.6182022346        4.6713982544       13.0527815747
  N        -1.6072531920        2.7998142247       13.6583884782
 Ga        -1.6007251226        2.8162653614       15.6629182382
  N        -1.5864624745        4.6838287826       16.3114132761
 Ga        -1.5141682049        4.6811933286       18.3867071299
  N        -1.5542639490        2.7884621764       18.7559982931
 Ga        -3.2437384664        5.5955549368        0.3237755281
  N        -3.2373750625        7.4661485288        0.6072587154
 Ga        -3.2641813677        7.4807094066        2.6385113393
  N        -3.2426866714        5.5950413828        3.2286528191
 Ga        -3.2419167664        5.5960176275        5.2401101899
  N        -3.2357830906        7.4663009263        5.8469763056
 Ga        -3.2358779714        7.4670855271        7.8461490693
  N        -3.2398789969        5.5961823135        8.4495006625
 Ga        -3.2389599572        5.5972466097       10.4449718932
  N        -3.2308439969        7.4658279704       11.0556710774
 Ga        -3.2219339981        7.4629738018       13.0544760402
  N        -3.2355984968        5.5972947259       13.6928445172
 Ga        -3.2228059490        5.5920218069       15.7299043183
  N        -3.2086572754        7.4743208657       16.2703951701
 Ga        -3.1859597334        7.4477865218       18.3276794972
  N        -3.1593646518        5.5860389365       18.8509113389
 Ga         3.2425512496       -0.0154444868        0.3241626994
  N         3.2414640792        1.8548065875        0.6064024272
 Ga         3.2696604288        1.8704495149        2.6372709277
  N         3.2428081864       -0.0153017994        3.2283154143
 Ga         3.2440037248       -0.0146001708        5.2399878482
  N         3.2446612706        1.8555405245        5.8474781754
 Ga         3.2471212816        1.8563017863        7.8468951745
  N         3.2448896840       -0.0146523236        8.4498351373
 Ga         3.2477467145       -0.0140898743       10.4453979761
  N         3.2516251284        1.8569310914       11.0512719476
 Ga         3.2584321337        1.8540068299       13.0486346802
  N         3.2577902398       -0.0166409310       13.6599093247
 Ga         3.2697093369       -0.0187066778       15.6657582586
  N         3.2837235749        1.8547559227       16.2307451655
 Ga         3.3198367315        1.8604549243       18.2551432310
  N         3.3062626701       -0.0255695646       18.7101628778
 Ga         1.6221356928        2.7905839608        0.3237592189
  N         1.6293374375        4.6603703946        0.6070226705
 Ga         1.6011634374        4.6758752687        2.6371215781
  N         1.6229364506        2.7900955452        3.2290499453
 Ga         1.6243016434        2.7909480218        5.2409125938
  N         1.6297316299        4.6611463208        5.8483939489
 Ga         1.6302405129        4.6616181029        7.8483568426
  N         1.6261115216        2.7902909936        8.4496057472
 Ga         1.6296901247        2.7921013910       10.4450685314
  N         1.6277801131        4.6624085712       11.0491181276
 Ga         1.6291862750        4.6646833615       13.0447870516
  N         1.6312530406        2.7873494681       13.6464524793
 Ga         1.6546478415        2.7849123724       15.6410961285
  N         1.6292697301        4.6649523739       16.1842981508
 Ga         1.6785606631        4.6401978454       18.1815523523
  N         1.6849306784        2.7775457747       18.6348372854
 Ga         0.0031267183        5.5957808694       -0.5460656270
  N         0.0059631098        7.4707668160        0.6066886263
 Ga         0.0060798350        7.4382898535        2.6368381220
  N         0.0030123829        5.5951899772        3.2695639768
 Ga         0.0046923400        5.5962070425        5.2598039600
  N         0.0074733333        7.4707308508        5.8477448336
 Ga         0.0089326040        7.4693612809        7.8473757749
  N         0.0049621589        5.5956921658        8.4474810697
 Ga         0.0067257150        5.5972411063       10.4447678224
  N         0.0116956193        7.4694133187       11.0449861569
 Ga         0.0151597467        7.4714490987       13.0370913420
  N         0.0057182386        5.6027660123       13.6455763910
 Ga         0.0065347687        5.6014661356       15.6418039485
  N         0.0373076183        7.4660166148       16.2690317554
 Ga         0.0724571255        7.4320274971       18.3566208849
  N         0.1399393486        5.5807714522       18.9015857278
 Ga         6.4873193491       -0.0150112499        0.3233771386
  N         6.4933547167        1.8552431910        0.6060746526
 Ga         6.4660943467        1.8703010013        2.6370704368
  N         6.4880554833       -0.0152152067        3.2289289616
 Ga         6.4897978191       -0.0146100300        5.2408842238
  N         6.4945649794        1.8559331316        5.8479426550
 Ga         6.4944337224        1.8568654328        7.8474995306
  N         6.4910159736       -0.0135251658        8.4515689004
 Ga         6.4945815541       -0.0112809786       10.4481780051
  N         6.4964375397        1.8611463896       11.0529555745
 Ga         6.5008711837        1.8654487634       13.0501480718
  N         6.4899761376       -0.0070101923       13.6381417319
 Ga         6.5090563095       -0.0000615405       15.6389902499
  N         6.5163463998        1.8736522231       16.2290122325
 Ga         6.5723815416        1.8766468726       18.2702248991
  N         6.5610279226       -0.0215184859       18.6562112437
 Ga         4.8675978335        2.7916175958       -0.5407215202
  N         4.8709926272        4.6643843775        0.6069480661
 Ga         4.8708433198        4.6332331515        2.6375472124
  N         4.8683124004        2.7899033218        3.2693053038
 Ga         4.8696074209        2.7911733614        5.2595468979
  N         4.8722548621        4.6651826369        5.8481325483
 Ga         4.8727488923        4.6640315337        7.8478191671
  N         4.8709689994        2.7914536620        8.4504525261
 Ga         4.8737817251        2.7956353869       10.4497057333
  N         4.8796209683        4.6660274238       11.0584369093
 Ga         4.8809775897        4.6697734263       13.0609302673
  N         4.8759856176        2.7957692221       13.6539761383
 Ga         4.8829233930        2.8016649043       15.6676453050
  N         4.8620021597        4.6739000526       16.1683592264
 Ga         4.9324398082        4.6623685719       19.0941354554
  N         4.9399256179        2.7839314503       18.7400245173
 Ga         3.2489113763        5.5950410041        0.3233201754
  N         3.2480355018        7.4655300671        0.6067694168
 Ga         3.2754812607        7.4805719284        2.6380885398
  N         3.2486685051        5.5952812100        3.2291039589
 Ga         3.2500909774        5.5963526926        5.2407792402
  N         3.2504882456        7.4661954597        5.8494243906
 Ga         3.2531344503        7.4666198606        7.8498662133
  N         3.2515170085        5.5960003284        8.4551809126
 Ga         3.2549091647        5.5976558364       10.4543144344
  N         3.2566821959        7.4714415066       11.0507083608
 Ga         3.2573582638        7.4729151787       13.0479258777
  N         3.2491356633        5.5987119912       13.6294890660
 Ga         3.2565318365        5.6059219287       15.6352783854
  N         3.2799776731        7.4864981686       16.1586919831
 Ga         3.3269871502        7.4923499611       18.1719833148
  N         3.3628682453        5.5701348381       18.4641914655
  O         1.5996457363        5.1094985563       21.2233860928
  H         0.9858358741        5.4040678624       20.4704629754
  C         0.8264072592        3.9584761677       21.8993341988
  H         0.1080975151        3.5347937764       21.1813336479
  H         1.5569863962        3.1951767815       22.1946162456
  H         0.3094144855        4.3727948101       22.7775203915
  O         4.2384022287        4.7158523157       21.0728482619
  H         3.2305345482        4.8655512411       21.0746365127
  C         4.5512919041        3.5972575965       21.9427516075
  H         4.1180797469        2.6628025270       21.5601072590
  H         5.6430502871        3.5046300301       21.9647658488
  H         4.1786834666        3.8115661339       22.9524485685
     156
 i =        2, E =     -6136.6450813548
 Ga        -0.0031930711       -0.0158451588       -0.5422690840
  N        -0.0002299552        1.8587214366        0.6074159905
 Ga        -0.0002311310        1.8277250939        2.6380374064
  N        -0.0033226718       -0.0156321284        3.2702034114
 Ga        -0.0021243862       -0.0150368911        5.2604524244
  N         0.0009356147        1.8597702470        5.8486370504
 Ga         0.0025173638        1.8583299840        7.8485181991
  N         0.0010239149       -0.0150655866        8.4498247953
 Ga         0.0042408587       -0.0153917573       10.4486958795
  N         0.0043303650        1.8599120856       11.0453715248
 Ga         0.0108677260        1.8618055561       13.0369733209
  N         0.0168009630       -0.0091192848       13.6384699910
 Ga         0.0331635761       -0.0254987598       15.6316382670
  N         0.0255956009        1.8564128188       16.2184990989
 Ga         0.0469887890        1.8513910756       18.2821514804
  N         0.0433372590       -0.0204849045       18.6901917406
 Ga        -1.6226542667        2.7897018474        0.3241188894
  N        -1.6247240751        4.6597273800        0.6063910350
 Ga        -1.5958392616        4.6756344056        2.6366862458
  N        -1.6229689843        2.7898824722        3.2283504844
 Ga        -1.6217057732        2.7907334164        5.2398535947
  N        -1.6211410235        4.6610276558        5.8468219979
 Ga        -1.6190285376        4.6618738763        7.8454911962
  N        -1.6203830474        2.7920206122        8.4510069535
 Ga        -1.6191794314        2.7955210924       10.4468218328
  N        -1.6176580684        4.6666296190       11.0561152560
 Ga        -1.6189234625        4.6705097518       13.0539959231
  N        -1.6058993361        2.7993428126       13.6632747808
 Ga        -1.6018195841        2.8150567845       15.6679395086
  N        -1.5888993788        4.6800178940       16.3117515859
 Ga        -1.5150690433        4.6820223073       18.3878642842
  N        -1.5524166918        2.7870007978       18.7413556678
 Ga        -3.2436330761        5.5959142042        0.3240736771
  N        -3.2370596572        7.4660130373        0.6076757766
 Ga        -3.2643640627        7.4808060100        2.6382075373
  N        -3.2426747830        5.5951126050        3.2286831412
 Ga        -3.2418490348        5.5960081033        5.2400436652
  N        -3.2356329680        7.4663486431        5.8471368408
 Ga        -3.2356165713        7.4670307862        7.8461492363
  N        -3.2398356414        5.5963390363        8.4500672373
 Ga        -3.2390698117        5.5972782500       10.4457719542
  N        -3.2310243801        7.4661422245       11.0554318414
 Ga        -3.2224859339        7.4622750888       13.0542151543
  N        -3.2365268017        5.5969038273       13.6923924152
 Ga        -3.2240355517        5.5903247605       15.7299432206
  N        -3.2041289094        7.4661807655       16.2752291536
 Ga        -3.1918554253        7.4446884844       18.3316644870
  N        -3.1559859808        5.5858124091       18.8576319759
 Ga         3.2423299240       -0.0156503863        0.3244320433
  N         3.2416712173        1.8548973894        0.6060475715
 Ga         3.2696205538        1.8703831794        2.6372948784
  N         3.2427614886       -0.0153489084        3.2283371170
 Ga         3.2442020815       -0.0145672736        5.2399116653
  N         3.2447178369        1.8555596439        5.8477252060
 Ga         3.2472676732        1.8562979809        7.8469534703
  N         3.2448537068       -0.0145294399        8.4499708480
 Ga         3.2475416543       -0.0138978897       10.4454102211
  N         3.2519542688        1.8570962693       11.0514583865
 Ga         3.2594295145        1.8531478268       13.0485158232
  N         3.2559401964       -0.0165799920       13.6608487294
 Ga         3.2646435464       -0.0183456816       15.6670076119
  N         3.2842727395        1.8513911341       16.2367737360
 Ga         3.3231761974        1.8608661598       18.2628348333
  N         3.2997614390       -0.0234513539       18.7262224441
 Ga         1.6218415967        2.7904261769        0.3241015600
  N         1.6293340911        4.6603673617        0.6067615562
 Ga         1.6014892761        4.6757258449        2.6370676229
  N         1.6229357187        2.7900055035        3.2290962700
 Ga         1.6244207981        2.7910842863        5.2408396896
  N         1.6297762516        4.6612360105        5.8486545283
 Ga         1.6303075677        4.6618326791        7.8484751873
  N         1.6264612051        2.7905246160        8.4496770073
 Ga         1.6296892468        2.7921437236       10.4450950245
  N         1.6278071445        4.6625845711       11.0476118167
 Ga         1.6268021191        4.6653483976       13.0431511862
  N         1.6337704900        2.7884196836       13.6470602046
 Ga         1.6589538123        2.7876297937       15.6407243289
  N         1.6265696877        4.6638267011       16.1784236601
 Ga         1.6788556169        4.6424172117       18.1761407957
  N         1.6851475924        2.7811066008       18.6251534381
 Ga         0.0032250068        5.5957224306       -0.5445653129
  N         0.0060111005        7.4707110421        0.6064439961
 Ga         0.0061456870        7.4385312864        2.6368235985
  N         0.0031106371        5.5951786077        3.2691265953
 Ga         0.0048215282        5.5962756664        5.2595792960
  N         0.0075521928        7.4707070213        5.8482414497
 Ga         0.0088950468        7.4693752382        7.8478012339
  N         0.0050997706        5.5957212174        8.4476186283
 Ga         0.0064152140        5.5970464589       10.4448902364
  N         0.0116721657        7.4695570202       11.0442836162
 Ga         0.0144622320        7.4726543252       13.0364325621
  N         0.0042172941        5.6040903421       13.6449254592
 Ga         0.0063877506        5.5988526078       15.6423767441
  N         0.0397437111        7.4709100320       16.2603531848
 Ga         0.0624169031        7.4367029227       18.3499022063
  N         0.1392702554        5.5846135204       18.8959926974
 Ga         6.4876546125       -0.0152248271        0.3236823793
  N         6.4932473712        1.8553379826        0.6057160297
 Ga         6.4662232129        1.8701884554        2.6370794322
  N         6.4882165817       -0.0152662072        3.2289886820
 Ga         6.4897971256       -0.0146345119        5.2408253492
  N         6.4946523315        1.8559051907        5.8481976568
 Ga         6.4943859178        1.8569135179        7.8476147252
  N         6.4910339605       -0.0134309194        8.4512709665
 Ga         6.4945975532       -0.0106065373       10.4478528224
  N         6.4967083714        1.8617994300       11.0543823891
 Ga         6.5013763175        1.8670971131       13.0519966027
  N         6.4913471839       -0.0059340895       13.6342325637
 Ga         6.5108386394        0.0014721736       15.6338510556
  N         6.5165989779        1.8716212547       16.2343306028
 Ga         6.5711960449        1.8732112520       18.2764524481
  N         6.5576908307       -0.0249587904       18.6631591582
 Ga         4.8676590740        2.7915170746       -0.5384772552
  N         4.8710549348        4.6641603410        0.6065664804
 Ga         4.8708710508        4.6333530685        2.6375530946
  N         4.8683779052        2.7899144789        3.2691264177
 Ga         4.8696838413        2.7912411423        5.2594833852
  N         4.8723319661        4.6652576857        5.8484358668
 Ga         4.8728326523        4.6642369903        7.8480340416
  N         4.8709858320        2.7915849141        8.4503905604
 Ga         4.8739702780        2.7956926887       10.4494631695
  N         4.8791107007        4.6658344925       11.0582683359
 Ga         4.8805229318        4.6699216196       13.0613579351
  N         4.8753042084        2.7965013525       13.6574233848
 Ga         4.8826356393        2.7991894503       15.6732017048
  N         4.8561000147        4.6738711835       16.1587523345
 Ga         4.9381337842        4.6601180319       19.0967107857
  N         4.9419284282        2.7840371840       18.7442538237
 Ga         3.2489008331        5.5953662289        0.3236727923
  N         3.2478234308        7.4653647796        0.6072805965
 Ga         3.2757630915        7.4806460511        2.6378559188
  N         3.2487617187        5.5953539822        3.2292058786
 Ga         3.2501515960        5.5963563213        5.2407584042
  N         3.2504996325        7.4662108504        5.8496595984
 Ga         3.2531147888        7.4665772421        7.8499906586
  N         3.2515361382        5.5960493077        8.4548836234
 Ga         3.2548744192        5.5979468969       10.4540013367
  N         3.2570960076        7.4722126499       11.0491815218
 Ga         3.2585432639        7.4745673860       13.0463779844
  N         3.2468762363        5.6003905022       13.6236346982
 Ga         3.2550015121        5.6077896673       15.6291737409
  N         3.2777335212        7.4856329258       16.1594344320
 Ga         3.3233179887        7.4906391460       18.1729101783
  N         3.3729527355        5.5652514945       18.4500182994
  O         1.6120489594        5.1353242520       21.2244730354
  H         0.9929850742        5.4100918781       20.4659303570
  C         0.8126935667        3.9393984079       21.9101614727
  H         0.1049391926        3.5296679494       21.1778829661
  H         1.5588277851        3.1912196192       22.1961289129
  H         0.3055324252        4.3671844302       22.7823664167
  O         4.2351994940        4.7139764790       21.0728036795
  H         3.2278444773        4.8749287672       21.0690645149
  C         4.5558370458        3.5978213383       21.9419973792
  H         4.1190681080        2.6643829944       21.5602604982
  H         5.6465831084        3.4990819379       21.9690024364
  H         4.1791487892        3.8114192938       22.9505934096
     156
 i =        3, E =     -6136.6453718649
 Ga        -0.0031704993       -0.0158634151       -0.5440908528
  N        -0.0001856637        1.8588310725        0.6074400049
 Ga        -0.0001937937        1.8274814353        2.6379034565
  N        -0.0032436940       -0.0156506223        3.2704591480
 Ga        -0.0019578400       -0.0149079834        5.2606534324
  N         0.0009984032        1.8598694753        5.8483659940
 Ga         0.0026332436        1.8585541954        7.8481165397
  N         0.0012443827       -0.0146609628        8.4497502957
 Ga         0.0047098015       -0.0145707910       10.4485312965
  N         0.0045143253        1.8599110300       11.0480262391
 Ga         0.0115818807        1.8607528161       13.0406314837
  N         0.0176418005       -0.0104663915       13.6413353649
 Ga         0.0343570069       -0.0289426064       15.6349290198
  N         0.0288933935        1.8552778115       16.2164974640
 Ga         0.0476970980        1.8533675454       18.2778765666
  N         0.0402083859       -0.0180162906       18.6853724366
 Ga        -1.6223983046        2.7898345873        0.3242645963
  N        -1.6244803224        4.6598314115        0.6065497802
 Ga        -1.5958316423        4.6755661632        2.6369411426
  N        -1.6228081129        2.7898084431        3.2284190787
 Ga        -1.6215950492        2.7907721618        5.2400745420
  N        -1.6213178182        4.6610312149        5.8468479474
 Ga        -1.6190394072        4.6618317446        7.8456059552
  N        -1.6200325048        2.7920240128        8.4517574967
 Ga        -1.6186767142        2.7953460084       10.4476495733
  N        -1.6178428776        4.6662019335       11.0566647667
 Ga        -1.6195026339        4.6698918592       13.0546948220
  N        -1.6049687407        2.7991714290       13.6664724138
 Ga        -1.6017986100        2.8134138289       15.6714863717
  N        -1.5902154048        4.6773958094       16.3118241742
 Ga        -1.5153311792        4.6843843718       18.3890115706
  N        -1.5509168487        2.7875127928       18.7326128202
 Ga        -3.2433470517        5.5960182682        0.3241853832
  N        -3.2368748410        7.4659320836        0.6076557589
 Ga        -3.2644983609        7.4809201774        2.6380156686
  N        -3.2426059157        5.5952393664        3.2286465663
 Ga        -3.2418118769        5.5961231506        5.2401390796
  N        -3.2355635381        7.4663496992        5.8470276142
 Ga        -3.2355582050        7.4670657183        7.8460935444
  N        -3.2396997413        5.5964544832        8.4503994444
 Ga        -3.2390391860        5.5971037860       10.4464132296
  N        -3.2313325370        7.4661463919       11.0552329382
 Ga        -3.2226880939        7.4620490154       13.0540206151
  N        -3.2372343642        5.5965549069       13.6912156738
 Ga        -3.2240840616        5.5892614459       15.7288411419
  N        -3.2028039726        7.4614902143       16.2777553583
 Ga        -3.1956195725        7.4431889632       18.3344079120
  N        -3.1535253524        5.5864144847       18.8656618420
 Ga         3.2424130872       -0.0159186011        0.3245503313
  N         3.2416691942        1.8548476130        0.6058687555
 Ga         3.2696324543        1.8703251742        2.6375606590
  N         3.2427359225       -0.0154308669        3.2283656328
 Ga         3.2441973613       -0.0145370999        5.2401036610
  N         3.2448051104        1.8556216085        5.8475392255
 Ga         3.2472498955        1.8564714565        7.8469225971
  N         3.2448421661       -0.0143932313        8.4499700592
 Ga         3.2472956714       -0.0137888774       10.4455357944
  N         3.2523907955        1.8571187901       11.0515178136
 Ga         3.2597322578        1.8536945276       13.0485249122
  N         3.2548454173       -0.0158136075       13.6604831405
 Ga         3.2623722255       -0.0185407829       15.6669215101
  N         3.2848588497        1.8494139803       16.2403879510
 Ga         3.3234092539        1.8619856400       18.2678818326
  N         3.2971744888       -0.0228658411       18.7334164085
 Ga         1.6216787959        2.7905491022        0.3242296266
  N         1.6292074612        4.6604544734        0.6069852014
 Ga         1.6016066650        4.6756769670        2.6374020763
  N         1.6229083577        2.7898912058        3.2291129742
 Ga         1.6244330438        2.7911041279        5.2410177025
  N         1.6299460831        4.6611985591        5.8485919886
 Ga         1.6302984625        4.6618163949        7.8486469305
  N         1.6263833686        2.7904083194        8.4502932436
 Ga         1.6296455833        2.7918872674       10.4459619712
  N         1.6273230733        4.6626346264       11.0462968833
 Ga         1.6256741941        4.6659001828       13.0415099143
  N         1.6347633209        2.7893769908       13.6467885525
 Ga         1.6616303914        2.7879700703       15.6401456326
  N         1.6244447493        4.6639107962       16.1738045126
 Ga         1.6798714725        4.6449542247       18.1712307480
  N         1.6842569854        2.7847099943       18.6204145439
 Ga         0.0032863889        5.5956927814       -0.5448777394
  N         0.0060637334        7.4704718448        0.6066078099
 Ga         0.0061910595        7.4384846654        2.6370848994
  N         0.0031331300        5.5950944644        3.2691533548
 Ga         0.0050188271        5.5963748740        5.2596215062
  N         0.0075863689        7.4708740665        5.8480031937
 Ga         0.0089377336        7.4693376175        7.8478081393
  N         0.0049624410        5.5957394425        8.4477245991
 Ga         0.0058827432        5.5971538941       10.4451350943
  N         0.0115512377        7.4698803597       11.0442772899
 Ga         0.0138013020        7.4729930308       13.0366918541
  N         0.0032593450        5.6041801309       13.6441174691
 Ga         0.0054161539        5.5987012382       15.6419013745
  N         0.0396472973        7.4733973785       16.2590581652
 Ga         0.0567888777        7.4388870160       18.3474362548
  N         0.1410007853        5.5860108831       18.8914431172
 Ga         6.4876783101       -0.0154921677        0.3238117986
  N         6.4933481588        1.8552798119        0.6055539188
 Ga         6.4663547800        1.8701438543        2.6373662753
  N         6.4883247364       -0.0153526793        3.2290146010
 Ga         6.4899861461       -0.0147457823        5.2410449140
  N         6.4947314994        1.8559422868        5.8479306993
 Ga         6.4946982104        1.8571809076        7.8475074942
  N         6.4909941881       -0.0130794573        8.4515883428
 Ga         6.4947271632       -0.0098429757       10.4484725076
  N         6.4968210101        1.8627500536       11.0548785152
 Ga         6.5021816637        1.8684041565       13.0525993309
  N         6.4918133823       -0.0046979546       13.6324220355
 Ga         6.5100163558        0.0019521882       15.6314114523
  N         6.5168925842        1.8701501499       16.2372475988
 Ga         6.5710902511        1.8704140367       18.2807098854
  N         6.5563492481       -0.0284064990       18.6664643059
 Ga         4.8677290300        2.7914745272       -0.5368914663
  N         4.8711038641        4.6642139582        0.6063511055
 Ga         4.8709605039        4.6334223747        2.6377722314
  N         4.8684400214        2.7899127747        3.2691481035
 Ga         4.8697813862        2.7913115480        5.2597173194
  N         4.8724449139        4.6653442119        5.8482755215
 Ga         4.8729638952        4.6643283692        7.8480990809
  N         4.8711284280        2.7915451774        8.4504982069
 Ga         4.8740715414        2.7959257916       10.4496423239
  N         4.8789010555        4.6658474758       11.0582608592
 Ga         4.8797427261        4.6691307610       13.0618182198
  N         4.8754918092        2.7960199827       13.6593575508
 Ga         4.8823787343        2.7970559206       15.6766104429
  N         4.8524887310        4.6747675358       16.1524315316
 Ga         4.9419277443        4.6570231524       19.0967951796
  N         4.9437320948        2.7804426492       18.7514452921
 Ga         3.2487220728        5.5954721587        0.3237851843
  N         3.2477307261        7.4652624633        0.6073410785
 Ga         3.2760149494        7.4807661128        2.6377305832
  N         3.2488740679        5.5954678346        3.2292495383
 Ga         3.2502044505        5.5964797953        5.2409954642
  N         3.2507010531        7.4662664823        5.8495150940
 Ga         3.2531226965        7.4668419931        7.8500913319
  N         3.2516120659        5.5962048009        8.4547892163
 Ga         3.2547764974        5.5980214374       10.4541760569
  N         3.2578266782        7.4728379831       11.0477049381
 Ga         3.2587816900        7.4762609302       13.0445402186
  N         3.2454448008        5.6021680601       13.6192005316
 Ga         3.2537450373        5.6090809869       15.6243406530
  N         3.2753606716        7.4854708681       16.1592651769
 Ga         3.3210596678        7.4889648568       18.1727735367
  N         3.3807607383        5.5616930075       18.4380710559
  O         1.6172884636        5.1435228225       21.2270350429
  H         1.0004600641        5.4150395514       20.4657764036
  C         0.8100577930        3.9338856748       21.9142285430