 DBCSR| Multiplication driver                                               BLAS
 DBCSR| Multrec recursion limit                                              512
 DBCSR| Multiplication stack size                                           1000
 DBCSR| Maximum elements for images                                    UNLIMITED
 DBCSR| Multiplicative factor virtual images                                   1
 DBCSR| Multiplication size stacks                                             3
 DBCSR| Number of 3D layers                                               SINGLE
 DBCSR| Use MPI memory allocation                                              T
 DBCSR| Use RMA algorithm                                                      F
 DBCSR| Use Communication thread                                               T
 DBCSR| Communication thread load                                             87


  **** **** ******  **  PROGRAM STARTED AT               2019-06-30 08:35:46.309
 ***** ** ***  *** **   PROGRAM STARTED ON        blg9223.int.ets1.calculquebec.
 **    ****   ******    PROGRAM STARTED BY                                   rzk
 ***** **    ** ** **   PROGRAM PROCESS ID                                 31002
  **** **  *******  **  PROGRAM STARTED IN /scratch/rzk/rzk/GaN-carbene/443-adat
                                           oms-both-2x2/05-2DissMethanol/02-0501
                                           -MoveHToNTop

 CP2K| version string:                    CP2K version 7.0 (Development Version)
 CP2K| source code revision number:                                    svn:18619
 CP2K| cp2kflags: libint fftw3 libxc parallel mpi3 scalapack mkl                
 CP2K| is freely available from                            https://www.cp2k.org/
 CP2K| Program compiled at                          Sun Apr  7 00:48:11 EDT 2019
 CP2K| Program compiled on                      beluga2.int.ets1.calculquebec.ca
 CP2K| Program compiled for                    Beluga-Linux-x86-64-intel-openmpi
 CP2K| Data directory path    /home/rzk/projects/def-rzk/group/cp2k/cp2k-mcgill/
 CP2K| Input file name                                                 start.inp
 
 GLOBAL| Force Environment number                                              1
 GLOBAL| Basis set file name                                        BASIS_MOLOPT
 GLOBAL| Potential file name                                      GTH_POTENTIALS
 GLOBAL| MM Potential file name                                     MM_POTENTIAL
 GLOBAL| Coordinate file name                                      __STD_INPUT__
 GLOBAL| Method name                                                        CP2K
 GLOBAL| Project name                                                       TEST
 GLOBAL| Preferred FFT library                                             FFTW3
 GLOBAL| Preferred diagonalization lib.                                       SL
 GLOBAL| Run type                                                        GEO_OPT
 GLOBAL| All-to-all communication in single precision                          F
 GLOBAL| FFTs using library dependent lengths                                  F
 GLOBAL| Global print level                                               MEDIUM
 GLOBAL| MPI I/O enabled                                                       T
 GLOBAL| Total number of message passing processes                            80
 GLOBAL| Number of threads for this process                                    1
 GLOBAL| This output is from process                                           0
 GLOBAL| CPU model name :  Intel(R) Xeon(R) Gold 6148 CPU @ 2.40GHz

 MEMORY| system memory details [Kb]
 MEMORY|                        rank 0           min           max       average
 MEMORY| MemTotal            196614300     196614300     196614300     196614300
 MEMORY| MemFree             182478368     182478368     183554980     182966932
 MEMORY| Buffers                    76            76            76            76
 MEMORY| Cached                1274876       1258124       1274876       1265412
 MEMORY| Slab                  1434884       1245856       1434884       1340289
 MEMORY| SReclaimable           196472        180744        196472        188479
 MEMORY| MemLikelyFree       183949792     183949792     184993924     184420899


 *** Fundamental physical constants (SI units) ***

 *** Literature: B. J. Mohr and B. N. Taylor,
 ***             CODATA recommended values of the fundamental physical
 ***             constants: 2006, Web Version 5.1
 ***             http://physics.nist.gov/constants

 Speed of light in vacuum [m/s]                             2.99792458000000E+08
 Magnetic constant or permeability of vacuum [N/A**2]       1.25663706143592E-06
 Electric constant or permittivity of vacuum [F/m]          8.85418781762039E-12
 Planck constant (h) [J*s]                                  6.62606896000000E-34
 Planck constant (h-bar) [J*s]                              1.05457162825177E-34
 Elementary charge [C]                                      1.60217648700000E-19
 Electron mass [kg]                                         9.10938215000000E-31
 Electron g factor [ ]                                     -2.00231930436220E+00
 Proton mass [kg]                                           1.67262163700000E-27
 Fine-structure constant                                    7.29735253760000E-03
 Rydberg constant [1/m]                                     1.09737315685270E+07
 Avogadro constant [1/mol]                                  6.02214179000000E+23
 Boltzmann constant [J/K]                                   1.38065040000000E-23
 Atomic mass unit [kg]                                      1.66053878200000E-27
 Bohr radius [m]                                            5.29177208590000E-11

 *** Conversion factors ***

 [u] -> [a.u.]                                              1.82288848426455E+03
 [Angstrom] -> [Bohr] = [a.u.]                              1.88972613288564E+00
 [a.u.] = [Bohr] -> [Angstrom]                              5.29177208590000E-01
 [a.u.] -> [s]                                              2.41888432650478E-17
 [a.u.] -> [fs]                                             2.41888432650478E-02
 [a.u.] -> [J]                                              4.35974393937059E-18
 [a.u.] -> [N]                                              8.23872205491840E-08
 [a.u.] -> [K]                                              3.15774647902944E+05
 [a.u.] -> [kJ/mol]                                         2.62549961709828E+03
 [a.u.] -> [kcal/mol]                                       6.27509468713739E+02
 [a.u.] -> [Pa]                                             2.94210107994716E+13
 [a.u.] -> [bar]                                            2.94210107994716E+08
 [a.u.] -> [atm]                                            2.90362800883016E+08
 [a.u.] -> [eV]                                             2.72113838565563E+01
 [a.u.] -> [Hz]                                             6.57968392072181E+15
 [a.u.] -> [1/cm] (wave numbers)                            2.19474631370540E+05
 [a.u./Bohr**2] -> [1/cm]                                   5.14048714338585E+03
 

 CELL_TOP| Volume [angstrom^3]:                                         4586.323
 CELL_TOP| Vector a [angstrom    12.864     0.000     0.000    |a| =      12.864
 CELL_TOP| Vector b [angstrom    -6.432    11.141     0.000    |b| =      12.864
 CELL_TOP| Vector c [angstrom     0.000     0.000    32.000    |c| =      32.000
 CELL_TOP| Angle (b,c), alpha [degree]:                                   90.000
 CELL_TOP| Angle (a,c), beta  [degree]:                                   90.000
 CELL_TOP| Angle (a,b), gamma [degree]:                                  120.000
 CELL_TOP| Numerically orthorhombic:                                          NO
 
 GENERATE|  Preliminary Number of Bonds generated:                             0
 GENERATE|  Achieved consistency in connectivity generation.

 CELL| Volume [angstrom^3]:                                             4586.323
 CELL| Vector a [angstrom]:      12.864     0.000     0.000    |a| =      12.864
 CELL| Vector b [angstrom]:      -6.432    11.141     0.000    |b| =      12.864
 CELL| Vector c [angstrom]:       0.000     0.000    32.000    |c| =      32.000
 CELL| Angle (b,c), alpha [degree]:                                       90.000
 CELL| Angle (a,c), beta  [degree]:                                       90.000
 CELL| Angle (a,b), gamma [degree]:                                      120.000
 CELL| Numerically orthorhombic:                                              NO

 CELL_REF| Volume [angstrom^3]:                                         4670.759
 CELL_REF| Vector a [angstrom    12.982     0.000     0.000    |a| =      12.982
 CELL_REF| Vector b [angstrom    -6.491    11.243     0.000    |b| =      12.982
 CELL_REF| Vector c [angstrom     0.000     0.000    32.000    |c| =      32.000
 CELL_REF| Angle (b,c), alpha [degree]:                                   90.000
 CELL_REF| Angle (a,c), beta  [degree]:                                   90.000
 CELL_REF| Angle (a,b), gamma [degree]:                                  120.000
 CELL_REF| Numerically orthorhombic:                                          NO

 *******************************************************************************
 *******************************************************************************
 **                                                                           **
 **     #####                         ##              ##                      **
 **    ##   ##            ##          ##              ##                      **
 **   ##     ##                       ##            ######                    **
 **   ##     ##  ##   ##  ##   #####  ##  ##   ####   ##    #####    #####    **
 **   ##     ##  ##   ##  ##  ##      ## ##   ##      ##   ##   ##  ##   ##   **
 **   ##  ## ##  ##   ##  ##  ##      ####     ###    ##   ######   ######    **
 **    ##  ###   ##   ##  ##  ##      ## ##      ##   ##   ##       ##        **
 **     #######   #####   ##   #####  ##  ##  ####    ##    #####   ##        **
 **           ##                                                    ##        **
 **                                                                           **
 **                                                ... make the atoms dance   **
 **                                                                           **
 **            Copyright (C) by CP2K developers group (2000 - 2018)           **
 **                                                                           **
 *******************************************************************************

 DFT| Spin unrestricted (spin-polarized) Kohn-Sham calculation               UKS
 DFT| Multiplicity                                                             1
 DFT| Number of spin states                                                    2
 DFT| Charge                                                                   0
 DFT| Self-interaction correction (SIC)                                       NO
 DFT| Cutoffs: density                                              1.000000E-10
 DFT|          gradient                                             1.000000E-10
 DFT|          tau                                                  1.000000E-10
 DFT|          cutoff_smoothing_range                               0.000000E+00
 DFT| XC density smoothing                                                  NONE
 DFT| XC derivatives                                                          PW
 FUNCTIONAL| ROUTINE=NEW
 FUNCTIONAL| PBE:
 FUNCTIONAL| J.P.Perdew, K.Burke, M.Ernzerhof, Phys. Rev. Letter, vol. 77, n 18,
 FUNCTIONAL|  pp. 3865-3868, (1996){spin polarized}                             
 vdW POTENTIAL|                                                   Pair Potential
 vdW POTENTIAL|          DFT-D3 (Version 3.1)
 vdW POTENTIAL|          Potential Form: S. Grimme et al, JCP 132: 154104 (2010)
 vdW POTENTIAL|          Zero Damping
 vdW POTENTIAL|          Cutoff Radius [Bohr]:                             18.90
 vdW POTENTIAL|          s6 Scaling Factor:                               1.0000
 vdW POTENTIAL|          sr6 Scaling Factor:                              1.2170
 vdW POTENTIAL|          s8 Scaling Factor:                               0.7220
 vdW POTENTIAL|          Cutoff for CN calculation:                   0.1000E-05

 QS| Method:                                                                 GPW
 QS| Density plane wave grid type                        NON-SPHERICAL FULLSPACE
 QS| Number of grid levels:                                                    5
 QS| Density cutoff [a.u.]:                                                600.0
 QS| Multi grid cutoff [a.u.]: 1) grid level                               600.0
 QS|                           2) grid level                               200.0
 QS|                           3) grid level                                66.7
 QS|                           4) grid level                                22.2
 QS|                           5) grid level                                 7.4
 QS| Grid level progression factor:                                          3.0
 QS| Relative density cutoff [a.u.]:                                        20.0
 QS| Consistent realspace mapping and integration 
 QS| Interaction thresholds: eps_pgf_orb:                                1.0E-07
 QS|                         eps_filter_matrix:                          0.0E+00
 QS|                         eps_core_charge:                            1.0E-16
 QS|                         eps_rho_gspace:                             1.0E-14
 QS|                         eps_rho_rspace:                             1.0E-14
 QS|                         eps_gvg_rspace:                             1.0E-07
 QS|                         eps_ppl:                                    1.0E-02
 QS|                         eps_ppnl:                                   1.0E-09


 ATOMIC KIND INFORMATION

  1. Atomic kind: N                                     Number of atoms:     100

     Orbital Basis Set                                        DZVP-MOLOPT-SR-GTH

       Number of orbital shell sets:                                           1
       Number of orbital shells:                                               5
       Number of primitive Cartesian functions:                                5
       Number of Cartesian basis functions:                                   14
       Number of spherical basis functions:                                   13
       Norm type:                                                              2

       Normalised Cartesian orbitals:

                        Set   Shell   Orbital            Exponent    Coefficient

                          1       1    2s                7.341988       0.360561
                                                         2.542637       0.139177
                                                         0.888575      -0.289383
                                                         0.333802      -0.182244
                                                         0.112012      -0.019197

                          1       2    3s                7.341988       0.282000
                                                         2.542637       0.177875
                                                         0.888575      -0.278381
                                                         0.333802       0.008577
                                                         0.112012       0.154176

                          1       3    3px               7.341988      -1.188719
                                                         2.542637      -0.973969
                                                         0.888575      -0.501079
                                                         0.333802      -0.144894
                                                         0.112012      -0.013986
                          1       3    3py               7.341988      -1.188719
                                                         2.542637      -0.973969
                                                         0.888575      -0.501079
                                                         0.333802      -0.144894
                                                         0.112012      -0.013986
                          1       3    3pz               7.341988      -1.188719
                                                         2.542637      -0.973969
                                                         0.888575      -0.501079
                                                         0.333802      -0.144894
                                                         0.112012      -0.013986

                          1       4    4px               7.341988      -0.094798
                                                         2.542637       0.050069
                                                         0.888575      -0.114797
                                                         0.333802       0.144793
                                                         0.112012       0.066710
                          1       4    4py               7.341988      -0.094798
                                                         2.542637       0.050069
                                                         0.888575      -0.114797
                                                         0.333802       0.144793
                                                         0.112012       0.066710
                          1       4    4pz               7.341988      -0.094798
                                                         2.542637       0.050069
                                                         0.888575      -0.114797
                                                         0.333802       0.144793
                                                         0.112012       0.066710

                          1       5    4dx2              7.341988       1.354688
                                                         2.542637       0.690378
                                                         0.888575       0.855359
                                                         0.333802       0.091746
                                                         0.112012       0.001253
                          1       5    4dxy              7.341988       2.346389
                                                         2.542637       1.195770
                                                         0.888575       1.481524
                                                         0.333802       0.158910
                                                         0.112012       0.002169
                          1       5    4dxz              7.341988       2.346389
                                                         2.542637       1.195770
                                                         0.888575       1.481524
                                                         0.333802       0.158910
                                                         0.112012       0.002169
                          1       5    4dy2              7.341988       1.354688
                                                         2.542637       0.690378
                                                         0.888575       0.855359
                                                         0.333802       0.091746
                                                         0.112012       0.001253
                          1       5    4dyz              7.341988       2.346389
                                                         2.542637       1.195770
                                                         0.888575       1.481524
                                                         0.333802       0.158910
                                                         0.112012       0.002169
                          1       5    4dz2              7.341988       1.354688
                                                         2.542637       0.690378
                                                         0.888575       0.855359
                                                         0.333802       0.091746
                                                         0.112012       0.001253

     GTH Potential information for                                    GTH-PBE-q5

       Description:                       Goedecker-Teter-Hutter pseudopotential
                                           Goedecker et al., PRB 54, 1703 (1996)
                                          Hartwigsen et al., PRB 58, 3641 (1998)
                                                      Krack, TCA 114, 145 (2005)

       Gaussian exponent of the core charge distribution:               6.208322
       Electronic configuration (s p d ...):                               2   3

       Parameters of the local part of the GTH pseudopotential:

                          rloc        C1          C2          C3          C4
                        0.283791  -12.415226    1.868096

       Parameters of the non-local part of the GTH pseudopotential:

                   l      r(l)      h(i,j,l)

                   0    0.255405   13.630263
                   1    0.245495

  2. Atomic kind: Ga                                    Number of atoms:     100

     Orbital Basis Set                                        DZVP-MOLOPT-SR-GTH

       Number of orbital shell sets:                                           1
       Number of orbital shells:                                               7
       Number of primitive Cartesian functions:                                6
       Number of Cartesian basis functions:                                   30
       Number of spherical basis functions:                                   25
       Norm type:                                                              2

       Normalised Cartesian orbitals:

                        Set   Shell   Orbital            Exponent    Coefficient

                          1       1    2s                7.066654       0.013136
                                                         3.428369      -0.094392
                                                         1.430064       0.265435
                                                         0.571611       0.056465
                                                         0.232197      -0.192187
                                                         0.076562      -0.044987

                          1       2    3s                7.066654      -0.098564
                                                         3.428369       0.010390
                                                         1.430064       0.351249
                                                         0.571611       0.182615
                                                         0.232197      -0.425358
                                                         0.076562       0.190349

                          1       3    3px               7.066654       0.002364
                                                         3.428369       0.019222
                                                         1.430064       0.250132
                                                         0.571611      -0.058486
                                                         0.232197      -0.159451
                                                         0.076562      -0.020696
                          1       3    3py               7.066654       0.002364
                                                         3.428369       0.019222
                                                         1.430064       0.250132
                                                         0.571611      -0.058486
                                                         0.232197      -0.159451
                                                         0.076562      -0.020696
                          1       3    3pz               7.066654       0.002364
                                                         3.428369       0.019222
                                                         1.430064       0.250132
                                                         0.571611      -0.058486
                                                         0.232197      -0.159451
                                                         0.076562      -0.020696

                          1       4    4px               7.066654       0.492448
                                                         3.428369      -0.614736
                                                         1.430064      -0.191654
                                                         0.571611       0.037801
                                                         0.232197       0.302315
                                                         0.076562      -0.071336
                          1       4    4py               7.066654       0.492448
                                                         3.428369      -0.614736
                                                         1.430064      -0.191654
                                                         0.571611       0.037801
                                                         0.232197       0.302315
                                                         0.076562      -0.071336
                          1       4    4pz               7.066654       0.492448
                                                         3.428369      -0.614736
                                                         1.430064      -0.191654
                                                         0.571611       0.037801
                                                         0.232197       0.302315
                                                         0.076562      -0.071336

                          1       5    4dx2              7.066654     -15.264855
                                                         3.428369      -5.345726
                                                         1.430064      -1.022732
                                                         0.571611      -0.123148
                                                         0.232197      -0.006983
                                                         0.076562      -0.000022
                          1       5    4dxy              7.066654     -26.439504
                                                         3.428369      -9.259069
                                                         1.430064      -1.771423
                                                         0.571611      -0.213299
                                                         0.232197      -0.012094
                                                         0.076562      -0.000037
                          1       5    4dxz              7.066654     -26.439504
                                                         3.428369      -9.259069
                                                         1.430064      -1.771423
                                                         0.571611      -0.213299
                                                         0.232197      -0.012094
                                                         0.076562      -0.000037
                          1       5    4dy2              7.066654     -15.264855
                                                         3.428369      -5.345726
                                                         1.430064      -1.022732
                                                         0.571611      -0.123148
                                                         0.232197      -0.006983
                                                         0.076562      -0.000022
                          1       5    4dyz              7.066654     -26.439504
                                                         3.428369      -9.259069
                                                         1.430064      -1.771423
                                                         0.571611      -0.213299
                                                         0.232197      -0.012094
                                                         0.076562      -0.000037
                          1       5    4dz2              7.066654     -15.264855
                                                         3.428369      -5.345726
                                                         1.430064      -1.022732
                                                         0.571611      -0.123148
                                                         0.232197      -0.006983
                                                         0.076562      -0.000022

                          1       6    5dx2              7.066654      -5.739265
                                                         3.428369      -2.129289
                                                         1.430064      -0.700423
                                                         0.571611       0.161606
                                                         0.232197       0.043513
                                                         0.076562       0.011205
                          1       6    5dxy              7.066654      -9.940698
                                                         3.428369      -3.688037
                                                         1.430064      -1.213168
                                                         0.571611       0.279909
                                                         0.232197       0.075368
                                                         0.076562       0.019407
                          1       6    5dxz              7.066654      -9.940698
                                                         3.428369      -3.688037
                                                         1.430064      -1.213168
                                                         0.571611       0.279909
                                                         0.232197       0.075368
                                                         0.076562       0.019407
                          1       6    5dy2              7.066654      -5.739265
                                                         3.428369      -2.129289
                                                         1.430064      -0.700423
                                                         0.571611       0.161606
                                                         0.232197       0.043513
                                                         0.076562       0.011205
                          1       6    5dyz              7.066654      -9.940698
                                                         3.428369      -3.688037
                                                         1.430064      -1.213168
                                                         0.571611       0.279909
                                                         0.232197       0.075368
                                                         0.076562       0.019407
                          1       6    5dz2              7.066654      -5.739265
                                                         3.428369      -2.129289
                                                         1.430064      -0.700423
                                                         0.571611       0.161606
                                                         0.232197       0.043513
                                                         0.076562       0.011205

                          1       7    5fx3              7.066654       0.705879
                                                         3.428369      -0.273976
                                                         1.430064       0.113667
                                                         0.571611       0.132480
                                                         0.232197       0.012437
                                                         0.076562       0.003241
                          1       7    5fx2y             7.066654       1.578393
                                                         3.428369      -0.612629
                                                         1.430064       0.254167
                                                         0.571611       0.296234
                                                         0.232197       0.027811
                                                         0.076562       0.007246
                          1       7    5fx2z             7.066654       1.578393
                                                         3.428369      -0.612629
                                                         1.430064       0.254167
                                                         0.571611       0.296234
                                                         0.232197       0.027811
                                                         0.076562       0.007246
                          1       7    5fxy2             7.066654       1.578393
                                                         3.428369      -0.612629
                                                         1.430064       0.254167
                                                         0.571611       0.296234
                                                         0.232197       0.027811
                                                         0.076562       0.007246
                          1       7    5fxyz             7.066654       2.733856
                                                         3.428369      -1.061105
                                                         1.430064       0.440230
                                                         0.571611       0.513092
                                                         0.232197       0.048170
                                                         0.076562       0.012551
                          1       7    5fxz2             7.066654       1.578393
                                                         3.428369      -0.612629
                                                         1.430064       0.254167
                                                         0.571611       0.296234
                                                         0.232197       0.027811
                                                         0.076562       0.007246
                          1       7    5fy3              7.066654       0.705879
                                                         3.428369      -0.273976
                                                         1.430064       0.113667
                                                         0.571611       0.132480
                                                         0.232197       0.012437
                                                         0.076562       0.003241
                          1       7    5fy2z             7.066654       1.578393
                                                         3.428369      -0.612629
                                                         1.430064       0.254167
                                                         0.571611       0.296234
                                                         0.232197       0.027811
                                                         0.076562       0.007246
                          1       7    5fyz2             7.066654       1.578393
                                                         3.428369      -0.612629
                                                         1.430064       0.254167
                                                         0.571611       0.296234
                                                         0.232197       0.027811
                                                         0.076562       0.007246
                          1       7    5fz3              7.066654       0.705879
                                                         3.428369      -0.273976
                                                         1.430064       0.113667
                                                         0.571611       0.132480
                                                         0.232197       0.012437
                                                         0.076562       0.003241

     GTH Potential information for                                   GTH-PBE-q13

       Description:                       Goedecker-Teter-Hutter pseudopotential
                                           Goedecker et al., PRB 54, 1703 (1996)
                                          Hartwigsen et al., PRB 58, 3641 (1998)
                                                      Krack, TCA 114, 145 (2005)

       Gaussian exponent of the core charge distribution:               2.082466
       Electronic configuration (s p d ...):                           2   1  10

       Parameters of the local part of the GTH pseudopotential:

                          rloc        C1          C2          C3          C4
                        0.490000

       Parameters of the non-local part of the GTH pseudopotential:

                   l      r(l)      h(i,j,l)

                   0    0.416777   10.475690   -4.921768    0.870706
                                   -4.921768    7.770178   -2.248152
                                    0.870706   -2.248152    1.784415
                   1    0.569627    1.777985    0.195860
                                    0.195860   -0.231744
                   2    0.238126  -16.248680

  3. Atomic kind: O                                     Number of atoms:       2

     Orbital Basis Set                                     DZVP-MOLOPT-SR-GTH-q6

       Number of orbital shell sets:                                           1
       Number of orbital shells:                                               5
       Number of primitive Cartesian functions:                                5
       Number of Cartesian basis functions:                                   14
       Number of spherical basis functions:                                   13
       Norm type:                                                              2

       Normalised Cartesian orbitals:

                        Set   Shell   Orbital            Exponent    Coefficient

                          1       1    2s               10.389228       0.396646
                                                         3.849621       0.208811
                                                         1.388401      -0.301641
                                                         0.496955      -0.274061
                                                         0.162492      -0.033677

                          1       2    3s               10.389228       0.303673
                                                         3.849621       0.240943
                                                         1.388401      -0.313066
                                                         0.496955      -0.043055
                                                         0.162492       0.213991

                          1       3    3px              10.389228      -1.530415
                                                         3.849621      -1.371928
                                                         1.388401      -0.761951
                                                         0.496955      -0.253695
                                                         0.162492      -0.035541
                          1       3    3py              10.389228      -1.530415
                                                         3.849621      -1.371928
                                                         1.388401      -0.761951
                                                         0.496955      -0.253695
                                                         0.162492      -0.035541
                          1       3    3pz              10.389228      -1.530415
                                                         3.849621      -1.371928
                                                         1.388401      -0.761951
                                                         0.496955      -0.253695
                                                         0.162492      -0.035541

                          1       4    4px              10.389228      -0.565392
                                                         3.849621      -0.038231
                                                         1.388401      -0.382373
                                                         0.496955       0.179070
                                                         0.162492       0.122714
                          1       4    4py              10.389228      -0.565392
                                                         3.849621      -0.038231
                                                         1.388401      -0.382373
                                                         0.496955       0.179070
                                                         0.162492       0.122714
                          1       4    4pz              10.389228      -0.565392
                                                         3.849621      -0.038231
                                                         1.388401      -0.382373
                                                         0.496955       0.179070
                                                         0.162492       0.122714

                          1       5    4dx2             10.389228       1.867377
                                                         3.849621       0.670994
                                                         1.388401       1.353441
                                                         0.496955       0.273538
                                                         0.162492       0.006620
                          1       5    4dxy             10.389228       3.234392
                                                         3.849621       1.162195
                                                         1.388401       2.344229
                                                         0.496955       0.473781
                                                         0.162492       0.011466
                          1       5    4dxz             10.389228       3.234392
                                                         3.849621       1.162195
                                                         1.388401       2.344229
                                                         0.496955       0.473781
                                                         0.162492       0.011466
                          1       5    4dy2             10.389228       1.867377
                                                         3.849621       0.670994
                                                         1.388401       1.353441
                                                         0.496955       0.273538
                                                         0.162492       0.006620
                          1       5    4dyz             10.389228       3.234392
                                                         3.849621       1.162195
                                                         1.388401       2.344229
                                                         0.496955       0.473781
                                                         0.162492       0.011466
                          1       5    4dz2             10.389228       1.867377
                                                         3.849621       0.670994
                                                         1.388401       1.353441
                                                         0.496955       0.273538
                                                         0.162492       0.006620

     GTH Potential information for                                    GTH-PBE-q6

       Description:                       Goedecker-Teter-Hutter pseudopotential
                                           Goedecker et al., PRB 54, 1703 (1996)
                                          Hartwigsen et al., PRB 58, 3641 (1998)
                                                      Krack, TCA 114, 145 (2005)

       Gaussian exponent of the core charge distribution:               8.360253
       Electronic configuration (s p d ...):                               2   4

       Parameters of the local part of the GTH pseudopotential:

                          rloc        C1          C2          C3          C4
                        0.244554  -16.667215    2.487311

       Parameters of the non-local part of the GTH pseudopotential:

                   l      r(l)      h(i,j,l)

                   0    0.220956   18.337458
                   1    0.211332

  4. Atomic kind: H                                     Number of atoms:       8

     Orbital Basis Set                                     DZVP-MOLOPT-SR-GTH-q1

       Number of orbital shell sets:                                           1
       Number of orbital shells:                                               3
       Number of primitive Cartesian functions:                                5
       Number of Cartesian basis functions:                                    5
       Number of spherical basis functions:                                    5
       Norm type:                                                              2

       Normalised Cartesian orbitals:

                        Set   Shell   Orbital            Exponent    Coefficient

                          1       1    2s               10.068468      -0.133023
                                                         2.680223      -0.177618
                                                         0.791502      -0.258419
                                                         0.239116      -0.107525
                                                         0.082193      -0.014019

                          1       2    3s               10.068468       0.344673
                                                         2.680223       1.819821
                                                         0.791502      -0.999069
                                                         0.239116       0.017430
                                                         0.082193       0.082660

                          1       3    3px              10.068468       0.155326
                                                         2.680223       0.367157
                                                         0.791502       0.311480
                                                         0.239116       0.080105
                                                         0.082193       0.033440
                          1       3    3py              10.068468       0.155326
                                                         2.680223       0.367157
                                                         0.791502       0.311480
                                                         0.239116       0.080105
                                                         0.082193       0.033440
                          1       3    3pz              10.068468       0.155326
                                                         2.680223       0.367157
                                                         0.791502       0.311480
                                                         0.239116       0.080105
                                                         0.082193       0.033440

     GTH Potential information for                                    GTH-PBE-q1

       Description:                       Goedecker-Teter-Hutter pseudopotential
                                           Goedecker et al., PRB 54, 1703 (1996)
                                          Hartwigsen et al., PRB 58, 3641 (1998)
                                                      Krack, TCA 114, 145 (2005)

       Gaussian exponent of the core charge distribution:              12.500000
       Electronic configuration (s p d ...):                                   1

       Parameters of the local part of the GTH pseudopotential:

                          rloc        C1          C2          C3          C4
                        0.200000   -4.178900    0.724463

  5. Atomic kind: C                                     Number of atoms:       2

     Orbital Basis Set                                     DZVP-MOLOPT-SR-GTH-q4

       Number of orbital shell sets:                                           1
       Number of orbital shells:                                               5
       Number of primitive Cartesian functions:                                5
       Number of Cartesian basis functions:                                   14
       Number of spherical basis functions:                                   13
       Norm type:                                                              2

       Normalised Cartesian orbitals:

                        Set   Shell   Orbital            Exponent    Coefficient

                          1       1    2s                5.605331       0.322515
                                                         2.113016       0.213043
                                                         0.769911      -0.209686
                                                         0.348157      -0.219794
                                                         0.128212      -0.022789

                          1       2    3s                5.605331       0.552234
                                                         2.113016       0.082072
                                                         0.769911       0.007843
                                                         0.348157       0.136893
                                                         0.128212       0.074283

                          1       3    3px               5.605331      -0.703879
                                                         2.113016      -0.642521
                                                         0.769911      -0.374851
                                                         0.348157      -0.139743
                                                         0.128212      -0.027849
                          1       3    3py               5.605331      -0.703879
                                                         2.113016      -0.642521
                                                         0.769911      -0.374851
                                                         0.348157      -0.139743
                                                         0.128212      -0.027849
                          1       3    3pz               5.605331      -0.703879
                                                         2.113016      -0.642521
                                                         0.769911      -0.374851
                                                         0.348157      -0.139743
                                                         0.128212      -0.027849

                          1       4    4px               5.605331      -0.480376
                                                         2.113016      -0.552894
                                                         0.769911      -0.316145
                                                         0.348157       0.210505
                                                         0.128212       0.076095
                          1       4    4py               5.605331      -0.480376
                                                         2.113016      -0.552894
                                                         0.769911      -0.316145
                                                         0.348157       0.210505
                                                         0.128212       0.076095
                          1       4    4pz               5.605331      -0.480376
                                                         2.113016      -0.552894
                                                         0.769911      -0.316145
                                                         0.348157       0.210505
                                                         0.128212       0.076095

                          1       5    4dx2              5.605331       0.640026
                                                         2.113016       0.274300
                                                         0.769911       0.446711
                                                         0.348157       0.028674
                                                         0.128212       0.029790
                          1       5    4dxy              5.605331       1.108557
                                                         2.113016       0.475102
                                                         0.769911       0.773726
                                                         0.348157       0.049666
                                                         0.128212       0.051599
                          1       5    4dxz              5.605331       1.108557
                                                         2.113016       0.475102
                                                         0.769911       0.773726
                                                         0.348157       0.049666
                                                         0.128212       0.051599
                          1       5    4dy2              5.605331       0.640026
                                                         2.113016       0.274300
                                                         0.769911       0.446711
                                                         0.348157       0.028674
                                                         0.128212       0.029790
                          1       5    4dyz              5.605331       1.108557
                                                         2.113016       0.475102
                                                         0.769911       0.773726
                                                         0.348157       0.049666
                                                         0.128212       0.051599
                          1       5    4dz2              5.605331       0.640026
                                                         2.113016       0.274300
                                                         0.769911       0.446711
                                                         0.348157       0.028674
                                                         0.128212       0.029790

     GTH Potential information for                                    GTH-PBE-q4

       Description:                       Goedecker-Teter-Hutter pseudopotential
                                           Goedecker et al., PRB 54, 1703 (1996)
                                          Hartwigsen et al., PRB 58, 3641 (1998)
                                                      Krack, TCA 114, 145 (2005)

       Gaussian exponent of the core charge distribution:               4.364419
       Electronic configuration (s p d ...):                               2   2

       Parameters of the local part of the GTH pseudopotential:

                          rloc        C1          C2          C3          C4
                        0.338471   -8.803674    1.339211

       Parameters of the non-local part of the GTH pseudopotential:

                   l      r(l)      h(i,j,l)

                   0    0.302576    9.622487
                   1    0.291507


 MOLECULE KIND INFORMATION


 All atoms are their own molecule, skipping detailed information


 TOTAL NUMBERS AND MAXIMUM NUMBERS

  Total number of            - Atomic kinds:                                   5
                             - Atoms:                                        212
                             - Shell sets:                                   212
                             - Shells:                                      1244
                             - Primitive Cartesian functions:               1160
                             - Cartesian basis functions:                   4496
                             - Spherical basis functions:                   3892

  Maximum angular momentum of- Orbital basis functions:                        3
                             - Local part of the GTH pseudopotential:          2
                             - Non-local part of the GTH pseudopotential:      4


 MODULE QUICKSTEP:  ATOMIC COORDINATES IN angstrom

  Atom  Kind  Element       X           Y           Z          Z(eff)       Mass

       1     1 N    7   -0.001006    2.054581    2.507306      5.00      14.0067
       2     2 Ga  31    0.020422    0.087094    2.848653     13.00      69.7230
       3     1 N    7   -0.010428    0.060923    5.015903      5.00      14.0067
       4     2 Ga  31   -0.005809    1.889188    5.799503     13.00      69.7230
       5     1 N    7   -0.007427    1.900497    7.800509      5.00      14.0067
       6     2 Ga  31   -0.002987    0.055116    8.440183     13.00      69.7230
       7     1 N    7   -0.004903    0.054800   10.417867      5.00      14.0067
       8     2 Ga  31   -0.005049    1.893581   11.070847     13.00      69.7230
       9     1 N    7   -0.005061    1.875566   13.066518      5.00      14.0067
      10     2 Ga  31   -0.004383    0.055271   13.868190     13.00      69.7230
      11     1 N    7   -0.003865    0.056294   16.071242      5.00      14.0067
      12     2 Ga  31   -0.006242    2.096209   16.480815     13.00      69.7230
      13     2 Ga  31    0.033429    3.736263    1.372321     13.00      69.7230
      14     1 N    7   -1.474189    4.633676    2.474327      5.00      14.0067
      15     2 Ga  31   -1.679518    2.799243    3.266591     13.00      69.7230
      16     1 N    7   -1.616128    2.844572    5.247311      5.00      14.0067
      17     2 Ga  31   -1.644545    4.708114    5.811644     13.00      69.7230
      18     1 N    7   -1.624620    4.704736    7.805473      5.00      14.0067
      19     2 Ga  31   -1.602447    2.845695    8.441295     13.00      69.7230
      20     1 N    7   -1.602466    2.847335   10.435196      5.00      14.0067
      21     2 Ga  31   -1.630977    4.706321   11.072762     13.00      69.7230
      22     1 N    7   -1.644828    4.715953   13.066533      5.00      14.0067
      23     2 Ga  31   -1.602346    2.847150   13.620649     13.00      69.7230
      24     1 N    7   -1.630410    2.834702   15.583019      5.00      14.0067
      25     2 Ga  31   -1.451270    4.605867   16.479582     13.00      69.7230
      26     1 N    7   -0.003783    3.766233   17.610667      5.00      14.0067
      27     1 N    7   -3.217170    7.595803    2.498039      5.00      14.0067
      28     2 Ga  31   -3.195176    5.626720    2.842982     13.00      69.7230
      29     1 N    7   -3.217961    5.620525    5.014853      5.00      14.0067
      30     2 Ga  31   -3.229767    7.450472    5.787964     13.00      69.7230
      31     1 N    7   -3.220725    7.473187    7.787519      5.00      14.0067
      32     2 Ga  31   -3.223941    5.628309    8.443904     13.00      69.7230
      33     1 N    7   -3.222339    5.627366   10.418921      5.00      14.0067
      34     2 Ga  31   -3.223784    7.466852   11.068498     13.00      69.7230
      35     1 N    7   -3.220777    7.447072   13.063596      5.00      14.0067
      36     2 Ga  31   -3.219372    5.627166   13.867047     13.00      69.7230
      37     1 N    7   -3.219082    5.628231   16.070501      5.00      14.0067
      38     2 Ga  31   -3.222344    7.671194   16.483453     13.00      69.7230
      39     2 Ga  31   -3.256788    9.366519    1.281358     13.00      69.7230
      40     1 N    7   -4.729269   10.213008    2.506893      5.00      14.0067
      41     2 Ga  31   -4.908565    8.367312    3.239945     13.00      69.7230
      42     1 N    7   -4.832567    8.408611    5.225432      5.00      14.0067
      43     2 Ga  31   -4.853184   10.282820    5.777361     13.00      69.7230
      44     1 N    7   -4.838780   10.273751    7.784075      5.00      14.0067
      45     2 Ga  31   -4.822278    8.418371    8.425515     13.00      69.7230
      46     1 N    7   -4.818544    8.417997   10.424400      5.00      14.0067
      47     2 Ga  31   -4.843868   10.275818   11.066090     13.00      69.7230
      48     1 N    7   -4.860202   10.286222   13.062633      5.00      14.0067
      49     2 Ga  31   -4.816914    8.418370   13.621685     13.00      69.7230
      50     1 N    7   -4.844035    8.404048   15.583400      5.00      14.0067
      51     2 Ga  31   -4.669320   10.177151   16.484724     13.00      69.7230
      52     1 N    7   -3.221665    9.341659   17.622477      5.00      14.0067
      53     1 N    7    3.191788    1.924714    2.599323      5.00      14.0067
      54     2 Ga  31    3.205062    0.156087    3.244931     13.00      69.7230
      55     1 N    7    3.212795    0.061364    5.230471      5.00      14.0067
      56     2 Ga  31    3.207649    1.916160    5.865692     13.00      69.7230
      57     1 N    7    3.212435    1.913759    7.846494      5.00      14.0067
      58     2 Ga  31    3.208241    0.046328    8.429134     13.00      69.7230
      59     1 N    7    3.210509    0.041964   10.427325      5.00      14.0067
      60     2 Ga  31    3.210373    1.909659   11.028119     13.00      69.7230
      61     1 N    7    3.210539    1.911215   13.001843      5.00      14.0067
      62     2 Ga  31    3.211549    0.041954   13.621705     13.00      69.7230
      63     1 N    7    3.211126    0.073971   15.583930      5.00      14.0067
      64     2 Ga  31    3.210122    1.912312   15.860710     13.00      69.7230
      65     1 N    7    1.470521    4.641091    2.521563      5.00      14.0067
      66     2 Ga  31    1.684094    2.808752    3.297362     13.00      69.7230
      67     1 N    7    1.600804    2.847608    5.262895      5.00      14.0067
      68     2 Ga  31    1.650487    4.721972    5.823611     13.00      69.7230
      69     1 N    7    1.600125    4.700518    7.828483      5.00      14.0067
      70     2 Ga  31    1.591896    2.843999    8.441740     13.00      69.7230
      71     1 N    7    1.591996    2.844008   10.438425      5.00      14.0067
      72     2 Ga  31    1.619001    4.705634   11.069568     13.00      69.7230
      73     1 N    7    1.634662    4.716046   13.065996      5.00      14.0067
      74     2 Ga  31    1.591661    2.848102   13.621696     13.00      69.7230
      75     1 N    7    1.619880    2.833808   15.585899      5.00      14.0067
      76     2 Ga  31    1.441424    4.607362   16.479714     13.00      69.7230
      77     1 N    7   -0.015409    7.475588    2.692737      5.00      14.0067
      78     2 Ga  31    0.001616    5.624798    3.340482     13.00      69.7230
      79     1 N    7   -0.009409    5.640589    5.269535      5.00      14.0067
      80     2 Ga  31   -0.009531    7.482181    5.904585     13.00      69.7230
      81     1 N    7   -0.005140    7.486399    7.864469      5.00      14.0067
      82     2 Ga  31   -0.007819    5.612951    8.454310     13.00      69.7230
      83     1 N    7   -0.008490    5.615947   10.444950      5.00      14.0067
      84     2 Ga  31   -0.008194    7.484640   11.034623     13.00      69.7230
      85     1 N    7   -0.005890    7.484042   13.005948      5.00      14.0067
      86     2 Ga  31   -0.004585    5.612927   13.621746     13.00      69.7230
      87     1 N    7   -0.005979    5.646177   15.583560      5.00      14.0067
      88     2 Ga  31   -0.004737    7.484794   15.858476     13.00      69.7230
      89     1 N    7   -1.709216   10.212711    2.506605      5.00      14.0067
      90     2 Ga  31   -1.626372    8.416993    3.299070     13.00      69.7230
      91     1 N    7   -1.601123    8.406844    5.241901      5.00      14.0067
      92     2 Ga  31   -1.594253   10.290808    5.794705     13.00      69.7230
      93     1 N    7   -1.604071   10.273211    7.791346      5.00      14.0067
      94     2 Ga  31   -1.628134    8.420001    8.440867     13.00      69.7230
      95     1 N    7   -1.625887    8.418719   10.433301      5.00      14.0067
      96     2 Ga  31   -1.599878   10.278177   11.069327     13.00      69.7230
      97     1 N    7   -1.580979   10.286528   13.064300      5.00      14.0067
      98     2 Ga  31   -1.625204    8.418854   13.623976     13.00      69.7230
      99     1 N    7   -1.598249    8.403875   15.586776      5.00      14.0067
     100     2 Ga  31   -1.774575   10.177161   16.484487     13.00      69.7230
     101     1 N    7    6.426840    2.039366    2.540353      5.00      14.0067
     102     2 Ga  31    6.405811    0.056475    2.882056     13.00      69.7230
     103     1 N    7    6.432256    0.059247    5.024398      5.00      14.0067
     104     2 Ga  31    6.420318    1.894090    5.799081     13.00      69.7230
     105     1 N    7    6.425264    1.901329    7.795997      5.00      14.0067
     106     2 Ga  31    6.424537    0.057353    8.444412     13.00      69.7230
     107     1 N    7    6.426832    0.055637   10.419193      5.00      14.0067
     108     2 Ga  31    6.427605    1.895079   11.071219     13.00      69.7230
     109     1 N    7    6.428253    1.874662   13.067047      5.00      14.0067
     110     2 Ga  31    6.428247    0.053592   13.869038     13.00      69.7230
     111     1 N    7    6.428560    0.054488   16.072137      5.00      14.0067
     112     2 Ga  31    6.425718    2.089129   16.473956     13.00      69.7230
     113     2 Ga  31    6.463849    3.743432    1.515727     13.00      69.7230
     114     1 N    7    4.920693    4.639615    2.419377      5.00      14.0067
     115     2 Ga  31    4.690641    2.807602    3.278677     13.00      69.7230
     116     1 N    7    4.817630    2.851488    5.238637      5.00      14.0067
     117     2 Ga  31    4.775488    4.725499    5.818147     13.00      69.7230
     118     1 N    7    4.820583    4.697848    7.824067      5.00      14.0067
     119     2 Ga  31    4.828157    2.844987    8.445745     13.00      69.7230
     120     1 N    7    4.829818    2.844205   10.439865      5.00      14.0067
     121     2 Ga  31    4.804082    4.706982   11.067932     13.00      69.7230
     122     1 N    7    4.787358    4.716488   13.065537      5.00      14.0067
     123     2 Ga  31    4.830199    2.847257   13.618032     13.00      69.7230
     124     1 N    7    4.802313    2.833487   15.583726      5.00      14.0067
     125     2 Ga  31    4.972067    4.610211   16.472717     13.00      69.7230
     126     1 N    7    6.428477    3.768683   17.599360      5.00      14.0067
     127     1 N    7    3.201215    7.602014    2.423911      5.00      14.0067
     128     1 N    7    3.211877    5.632900    5.158126      5.00      14.0067
     129     2 Ga  31    3.217672    7.428929    5.833254     13.00      69.7230
     130     1 N    7    3.208923    7.488835    7.829632      5.00      14.0067
     131     2 Ga  31    3.211063    5.625978    8.441755     13.00      69.7230
     132     1 N    7    3.211088    5.627242   10.423799      5.00      14.0067
     133     2 Ga  31    3.212705    7.465379   11.071690     13.00      69.7230
     134     1 N    7    3.211679    7.447284   13.066963      5.00      14.0067
     135     2 Ga  31    3.210206    5.627363   13.867066     13.00      69.7230
     136     1 N    7    3.210545    5.628016   16.072605      5.00      14.0067
     137     2 Ga  31    3.210397    7.672640   16.485714     13.00      69.7230
     138     2 Ga  31    3.237583    9.609732    1.384092     13.00      69.7230
     139     1 N    7    1.708919   10.195426    2.528203      5.00      14.0067
     140     2 Ga  31    1.585926    8.364672    3.326512     13.00      69.7230
     141     1 N    7    1.596428    8.402637    5.249239      5.00      14.0067
     142     2 Ga  31    1.576847   10.286055    5.809210     13.00      69.7230
     143     1 N    7    1.591557   10.272663    7.799481      5.00      14.0067
     144     2 Ga  31    1.612727    8.421896    8.459061     13.00      69.7230
     145     1 N    7    1.610987    8.420210   10.446869      5.00      14.0067
     146     2 Ga  31    1.587519   10.279703   11.074992     13.00      69.7230
     147     1 N    7    1.572238   10.287103   13.067820      5.00      14.0067
     148     2 Ga  31    1.615518    8.418374   13.624015     13.00      69.7230
     149     1 N    7    1.587120    8.403805   15.585163      5.00      14.0067
     150     2 Ga  31    1.767892   10.174048   16.487156     13.00      69.7230
     151     1 N    7    3.215811    9.340886   17.625645      5.00      14.0067
     152     1 N    7    9.652806    1.919876    2.611764      5.00      14.0067
     153     2 Ga  31    9.652208    0.186040    3.302203     13.00      69.7230
     154     1 N    7    9.641526    0.056539    5.257067      5.00      14.0067
     155     2 Ga  31    9.651050    1.918713    5.880544     13.00      69.7230
     156     1 N    7    9.642530    1.912605    7.853261      5.00      14.0067
     157     2 Ga  31    9.644999    0.044055    8.438159     13.00      69.7230
     158     1 N    7    9.643058    0.042129   10.432302      5.00      14.0067
     159     2 Ga  31    9.642405    1.912342   11.025267     13.00      69.7230
     160     1 N    7    9.643210    1.912056   12.998832      5.00      14.0067
     161     2 Ga  31    9.643860    0.043208   13.623827     13.00      69.7230
     162     1 N    7    9.642325    0.075618   15.585040      5.00      14.0067
     163     2 Ga  31    9.644888    1.912678   15.864072     13.00      69.7230
     164     1 N    7    7.928297    4.634186    2.527635      5.00      14.0067
     165     2 Ga  31    8.149156    2.784716    3.306194     13.00      69.7230
     166     1 N    7    8.038084    2.840877    5.260144      5.00      14.0067
     167     2 Ga  31    8.054996    4.718577    5.793193     13.00      69.7230
     168     1 N    7    8.044026    4.706481    7.792608      5.00      14.0067
     169     2 Ga  31    8.023285    2.849066    8.434423     13.00      69.7230
     170     1 N    7    8.023463    2.847754   10.430270      5.00      14.0067
     171     2 Ga  31    8.050351    4.706432   11.070424     13.00      69.7230
     172     1 N    7    8.068153    4.715829   13.066151      5.00      14.0067
     173     2 Ga  31    8.025134    2.846919   13.620510     13.00      69.7230
     174     1 N    7    8.051671    2.833022   15.587027      5.00      14.0067
     175     2 Ga  31    7.881527    4.611803   16.472539     13.00      69.7230
     176     1 N    7    6.425040    7.484129    2.583313      5.00      14.0067
     177     2 Ga  31    6.401853    5.746075    3.271597     13.00      69.7230
     178     1 N    7    6.419743    5.623023    5.232317      5.00      14.0067
     179     2 Ga  31    6.425721    7.482794    5.857017     13.00      69.7230
     180     1 N    7    6.424449    7.483064    7.837449      5.00      14.0067
     181     2 Ga  31    6.428898    5.617249    8.442748     13.00      69.7230
     182     1 N    7    6.429764    5.616287   10.437321      5.00      14.0067
     183     2 Ga  31    6.429992    7.484547   11.029020     13.00      69.7230
     184     1 N    7    6.428366    7.484000   13.002089      5.00      14.0067
     185     2 Ga  31    6.427431    5.613647   13.618680     13.00      69.7230
     186     1 N    7    6.426431    5.645914   15.583892      5.00      14.0067
     187     2 Ga  31    6.428065    7.485689   15.861753     13.00      69.7230
     188     1 N    7    4.712898   10.209590    2.526950      5.00      14.0067
     189     2 Ga  31    4.915195    8.333267    3.277661     13.00      69.7230
     190     1 N    7    4.806985    8.410821    5.235715      5.00      14.0067
     191     2 Ga  31    4.849270   10.280617    5.797537     13.00      69.7230
     192     1 N    7    4.829216   10.273443    7.795068      5.00      14.0067
     193     2 Ga  31    4.813284    8.420560    8.446297     13.00      69.7230
     194     1 N    7    4.811648    8.419411   10.439278      5.00      14.0067
     195     2 Ga  31    4.835241   10.277925   11.072086     13.00      69.7230
     196     1 N    7    4.850977   10.286995   13.066712      5.00      14.0067
     197     2 Ga  31    4.807865    8.418285   13.623699     13.00      69.7230
     198     1 N    7    4.835449    8.402424   15.586624      5.00      14.0067
     199     2 Ga  31    4.657924   10.176990   16.486450     13.00      69.7230
     200     3 O    8    0.738502    3.853572   -0.361223      6.00      15.9994
     201     4 H    1    3.129454    6.962160    1.447123      1.00       1.0079
     202     5 C    6    1.151315    2.588749   -0.929312      4.00      12.0107
     203     4 H    1    1.846492    2.047987   -0.266265      1.00       1.0079
     204     4 H    1    0.282576    1.944142   -1.131577      1.00       1.0079
     205     4 H    1    1.653952    2.799544   -1.882962      1.00       1.0079
     206     2 Ga  31    3.164084    5.589664    2.248864     13.00      69.7230
     207     3 O    8    2.818309    5.481931    0.132565      6.00      15.9994
     208     4 H    1    2.050820    4.830821   -0.062170      1.00       1.0079
     209     5 C    6    3.900552    5.255304   -0.802127      4.00      12.0107
     210     4 H    1    3.550561    5.415930   -1.829061      1.00       1.0079
     211     4 H    1    4.692257    5.975769   -0.566405      1.00       1.0079
     212     4 H    1    4.301061    4.232249   -0.705566      1.00       1.0079




 SCF PARAMETERS         Density guess:                                    ATOMIC
                        --------------------------------------------------------
                        max_scf:                                              80
                        max_scf_history:                                       0
                        max_diis:                                              4
                        --------------------------------------------------------
                        eps_scf:                                        5.00E-06
                        eps_scf_history:                                0.00E+00
                        eps_diis:                                       1.00E-01
                        eps_eigval:                                     1.00E-05
                        --------------------------------------------------------
                        level_shift [a.u.]:                                 0.00
                        --------------------------------------------------------
                        Outer loop SCF in use 
                        No variables optimised in outer loop
                        eps_scf                                         5.00E-06
                        max_scf                                                4
                        No outer loop optimization
                        step_size                                       5.00E-01

 PW_GRID| Information for grid number                                          1
 PW_GRID| Grid distributed over                                    80 processors
 PW_GRID| Real space group dimensions                                    80    1
 PW_GRID| the grid is blocked:                                                NO
 PW_GRID| Cutoff [a.u.]                                                    600.0
 PW_GRID| spherical cutoff:                                                   NO
 PW_GRID|   Bounds   1           -144     143                Points:         288
 PW_GRID|   Bounds   2           -144     143                Points:         288
 PW_GRID|   Bounds   3           -337     337                Points:         675
 PW_GRID| Volume element (a.u.^3)  0.5630E-03     Volume (a.u.^3)     31519.8467
 PW_GRID| Grid span                                                    FULLSPACE
 PW_GRID|   Distribution                         Average         Max         Min
 PW_GRID|   G-Vectors                           699840.0      699840      699840
 PW_GRID|   G-Rays                                2430.0        2430        2430
 PW_GRID|   Real Space Points                   699840.0      777600      583200

 PW_GRID| Information for grid number                                          2
 PW_GRID| Grid distributed over                                    80 processors
 PW_GRID| Real space group dimensions                                    80    1
 PW_GRID| the grid is blocked:                                                NO
 PW_GRID| Cutoff [a.u.]                                                    200.0
 PW_GRID| spherical cutoff:                                                   NO
 PW_GRID|   Bounds   1            -80      79                Points:         160
 PW_GRID|   Bounds   2            -80      79                Points:         160
 PW_GRID|   Bounds   3           -200     199                Points:         400
 PW_GRID| Volume element (a.u.^3)  0.3078E-02     Volume (a.u.^3)     31519.8467
 PW_GRID| Grid span                                                    FULLSPACE
 PW_GRID|   Distribution                         Average         Max         Min
 PW_GRID|   G-Vectors                           128000.0      128160      127840
 PW_GRID|   G-Rays                                 800.0         801         799
 PW_GRID|   Real Space Points                   128000.0      128000      128000

 PW_GRID| Information for grid number                                          3
 PW_GRID| Grid distributed over                                    80 processors
 PW_GRID| Real space group dimensions                                    80    1
 PW_GRID| the grid is blocked:                                                NO
 PW_GRID| Cutoff [a.u.]                                                     66.7
 PW_GRID| spherical cutoff:                                                   NO
 PW_GRID|   Bounds   1            -48      47                Points:          96
 PW_GRID|   Bounds   2            -48      47                Points:          96
 PW_GRID|   Bounds   3           -112     112                Points:         225
 PW_GRID| Volume element (a.u.^3)  0.1520E-01     Volume (a.u.^3)     31519.8467
 PW_GRID| Grid span                                                    FULLSPACE
 PW_GRID|   Distribution                         Average         Max         Min
 PW_GRID|   G-Vectors                            25920.0       26688       24864
 PW_GRID|   G-Rays                                 270.0         278         259
 PW_GRID|   Real Space Points                    25920.0       43200       21600

 PW_GRID| Information for grid number                                          4
[...]
     11       N      1       5.000    2.134   2.134            0.000      0.732
     12       Ga     2      13.000    6.914   6.914           -0.000     -0.829
     13       Ga     2      13.000    6.966   6.966           -0.000     -0.931
     14       N      1       5.000    2.099   2.099           -0.000      0.802
     15       Ga     2      13.000    6.968   6.968            0.000     -0.936
     16       N      1       5.000    2.052   2.052            0.000      0.896
     17       Ga     2      13.000    6.942   6.942            0.000     -0.885
     18       N      1       5.000    2.061   2.061            0.000      0.877
     19       Ga     2      13.000    6.938   6.938            0.000     -0.877
     20       N      1       5.000    2.061   2.061            0.000      0.878
     21       Ga     2      13.000    6.939   6.939            0.000     -0.878
     22       N      1       5.000    2.060   2.060            0.000      0.881
     23       Ga     2      13.000    6.950   6.950           -0.000     -0.900
     24       N      1       5.000    2.051   2.051           -0.000      0.899
     25       Ga     2      13.000    6.915   6.915           -0.000     -0.830
     26       N      1       5.000    2.235   2.235           -0.000      0.529
     27       N      1       5.000    2.099   2.099           -0.000      0.803
     28       Ga     2      13.000    6.885   6.885           -0.000     -0.771
     29       N      1       5.000    2.101   2.101           -0.000      0.798
     30       Ga     2      13.000    6.940   6.940            0.000     -0.881
     31       N      1       5.000    2.062   2.062            0.000      0.876
     32       Ga     2      13.000    6.951   6.951            0.000     -0.902
     33       N      1       5.000    2.052   2.052            0.000      0.896
     34       Ga     2      13.000    6.938   6.938            0.000     -0.877
     35       N      1       5.000    2.060   2.060           -0.000      0.879
     36       Ga     2      13.000    6.872   6.872            0.000     -0.745
     37       N      1       5.000    2.133   2.133            0.000      0.733
     38       Ga     2      13.000    6.918   6.918           -0.000     -0.836
     39       Ga     2      13.000    6.724   6.724           -0.000     -0.448
     40       N      1       5.000    2.096   2.096           -0.000      0.807
     41       Ga     2      13.000    6.957   6.957           -0.000     -0.915
     42       N      1       5.000    2.051   2.051           -0.000      0.897
     43       Ga     2      13.000    6.943   6.943            0.000     -0.887
     44       N      1       5.000    2.060   2.060            0.000      0.880
     45       Ga     2      13.000    6.937   6.937            0.000     -0.874
     46       N      1       5.000    2.063   2.063            0.000      0.874
     47       Ga     2      13.000    6.938   6.938            0.000     -0.877
     48       N      1       5.000    2.060   2.060           -0.000      0.879
     49       Ga     2      13.000    6.949   6.949           -0.000     -0.899
     50       N      1       5.000    2.051   2.051           -0.000      0.899
     51       Ga     2      13.000    6.917   6.917           -0.000     -0.834
     52       N      1       5.000    2.224   2.224           -0.000      0.552
     53       N      1       5.000    2.126   2.126            0.000      0.748
     54       Ga     2      13.000    6.963   6.963           -0.000     -0.927
     55       N      1       5.000    2.049   2.049           -0.000      0.903
     56       Ga     2      13.000    6.937   6.937            0.000     -0.874
     57       N      1       5.000    2.054   2.054           -0.000      0.892
     58       Ga     2      13.000    6.938   6.938            0.000     -0.876
     59       N      1       5.000    2.062   2.062            0.000      0.876
     60       Ga     2      13.000    6.945   6.945            0.000     -0.890
     61       N      1       5.000    2.063   2.063           -0.000      0.875
     62       Ga     2      13.000    6.949   6.949           -0.000     -0.898
     63       N      1       5.000    2.050   2.050           -0.000      0.899
     64       Ga     2      13.000    6.858   6.858           -0.000     -0.716
     65       N      1       5.000    2.076   2.076            0.000      0.848
     66       Ga     2      13.000    6.981   6.981            0.000     -0.963
     67       N      1       5.000    2.048   2.048            0.000      0.903
     68       Ga     2      13.000    6.940   6.940            0.000     -0.879
     69       N      1       5.000    2.062   2.062            0.000      0.877
     70       Ga     2      13.000    6.937   6.937            0.000     -0.873
     71       N      1       5.000    2.062   2.062            0.000      0.876
     72       Ga     2      13.000    6.938   6.938            0.000     -0.877
     73       N      1       5.000    2.060   2.060            0.000      0.880
     74       Ga     2      13.000    6.950   6.950           -0.000     -0.899
     75       N      1       5.000    2.051   2.051           -0.000      0.898
     76       Ga     2      13.000    6.914   6.914           -0.000     -0.829
     77       N      1       5.000    2.128   2.128           -0.000      0.744
     78       Ga     2      13.000    6.975   6.975           -0.000     -0.950
     79       N      1       5.000    2.050   2.050           -0.000      0.900
     80       Ga     2      13.000    6.937   6.937            0.000     -0.873
     81       N      1       5.000    2.058   2.058            0.000      0.884
     82       Ga     2      13.000    6.937   6.937            0.000     -0.873
     83       N      1       5.000    2.063   2.063            0.000      0.874
     84       Ga     2      13.000    6.945   6.945            0.000     -0.890
     85       N      1       5.000    2.063   2.063           -0.000      0.875
     86       Ga     2      13.000    6.950   6.950           -0.000     -0.900
     87       N      1       5.000    2.051   2.051           -0.000      0.898
     88       Ga     2      13.000    6.858   6.858           -0.000     -0.716
     89       N      1       5.000    2.096   2.096           -0.000      0.807
     90       Ga     2      13.000    6.961   6.961           -0.000     -0.922
     91       N      1       5.000    2.050   2.050            0.000      0.900
     92       Ga     2      13.000    6.944   6.944            0.000     -0.888
     93       N      1       5.000    2.060   2.060            0.000      0.880
     94       Ga     2      13.000    6.937   6.937            0.000     -0.873
     95       N      1       5.000    2.063   2.063            0.000      0.874
     96       Ga     2      13.000    6.938   6.938            0.000     -0.877
     97       N      1       5.000    2.060   2.060           -0.000      0.880
     98       Ga     2      13.000    6.949   6.949           -0.000     -0.898
     99       N      1       5.000    2.050   2.050           -0.000      0.899
    100       Ga     2      13.000    6.917   6.917           -0.000     -0.835
    101       N      1       5.000    2.092   2.092           -0.000      0.816
    102       Ga     2      13.000    6.905   6.905            0.000     -0.810
    103       N      1       5.000    2.094   2.094            0.000      0.811
    104       Ga     2      13.000    6.946   6.946            0.000     -0.892
    105       N      1       5.000    2.060   2.060            0.000      0.881
    106       Ga     2      13.000    6.950   6.950            0.000     -0.900
    107       N      1       5.000    2.052   2.052            0.000      0.896
    108       Ga     2      13.000    6.938   6.938            0.000     -0.877
    109       N      1       5.000    2.059   2.059            0.000      0.881
    110       Ga     2      13.000    6.873   6.873            0.000     -0.746
    111       N      1       5.000    2.133   2.133            0.000      0.733
    112       Ga     2      13.000    6.914   6.914           -0.000     -0.828
    113       Ga     2      13.000    6.799   6.799           -0.000     -0.599
    114       N      1       5.000    2.085   2.085           -0.000      0.831
    115       Ga     2      13.000    6.961   6.961           -0.000     -0.922
    116       N      1       5.000    2.049   2.049           -0.000      0.901
    117       Ga     2      13.000    6.947   6.947            0.000     -0.893
    118       N      1       5.000    2.061   2.061            0.000      0.879
    119       Ga     2      13.000    6.938   6.938            0.000     -0.876
    120       N      1       5.000    2.061   2.061            0.000      0.878
    121       Ga     2      13.000    6.938   6.938            0.000     -0.877
    122       N      1       5.000    2.060   2.060            0.000      0.880
    123       Ga     2      13.000    6.950   6.950           -0.000     -0.899
    124       N      1       5.000    2.051   2.051           -0.000      0.898
    125       Ga     2      13.000    6.914   6.914           -0.000     -0.827
    126       N      1       5.000    2.235   2.235           -0.000      0.530
    127       N      1       5.000    2.246   2.246            0.000      0.509
    128       N      1       5.000    2.104   2.104            0.000      0.792
    129       Ga     2      13.000    6.944   6.944            0.000     -0.889
    130       N      1       5.000    2.064   2.064            0.000      0.873
    131       Ga     2      13.000    6.951   6.951            0.000     -0.902
    132       N      1       5.000    2.053   2.053            0.000      0.894
    133       Ga     2      13.000    6.940   6.940            0.000     -0.881
    134       N      1       5.000    2.060   2.060            0.000      0.880
    135       Ga     2      13.000    6.873   6.873            0.000     -0.746
    136       N      1       5.000    2.133   2.133            0.000      0.733
    137       Ga     2      13.000    6.914   6.914           -0.000     -0.828
    138       Ga     2      13.000    6.670   6.670            0.000     -0.340
    139       N      1       5.000    2.091   2.091            0.000      0.817
    140       Ga     2      13.000    7.003   7.003            0.000     -1.007
    141       N      1       5.000    2.060   2.060            0.000      0.880
    142       Ga     2      13.000    6.943   6.943            0.000     -0.886
    143       N      1       5.000    2.061   2.061            0.000      0.879
    144       Ga     2      13.000    6.940   6.940            0.000     -0.879
    145       N      1       5.000    2.062   2.062            0.000      0.875
    146       Ga     2      13.000    6.939   6.939            0.000     -0.879
    147       N      1       5.000    2.060   2.060           -0.000      0.881
    148       Ga     2      13.000    6.950   6.950           -0.000     -0.901
    149       N      1       5.000    2.051   2.051           -0.000      0.898
    150       Ga     2      13.000    6.914   6.914           -0.000     -0.829
    151       N      1       5.000    2.235   2.235           -0.000      0.529
    152       N      1       5.000    2.121   2.121            0.000      0.757
    153       Ga     2      13.000    6.956   6.956            0.000     -0.913
    154       N      1       5.000    2.044   2.044            0.000      0.911
    155       Ga     2      13.000    6.937   6.937            0.000     -0.874
    156       N      1       5.000    2.054   2.054            0.000      0.892
    157       Ga     2      13.000    6.936   6.936            0.000     -0.872
    158       N      1       5.000    2.063   2.063           -0.000      0.875
    159       Ga     2      13.000    6.945   6.945           -0.000     -0.889
    160       N      1       5.000    2.062   2.062           -0.000      0.875
    161       Ga     2      13.000    6.951   6.951           -0.000     -0.902
    162       N      1       5.000    2.051   2.051           -0.000      0.899
    163       Ga     2      13.000    6.857   6.857           -0.000     -0.714
    164       N      1       5.000    2.099   2.099           -0.000      0.803
    165       Ga     2      13.000    6.957   6.957            0.000     -0.913
    166       N      1       5.000    2.050   2.050            0.000      0.901
    167       Ga     2      13.000    6.944   6.944            0.000     -0.888
    168       N      1       5.000    2.061   2.061            0.000      0.877
    169       Ga     2      13.000    6.938   6.938            0.000     -0.876
    170       N      1       5.000    2.061   2.061            0.000      0.878
    171       Ga     2      13.000    6.939   6.939            0.000     -0.878
    172       N      1       5.000    2.060   2.060            0.000      0.881
    173       Ga     2      13.000    6.950   6.950           -0.000     -0.900
    174       N      1       5.000    2.051   2.051            0.000      0.899
    175       Ga     2      13.000    6.914   6.914           -0.000     -0.829
    176       N      1       5.000    2.126   2.126           -0.000      0.749
    177       Ga     2      13.000    6.960   6.960           -0.000     -0.920
    178       N      1       5.000    2.050   2.050            0.000      0.899
    179       Ga     2      13.000    6.933   6.933            0.000     -0.865
    180       N      1       5.000    2.057   2.057            0.000      0.886
    181       Ga     2      13.000    6.938   6.938            0.000     -0.876
    182       N      1       5.000    2.062   2.062            0.000      0.875
    183       Ga     2      13.000    6.946   6.946            0.000     -0.892
    184       N      1       5.000    2.063   2.063           -0.000      0.874
    185       Ga     2      13.000    6.950   6.950           -0.000     -0.900
    186       N      1       5.000    2.051   2.051           -0.000      0.898
    187       Ga     2      13.000    6.858   6.858           -0.000     -0.715
    188       N      1       5.000    2.092   2.092            0.000      0.816
    189       Ga     2      13.000    7.000   7.000            0.000     -1.000
    190       N      1       5.000    2.062   2.062            0.000      0.877
    191       Ga     2      13.000    6.943   6.943            0.000     -0.886
    192       N      1       5.000    2.061   2.061            0.000      0.878
    193       Ga     2      13.000    6.940   6.940            0.000     -0.881
    194       N      1       5.000    2.062   2.062            0.000      0.875
    195       Ga     2      13.000    6.939   6.939            0.000     -0.878
    196       N      1       5.000    2.060   2.060           -0.000      0.880
    197       Ga     2      13.000    6.950   6.950           -0.000     -0.901
    198       N      1       5.000    2.051   2.051           -0.000      0.898
    199       Ga     2      13.000    6.914   6.914           -0.000     -0.828
    200       O      3       6.000    3.057   3.057           -0.000     -0.115
    201       H      4       1.000    0.231   0.231            0.000      0.539
    202       C      5       4.000    2.438   2.438            0.000     -0.877
    203       H      4       1.000    0.277   0.277            0.000      0.446
    204       H      4       1.000    0.281   0.281            0.000      0.439
    205       H      4       1.000    0.281   0.281           -0.000      0.439
    206       Ga     2      13.000    6.989   6.989            0.000     -0.977
    207       O      3       6.000    3.261   3.261            0.000     -0.521
    208       H      4       1.000    0.205   0.205            0.000      0.589
    209       C      5       4.000    2.450   2.450            0.000     -0.901
    210       H      4       1.000    0.280   0.280           -0.000      0.440
    211       H      4       1.000    0.278   0.278            0.000      0.444
    212       H      4       1.000    0.279   0.279           -0.000      0.443

  Total Charge                                                            0.003
 !-----------------------------------------------------------------------------!

 ENERGY| Total FORCE_EVAL ( QS ) energy (a.u.):            -8504.696787823986597


 --------  Informations at step =     7 ------------
  Optimization Method        =                 BFGS
  Total Energy               =     -8504.6967878240
  Real energy change         =        -0.0027503945
  Predicted change in energy =        -0.0021727592
  Scaling factor             =         0.0000000000
  Step size                  =         0.1606645856
  Trust radius               =         0.4724315332
  Decrease in energy         =                  YES
  Used time                  =              296.148

  Convergence check :
  Max. step size             =         0.1606645856
  Conv. limit for step size  =         0.0030000000
  Convergence in step size   =                   NO
  RMS step size              =         0.0102999788
  Conv. limit for RMS step   =         0.0015000000
  Convergence in RMS step    =                   NO
  Max. gradient              =         0.0145531690
  Conv. limit for gradients  =         0.0004500000
  Conv. for gradients        =                   NO
  RMS gradient               =         0.0011802635
  Conv. limit for RMS grad.  =         0.0003000000
  Conv. for gradients        =                   NO
 ---------------------------------------------------

 --------------------------
 OPTIMIZATION STEP:      8
 --------------------------

 Spin 1

 Number of electrons:                                                        914
 Number of occupied orbitals:                                                914
 Number of molecular orbitals:                                               914

 Spin 2

 Number of electrons:                                                        914
 Number of occupied orbitals:                                                914
 Number of molecular orbitals:                                               914

 Number of orbital functions:                                               3892
 Number of independent orbital functions:                                   3892

 Parameters for the always stable predictor-corrector (ASPC) method:

  ASPC order: 3

  B(1) =   3.000000
  B(2) =  -3.428571
  B(3) =   1.928571
  B(4) =  -0.571429
  B(5) =   0.071429

 Parameters for the always stable predictor-corrector (ASPC) method:

  ASPC order: 3

  B(1) =   3.000000
  B(2) =  -3.428571
  B(3) =   1.928571
  B(4) =  -0.571429
  B(5) =   0.071429

 Extrapolation method: ASPC


 SCF WAVEFUNCTION OPTIMIZATION

  ----------------------------------- OT ---------------------------------------
  Minimizer      : CG                  : conjugate gradient
  Preconditioner : FULL_ALL            : diagonalization, state selective
  Precond_solver : DEFAULT
  Line search    : 2PNT                : 2 energies, one gradient
  stepsize       :    0.15000000                  energy_gap     :    0.08000000
  eps_taylor     :   0.10000E-15                  max_taylor     :             4
  ----------------------------------- OT ---------------------------------------

  Step     Update method      Time    Convergence         Total energy    Change
  ------------------------------------------------------------------------------
     1 OT CG       0.15E+00   26.8     0.00010601     -8504.6805012473 -8.50E+03
     2 OT LS       0.37E+00    8.2                    -8504.6900709516
     3 OT CG       0.37E+00   18.4     0.00007917     -8504.6953129732 -1.48E-02
     4 OT LS       0.91E-01    8.2                    -8504.6783150232
     5 OT CG       0.91E-01   17.7     0.00006514     -8504.6973412447 -2.03E-03
     6 OT LS       0.65E-01    8.0                    -8504.6981686455
