     212
 i =        1, E =     -8504.6498037779
  N        -0.0004147525        2.0578314944        2.5029887717
 Ga         0.0120256231        0.0945945097        2.8551304129
  N        -0.0083158262        0.0600356892        5.0182843074
 Ga        -0.0066380789        1.8914278212        5.7996916123
  N        -0.0070363177        1.8998315816        7.7995310708
 Ga        -0.0031897047        0.0557725708        8.4404929355
  N        -0.0048796630        0.0547482227       10.4169382624
 Ga        -0.0044410499        1.8937281748       11.0710963132
  N        -0.0053845091        1.8753245987       13.0653137248
 Ga        -0.0050767685        0.0559192623       13.8688125631
  N        -0.0057309719        0.0583685224       16.0712911259
 Ga        -0.0066892461        2.1025899927       16.4830920632
 Ga         0.0124474985        3.7442349473        1.3641997553
  N        -1.4719727478        4.6223301149        2.4875305940
 Ga        -1.6801227252        2.7983966459        3.2676003410
  N        -1.6177471689        2.8414997386        5.2463716846
 Ga        -1.6438474722        4.7059459492        5.8090890328
  N        -1.6266468649        4.7035629048        7.8048801561
 Ga        -1.6021163000        2.8449178542        8.4410693263
  N        -1.6024946800        2.8467680405       10.4346882409
 Ga        -1.6307353077        4.7059909148       11.0730358410
  N        -1.6457906420        4.7158983286       13.0658305311
 Ga        -1.6027636151        2.8466448784       13.6199249827
  N        -1.6308647548        2.8323042122       15.5792251911
 Ga        -1.4489554977        4.6014547479       16.4820193361
  N        -0.0028903262        3.7693147351       17.6241209855
  N        -3.2229311909        7.6007893762        2.5101176015
 Ga        -3.1788835659        5.6250575166        2.8353926828
  N        -3.2204651218        5.6213121548        5.0105560632
 Ga        -3.2304064198        7.4492431536        5.7902068526
  N        -3.2228095173        7.4728978452        7.7894566032
 Ga        -3.2243181525        5.6269833808        8.4452700231
  N        -3.2229334190        5.6273887733       10.4196546796
 Ga        -3.2242116764        7.4669105400       11.0697769731
  N        -3.2215312882        7.4464368668       13.0645335856
 Ga        -3.2204984851        5.6256850648       13.8679178101
  N        -3.2211027942        5.6260062981       16.0695224601
 Ga        -3.2211212779        7.6670795102       16.4818667986
 Ga        -3.2382374461        9.3551933296        1.3298704290
  N        -4.7349440441       10.2151401230        2.5014464243
 Ga        -4.9156359305        8.3651585628        3.2407229726
  N        -4.8342451406        8.4104403727        5.2233961231
 Ga        -4.8529876240       10.2841628519        5.7820528515
  N        -4.8388158502       10.2737680142        7.7850851479
 Ga        -4.8231422119        8.4191834744        8.4278246896
  N        -4.8192545738        8.4179555567       10.4249585980
 Ga        -4.8440265600       10.2761970066       11.0669653163
  N        -4.8605326660       10.2862081694       13.0629698433
 Ga        -4.8171250161        8.4186734332       13.6233210651
  N        -4.8446886007        8.4035187170       15.5866394662
 Ga        -4.6725330032       10.1797093967       16.4821485154
  N        -3.2227088692        9.3417593046       17.6095056937
  N         3.1927097713        1.9253167147        2.5913241757
 Ga         3.2034459336        0.1630102818        3.2464413435
  N         3.2113949135        0.0605059899        5.2286914881
 Ga         3.2075104170        1.9164738789        5.8661960672
  N         3.2126942856        1.9133083452        7.8452617163
 Ga         3.2072857772        0.0473837398        8.4309332703
  N         3.2102334610        0.0425453912       10.4272853062
 Ga         3.2102409160        1.9102841803       11.0286238816
  N         3.2113451770        1.9106932388       13.0007912722
 Ga         3.2110262818        0.0422923181       13.6228755484
  N         3.2117074177        0.0746774668       15.5862046538
 Ga         3.2105512368        1.9137649368       15.8611192802
  N         1.4341439259        4.6176452273        2.5377344675
 Ga         1.6845512264        2.7976278793        3.3024034419
  N         1.6019328898        2.8458415980        5.2658612863
 Ga         1.6504035159        4.7213778761        5.8243501092
  N         1.6024986766        4.6993205431        7.8298724443
 Ga         1.5918967921        2.8432214456        8.4416909908
  N         1.5923199065        2.8437030069       10.4370898040
 Ga         1.6194401264        4.7051220229       11.0696543047
  N         1.6350695438        4.7160326086       13.0653089021
 Ga         1.5919310247        2.8472941208       13.6202626737
  N         1.6190345564        2.8309767983       15.5818153484
 Ga         1.4395284087        4.6036313425       16.4825806835
  N        -0.0126755947        7.4694630966        2.6764834139
 Ga        -0.0128505509        5.6761092267        3.3280590126
  N        -0.0083592125        5.6234042149        5.2727770788
 Ga        -0.0048513380        7.4823357586        5.8679275874
  N        -0.0051613658        7.4872291402        7.8431265232
 Ga        -0.0076882671        5.6144078423        8.4501367385
  N        -0.0082111314        5.6155443836       10.4429884279
 Ga        -0.0079469886        7.4842978291       11.0350036602
  N        -0.0063486023        7.4847938096       13.0060958195
 Ga        -0.0049046765        5.6125096095       13.6212005821
  N        -0.0069062443        5.6462750684       15.5823915373
 Ga        -0.0038237719        7.4844487704       15.8609147029
  N        -1.7168334775       10.2150002667        2.5170218095
 Ga        -1.5725160491        8.3875410609        3.2771365819
  N        -1.6169253631        8.4169365858        5.2377636147
 Ga        -1.5941745685       10.2927838088        5.7976754783
  N        -1.6051332337       10.2749007097        7.7934785426
 Ga        -1.6259584041        8.4189028830        8.4394109455
  N        -1.6263131924        8.4189211041       10.4329967739
 Ga        -1.6002024405       10.2786790928       11.0702997606
  N        -1.5808146251       10.2872434644       13.0651810385
 Ga        -1.6261132585        8.4191730397       13.6242000534
  N        -1.5972692033        8.4040256073       15.5876862236
 Ga        -1.7715463741       10.1784587706       16.4827784575
  N         6.4258117312        2.0348218666        2.5405910134
 Ga         6.4123833636        0.0463240626        2.8792964051
  N         6.4298218644        0.0607396341        5.0228842371
 Ga         6.4213737298        1.8939039533        5.7997758910
  N         6.4248935215        1.9026550291        7.7955970076
 Ga         6.4249210719        0.0587018696        8.4447570347
  N         6.4266712904        0.0561494078       10.4190425576
 Ga         6.4272790903        1.8957839179       11.0716888651
  N         6.4282683788        1.8753947826       13.0656289868
 Ga         6.4287468069        0.0556485587       13.8696469404
  N         6.4280205410        0.0574931022       16.0718465993
 Ga         6.4294987513        2.0972697285       16.4770860005
 Ga         6.4846965520        3.7328284766        1.5066522847
  N         4.9463139224        4.6317581024        2.4161847194
 Ga         4.6907652874        2.8008435657        3.2815474007
  N         4.8181274059        2.8513393499        5.2405165848
 Ga         4.7743730298        4.7247706810        5.8208876650
  N         4.8213417228        4.6974593515        7.8245073233
 Ga         4.8276219643        2.8449599746        8.4463937986
  N         4.8296275472        2.8443726476       10.4390959063
 Ga         4.8041767856        4.7068700156       11.0682843032
  N         4.7881261627        4.7162041782       13.0641801780
 Ga         4.8302966504        2.8472385343       13.6183371885
  N         4.8043639953        2.8307363267       15.5816005784
 Ga         4.9761558371        4.6079291854       16.4755697478
  N         6.4237597088        3.7708953640       17.6164415916
  N         3.2011601240        7.5658999094        2.4178360251
  N         3.2138413753        5.6316573127        5.1574328769
 Ga         3.2175038103        7.4246791442        5.8412882981
  N         3.2109934112        7.4879589141        7.8348903235
 Ga         3.2118627212        5.6243443882        8.4433460513
  N         3.2116143807        5.6271581108       10.4238268170
 Ga         3.2132638736        7.4648945177       11.0722959609
  N         3.2120344838        7.4472011164       13.0667723065
 Ga         3.2112070931        5.6265756748       13.8668294519
  N         3.2103596308        5.6266910796       16.0696466037
 Ga         3.2123992296        7.6717158284       16.4862310919
 Ga         3.2257970937        9.6175990923        1.3569073751
  N         1.7300012215       10.2079368119        2.5453144137
 Ga         1.5270422929        8.3578002771        3.2899144183
  N         1.6201828019        8.4097254419        5.2303636506
 Ga         1.5756598405       10.2846167062        5.8076443828
  N         1.5917801025       10.2740437352        7.7988102838
 Ga         1.6105882106        8.4211805455        8.4569547061
  N         1.6117394988        8.4202181910       10.4458281027
 Ga         1.5876906035       10.2799248114       11.0754521482
  N         1.5721116855       10.2877603291       13.0676138080
 Ga         1.6158199654        8.4187290368       13.6240798717
  N         1.5876258792        8.4059661822       15.5857853036
 Ga         1.7694882807       10.1766048694       16.4872303843
  N         3.2131522108        9.3382027491       17.6303328107
  N         9.6529136058        1.9192049713        2.6109248224
 Ga         9.6528586450        0.1974629603        3.3248434818
  N         9.6429230505        0.0576551140        5.2705745097
 Ga         9.6512131840        1.9212856682        5.8818442992
  N         9.6424282074        1.9124974110        7.8525851219
 Ga         9.6459522717        0.0443747206        8.4379517600
  N         9.6436045876        0.0421908803       10.4316004003
 Ga         9.6422775638        1.9125054065       11.0256834136
  N         9.6428714058        1.9121181252       12.9980074306
 Ga         9.6442192627        0.0440581381       13.6234269861
  N         9.6438312308        0.0750778874       15.5825290286
 Ga         9.6439607689        1.9125566575       15.8606305426
  N         7.9345294623        4.6378193709        2.5280336334
 Ga         8.1497442835        2.7844435931        3.3048815134
  N         8.0382481767        2.8402577760        5.2576848263
 Ga         8.0562045996        4.7169431991        5.7934927269
  N         8.0430529556        4.7064796905        7.7920288036
 Ga         8.0236735735        2.8487620795        8.4348957490
  N         8.0233673797        2.8479813057       10.4299814639
 Ga         8.0496828750        4.7063854085       11.0712236321
  N         8.0677233316        4.7157113674       13.0649250686
 Ga         8.0253256572        2.8469656535       13.6192749824
  N         8.0527157465        2.8321610285       15.5800061588
 Ga         7.8763540323        4.6044660615       16.4762668732
  N         6.4233601447        7.4792735778        2.5719303221
 Ga         6.4136066166        5.7465886706        3.2776610318
  N         6.4195306264        5.6229963170        5.2358241761
 Ga         6.4216745393        7.4838511090        5.8564931722
  N         6.4244130524        7.4835433664        7.8357873936
 Ga         6.4285212115        5.6171793950        8.4437093001
  N         6.4296483205        5.6164904409       10.4368324022
 Ga         6.4295825383        7.4841942686       11.0299970651
  N         6.4289804476        7.4841422491       13.0016177950
 Ga         6.4276712029        5.6135729318       13.6187170954
  N         6.4296482180        5.6458103479       15.5815174919
 Ga         6.4264778905        7.4847088011       15.8618318344
  N         4.7022588639       10.2171167447        2.5287518247
 Ga         4.9277658844        8.3503433325        3.2554156955
  N         4.8010978402        8.4068974772        5.2142237980
 Ga         4.8498490577       10.2772515905        5.7960214225
  N         4.8303371561       10.2726818102        7.7925528469
 Ga         4.8141393294        8.4214119879        8.4483270545
  N         4.8119744119        8.4194050283       10.4391686138
 Ga         4.8356567189       10.2778416086       11.0727322254
  N         4.8509000172       10.2871603823       13.0660612228
 Ga         4.8085148809        8.4185602659       13.6230169027
  N         4.8360593626        8.4056277626       15.5845154918
 Ga         4.6555453827       10.1766779314       16.4869589375
  O         0.7502420746        3.8569949643       -0.3592579852
  H         3.1173122124        7.0815578278        1.4242164720
  C         1.1514423726        2.5897379227       -0.9299788567
  H         1.8463128983        2.0483728551       -0.2661307048
  H         0.2831923169        1.9443884086       -1.1313874196
  H         1.6544518316        2.7977252534       -1.8846563908
 Ga         3.1505866328        5.4982345749        2.3263675581
  O         2.8361991146        5.4754033612        0.1560412633
  H         2.0419865062        4.8474699258       -0.0489905554
  C         3.9028123752        5.2575009919       -0.8009236753
  H         3.5451018940        5.4190661682       -1.8263674726
  H         4.6973049170        5.9761918777       -0.5698101151
  H         4.2960984010        4.2339905199       -0.7011338146
     212
 i =        2, E =     -8504.6725126121
  N        -0.0112012885        2.0454204986        2.4938568528
 Ga         0.0034889453        0.1014782569        2.8570877882
  N        -0.0066864490        0.0578813857        5.0159998864
 Ga        -0.0055655561        1.8936359017        5.8005222368
  N        -0.0077701353        1.8997609969        7.8000139877
 Ga        -0.0036670025        0.0561103896        8.4411280748
  N        -0.0043266648        0.0545008778       10.4164474794
 Ga        -0.0045740574        1.8939373830       11.0708586593
  N        -0.0052001379        1.8746000736       13.0629038642
 Ga        -0.0062375846        0.0576245754       13.8715482747
  N        -0.0071127857        0.0588416120       16.0719413169
 Ga        -0.0067084682        2.1066543776       16.4866530738
 Ga         0.0091993755        3.7579921401        1.3792750625
  N        -1.4796672220        4.6217871038        2.4884241489
 Ga        -1.6783125402        2.8045914737        3.2699690110
  N        -1.6196200974        2.8384331508        5.2487073075
 Ga        -1.6352269652        4.7076007817        5.8063427843
  N        -1.6299572758        4.7019640964        7.8049037416
 Ga        -1.6021318708        2.8469083550        8.4427720761
  N        -1.6025204177        2.8466661041       10.4353175482
 Ga        -1.6293009762        4.7070705045       11.0712654781
  N        -1.6463004893        4.7161542990       13.0634868535
 Ga        -1.6019573528        2.8467615638       13.6201809599
  N        -1.6291196965        2.8316123205       15.5774859784
 Ga        -1.4469057714        4.5992599304       16.4860733626
  N        -0.0010313675        3.7722001006       17.6342246927
  N        -3.2233182894        7.6043198382        2.5111686662
 Ga        -3.1731324401        5.6167185839        2.8296318746
  N        -3.2191979238        5.6259187426        5.0080876034
 Ga        -3.2260783197        7.4544272052        5.7900777056
  N        -3.2250092375        7.4720895348        7.7887662238
 Ga        -3.2231743044        5.6271646004        8.4468048507
  N        -3.2231894980        5.6277111446       10.4201228010
 Ga        -3.2225429371        7.4671164777       11.0701771393
  N        -3.2218013095        7.4463637259       13.0658546406
 Ga        -3.2210612601        5.6239336343       13.8707213832
  N        -3.2216053508        5.6240550383       16.0701133757
 Ga        -3.2210470670        7.6605591716       16.4760571137
 Ga        -3.2154447190        9.3422683223        1.4321738388
  N        -4.7371320286       10.2166213140        2.4983637732
 Ga        -4.9227704207        8.3595376318        3.2484313050
  N        -4.8375783767        8.4107577832        5.2230265291
 Ga        -4.8526118652       10.2838800091        5.7862052285
  N        -4.8376710863       10.2733319361        7.7858366605
 Ga        -4.8220864966        8.4176697822        8.4303141210
  N        -4.8191290764        8.4184465253       10.4259995188
 Ga        -4.8443638339       10.2764953849       11.0697153483
  N        -4.8612092882       10.2867541576       13.0653067939
 Ga        -4.8171630721        8.4189789493       13.6251517175
  N        -4.8471432765        8.4027845802       15.5900414160
 Ga        -4.6772693670       10.1826987501       16.4761435263
  N        -3.2229715211        9.3412957062       17.5895126839
  N         3.1897514034        1.9356799874        2.5966690775
 Ga         3.2057146141        0.1748241608        3.2522311422
  N         3.2094142549        0.0620799848        5.2270907959
 Ga         3.2082934150        1.9176816210        5.8713729203
  N         3.2129301941        1.9113551525        7.8476817571
 Ga         3.2089285282        0.0464449572        8.4353617437
  N         3.2098814613        0.0423383654       10.4294091450
 Ga         3.2101843558        1.9105093200       11.0297124084
  N         3.2116640236        1.9104598880       13.0004454987
 Ga         3.2109331286        0.0426335510       13.6241472247
  N         3.2114995448        0.0770953901       15.5889157939
 Ga         3.2114015227        1.9171827228       15.8605903971
  N         1.4332467650        4.6014120644        2.5536926184
 Ga         1.6614449058        2.7885110305        3.3020125465
  N         1.6068939781        2.8384398414        5.2639144560
 Ga         1.6380418434        4.7188000755        5.8191188413
  N         1.6049476778        4.6989115866        7.8285354900
 Ga         1.5917254907        2.8444259653        8.4420507911
  N         1.5925902383        2.8430298858       10.4367737132
 Ga         1.6170061658        4.7057895155       11.0681450897
  N         1.6349216784        4.7158099341       13.0633531228
 Ga         1.5915107158        2.8468714092       13.6208751480
  N         1.6168804691        2.8292289521       15.5801695806
 Ga         1.4392443007        4.6026557042       16.4859670226
  N        -0.0102887023        7.4651581022        2.6368560982
 Ga        -0.0121763513        5.7247511976        3.3026123412
  N        -0.0097957533        5.6177478510        5.2683571732
 Ga         0.0007944055        7.4825864645        5.8417384456
  N        -0.0044430736        7.4891505776        7.8301266021
 Ga        -0.0088077633        5.6186914945        8.4386890431
  N        -0.0086863320        5.6170082345       10.4351942854
 Ga        -0.0083460664        7.4838275431       11.0340700334
  N        -0.0065324955        7.4852807822       13.0049855214
 Ga        -0.0052731222        5.6124901669       13.6221532273
  N        -0.0082110909        5.6446119775       15.5820352785
 Ga        -0.0016829849        7.4821464254       15.8617277119
  N        -1.7183747282       10.2135294625        2.5177408883
 Ga        -1.5080503809        8.3500161108        3.2619085920
  N        -1.6253875936        8.4219058419        5.2387525240
 Ga        -1.5971893399       10.2861959673        5.7981941868
  N        -1.6060133342       10.2771315829        7.7934714594
 Ga        -1.6223446643        8.4165776943        8.4307439934
  N        -1.6257412384        8.4186041918       10.4271192477
 Ga        -1.5997033802       10.2771449560       11.0703720750
  N        -1.5809781853       10.2876154535       13.0658808729
 Ga        -1.6258085434        8.4192427440       13.6251869551
  N        -1.5950550761        8.4032127472       15.5901802197
 Ga        -1.7667945978       10.1814680157       16.4766208626
  N         6.4366221765        2.0295551225        2.5343140642
 Ga         6.4179457694        0.0498130901        2.8810389932
  N         6.4272987053        0.0568816148        5.0239613795
 Ga         6.4198530630        1.8921744238        5.7986507495
  N         6.4258783092        1.9020297990        7.7941057272
 Ga         6.4251231965        0.0579003228        8.4461588517
  N         6.4264065186        0.0564358700       10.4196006037
 Ga         6.4272012070        1.8957361936       11.0716888587
  N         6.4282018698        1.8753927472       13.0631756325
 Ga         6.4289138727        0.0574839826       13.8715026468
  N         6.4293938019        0.0589709963       16.0723514332
 Ga         6.4297375736        2.1030235698       16.4826915629
 Ga         6.4889846981        3.7278076699        1.5075966809
  N         4.9545582126        4.6143207050        2.4293080648
 Ga         4.7076488831        2.7853602246        3.2817279547
  N         4.8166174204        2.8491971544        5.2376149261
 Ga         4.7775787184        4.7226096603        5.8207633783
  N         4.8210596473        4.6979480563        7.8238199489
 Ga         4.8286165107        2.8442970315        8.4468344545
  N         4.8295605108        2.8442390838       10.4383021004
 Ga         4.8048794629        4.7064979745       11.0696540987
  N         4.7884737937        4.7161482859       13.0638157667
 Ga         4.8309981528        2.8469813008       13.6199055865
  N         4.8072202747        2.8297330358       15.5803253756
 Ga         4.9780666304        4.6063017509       16.4811308029
  N         6.4206051666        3.7734022726       17.6278047763
  N         3.1912692949        7.5342719657        2.3807769539
  N         3.2133007066        5.6217399845        5.1513765581
 Ga         3.2134388161        7.4297063799        5.8225622821
  N         3.2129078296        7.4858937012        7.8227811868
 Ga         3.2108490224        5.6248606451        8.4474562287
  N         3.2122176506        5.6266728402       10.4268337897
 Ga         3.2114830116        7.4657231406       11.0720481403
  N         3.2121336335        7.4470256132       13.0663419541
 Ga         3.2109503997        5.6256336106       13.8690124722
  N         3.2112006369        5.6263774929       16.0675006974
 Ga         3.2123943678        7.6699658380       16.4860228241
 Ga         3.2100840437        9.6465462917        1.3426771944
  N         1.7221396512       10.2195255318        2.5603547971
 Ga         1.4807655184        8.3399921101        3.2408223478
  N         1.6292920295        8.4116785046        5.2043379078
 Ga         1.5796729343       10.2710563213        5.8015155364
  N         1.5905237358       10.2751894221        7.7959155966
 Ga         1.6079795166        8.4191433469        8.4487770145
  N         1.6103493711        8.4199586445       10.4403213509
 Ga         1.5875757192       10.2788691861       11.0742461128
  N         1.5712942196       10.2885528001       13.0660130713
 Ga         1.6155781833        8.4193616604       13.6244434745
  N         1.5874012660        8.4079625700       15.5857293343
 Ga         1.7702671938       10.1766559443       16.4874481738
  N         3.2117994177        9.3350785818       17.6324724148
  N         9.6568961837        1.9107310030        2.6171841843
 Ga         9.6496383497        0.1918507049        3.3443371333
  N         9.6447765047        0.0638389290        5.2812074592
 Ga         9.6514011129        1.9252430308        5.8896528772
  N         9.6423487636        1.9133322293        7.8580071182
 Ga         9.6447541821        0.0430735865        8.4361305421
  N         9.6438150923        0.0421889229       10.4300807389
 Ga         9.6426400153        1.9124703713       11.0249730897
  N         9.6426148869        1.9119614457       12.9971613674
 Ga         9.6444448263        0.0433413722       13.6232765268
  N         9.6442943592        0.0742152862       15.5814289020
 Ga         9.6435065685        1.9135989474       15.8535487308
  N         7.9363843331        4.6361811255        2.5256849593
 Ga         8.1554892946        2.7827358339        3.3085201697
  N         8.0372832818        2.8408532374        5.2597438107
 Ga         8.0578646054        4.7193615428        5.7928652352
  N         8.0445171981        4.7062609292        7.7909664368
 Ga         8.0232360942        2.8492596868        8.4366795937
  N         8.0232859075        2.8480547953       10.4303934041
 Ga         8.0501818953        4.7066292533       11.0712972228
  N         8.0676906955        4.7159565647       13.0627146899
 Ga         8.0244928434        2.8475229936       13.6200225581
  N         8.0507664283        2.8324233921       15.5774043616
 Ga         7.8725037897        4.6012977151       16.4821323778
  N         6.4221873074        7.4785344886        2.5659124327
 Ga         6.4143667826        5.7432806925        3.2733192900
  N         6.4211459728        5.6240470494        5.2296867029
 Ga         6.4147571702        7.4837370119        5.8525231484
  N         6.4237862099        7.4856626546        7.8314867214
 Ga         6.4298762110        5.6177089174        8.4428573553
  N         6.4299671662        5.6167877432       10.4354080491
 Ga         6.4300459059        7.4840722408       11.0318366075
  N         6.4291227436        7.4844647385       13.0023345166
 Ga         6.4282738007        5.6130479463       13.6207727836
  N         6.4312825496        5.6436515565       15.5809134438
 Ga         6.4245197895        7.4817611464       15.8619368024
  N         4.7090021100       10.2235228226        2.5370071761
 Ga         4.9156276065        8.3563702439        3.2147098922
  N         4.8035077107        8.4029907702        5.1804053880
 Ga         4.8478645714       10.2685162548        5.7915981993
  N         4.8316039956       10.2705307799        7.7891876064
 Ga         4.8121903760        8.4200821406        8.4507011785
  N         4.8126069178        8.4198055750       10.4404375204
 Ga         4.8357077278       10.2788424159       11.0733857032
  N         4.8519575792       10.2878097378       13.0648820355
 Ga         4.8083629152        8.4195060020       13.6236154994
  N         4.8366051325        8.4079069010       15.5839948162
 Ga         4.6540403396       10.1762313800       16.4871999574
  O         0.7467113037        3.8598603469       -0.3501852334
  H         3.1107836973        7.2158587359        1.4162612920
  C         1.1562671475        2.5966953735       -0.9264087734
  H         1.8480987466        2.0460271699       -0.2663903531
  H         0.2847461656        1.9539289234       -1.1275765166
  H         1.6552318115        2.7953829032       -1.8865565192
 Ga         3.1542007213        5.4213148976        2.4359883648
  O         2.8445447191        5.4824217569        0.1914029416
  H         2.0448398865        4.8631669335       -0.0400543564
  C         3.8978595431        5.2540730741       -0.7796299601
  H         3.5327988949        5.4230005747       -1.8048082498
  H         4.7022917777        5.9718261419       -0.5764817228
  H         4.3006588468        4.2333782443       -0.7075290087
     212
 i =        3, E =     -8504.6800172866
  N        -0.0144410684        2.0408943740        2.4950130136
 Ga        -0.0034035393        0.1005703996        2.8576635920
  N        -0.0048250354        0.0565644160        5.0135076145
 Ga        -0.0076577489        1.8892954009        5.8039081230
  N        -0.0079904861        1.9000792073        7.8015654829
 Ga        -0.0044858313        0.0548671543        8.4393617528
  N        -0.0043360896        0.0544273622       10.4146664478
 Ga        -0.0044143327        1.8939505107       11.0706643585
  N        -0.0050330967        1.8742902658       13.0619038447
 Ga        -0.0068923450        0.0583652237       13.8724597250
  N        -0.0068848652        0.0582799909       16.0702461890
 Ga        -0.0064669417        2.1064615035       16.4898318191
 Ga         0.0152561851        3.7593791785        1.3808071789
  N        -1.4850668023        4.6216095153        2.4787678900
 Ga        -1.6793716926        2.8039885376        3.2726019589
  N        -1.6181532272        2.8400502660        5.2513486777
 Ga        -1.6327817494        4.7111615962        5.8039547026
  N        -1.6286955987        4.7029085632        7.8025217034
 Ga        -1.6021061668        2.8488898709        8.4434236488
  N        -1.6022139296        2.8473651808       10.4352444829
 Ga        -1.6282823399        4.7084406993       11.0701527357
  N        -1.6459255426        4.7167873348       13.0618536922
 Ga        -1.6009912626        2.8477029386       13.6197760505
  N        -1.6274972705        2.8323855262       15.5775342417
 Ga        -1.4467231609        4.5999664362       16.4894628273
  N         0.0000749917        3.7729666653       17.6375801719
  N        -3.2257196031        7.6037653389        2.5028712601
 Ga        -3.1780981321        5.6079755097        2.8301220736
  N        -3.2181596054        5.6284672685        5.0047159267
 Ga        -3.2231401861        7.4565173656        5.7878522613
  N        -3.2242982861        7.4725939775        7.7857639051
 Ga        -3.2221323508        5.6277996876        8.4450151187
  N        -3.2227290065        5.6282127935       10.4181980339
 Ga        -3.2211699359        7.4674046175       11.0697164988
  N        -3.2213120639        7.4466047541       13.0659012334