 DBCSR| Multiplication driver                                               BLAS
 DBCSR| Multrec recursion limit                                              512
 DBCSR| Multiplication stack size                                           1000
 DBCSR| Maximum elements for images                                    UNLIMITED
 DBCSR| Multiplicative factor virtual images                                   1
 DBCSR| Multiplication size stacks                                             3
 DBCSR| Number of 3D layers                                               SINGLE
 DBCSR| Use MPI memory allocation                                              T
 DBCSR| Use RMA algorithm                                                      F
 DBCSR| Use Communication thread                                               T
 DBCSR| Communication thread load                                             87


  **** **** ******  **  PROGRAM STARTED AT               2019-05-27 06:37:47.928
 ***** ** ***  *** **   PROGRAM STARTED ON        blg8437.int.ets1.calculquebec.
 **    ****   ******    PROGRAM STARTED BY                                   rzk
 ***** **    ** ** **   PROGRAM PROCESS ID                                 15013
  **** **  *******  **  PROGRAM STARTED IN /lustre03/project/6004141/rzk/GaN-car
                                           bene/334-native/07-Hydrogen/01-surfac
                                           e-atoms

 CP2K| version string:                    CP2K version 7.0 (Development Version)
 CP2K| source code revision number:                                    svn:18619
 CP2K| cp2kflags: libint fftw3 libxc parallel mpi3 scalapack mkl                
 CP2K| is freely available from                            https://www.cp2k.org/
 CP2K| Program compiled at                          Sun Apr  7 00:48:11 EDT 2019
 CP2K| Program compiled on                      beluga2.int.ets1.calculquebec.ca
 CP2K| Program compiled for                    Beluga-Linux-x86-64-intel-openmpi
 CP2K| Data directory path    /home/rzk/projects/def-rzk/group/cp2k/cp2k-mcgill/
 CP2K| Input file name                                                 start.inp
 
 GLOBAL| Force Environment number                                              1
 GLOBAL| Basis set file name                                        BASIS_MOLOPT
 GLOBAL| Potential file name                                      GTH_POTENTIALS
 GLOBAL| MM Potential file name                                     MM_POTENTIAL
 GLOBAL| Coordinate file name                                      __STD_INPUT__
 GLOBAL| Method name                                                        CP2K
 GLOBAL| Project name                                                       TEST
 GLOBAL| Preferred FFT library                                             FFTW3
 GLOBAL| Preferred diagonalization lib.                                       SL
 GLOBAL| Run type                                                        GEO_OPT
 GLOBAL| All-to-all communication in single precision                          F
 GLOBAL| FFTs using library dependent lengths                                  F
 GLOBAL| Global print level                                               MEDIUM
 GLOBAL| MPI I/O enabled                                                       T
 GLOBAL| Total number of message passing processes                            80
 GLOBAL| Number of threads for this process                                    1
 GLOBAL| This output is from process                                           0
 GLOBAL| CPU model name :  Intel(R) Xeon(R) Gold 6148 CPU @ 2.40GHz

 MEMORY| system memory details [Kb]
 MEMORY|                        rank 0           min           max       average
 MEMORY| MemTotal             97523924      97523924      97523924      97523924
 MEMORY| MemFree              77156792      76025112      77156792      76612232
 MEMORY| Buffers                    76            76            76            76
 MEMORY| Cached                5427712       5427712       5826796       5627254
 MEMORY| Slab                  2284956       2236380       2284956       2260668
 MEMORY| SReclaimable           581072        210808        581072        395940
 MEMORY| MemLikelyFree        83165652      82062792      83165652      82635502


 *** Fundamental physical constants (SI units) ***

 *** Literature: B. J. Mohr and B. N. Taylor,
 ***             CODATA recommended values of the fundamental physical
 ***             constants: 2006, Web Version 5.1
 ***             http://physics.nist.gov/constants

 Speed of light in vacuum [m/s]                             2.99792458000000E+08
 Magnetic constant or permeability of vacuum [N/A**2]       1.25663706143592E-06
 Electric constant or permittivity of vacuum [F/m]          8.85418781762039E-12
 Planck constant (h) [J*s]                                  6.62606896000000E-34
 Planck constant (h-bar) [J*s]                              1.05457162825177E-34
 Elementary charge [C]                                      1.60217648700000E-19
 Electron mass [kg]                                         9.10938215000000E-31
 Electron g factor [ ]                                     -2.00231930436220E+00
 Proton mass [kg]                                           1.67262163700000E-27
 Fine-structure constant                                    7.29735253760000E-03
 Rydberg constant [1/m]                                     1.09737315685270E+07
 Avogadro constant [1/mol]                                  6.02214179000000E+23
 Boltzmann constant [J/K]                                   1.38065040000000E-23
 Atomic mass unit [kg]                                      1.66053878200000E-27
 Bohr radius [m]                                            5.29177208590000E-11

 *** Conversion factors ***

 [u] -> [a.u.]                                              1.82288848426455E+03
 [Angstrom] -> [Bohr] = [a.u.]                              1.88972613288564E+00
 [a.u.] = [Bohr] -> [Angstrom]                              5.29177208590000E-01
 [a.u.] -> [s]                                              2.41888432650478E-17
 [a.u.] -> [fs]                                             2.41888432650478E-02
 [a.u.] -> [J]                                              4.35974393937059E-18
 [a.u.] -> [N]                                              8.23872205491840E-08
 [a.u.] -> [K]                                              3.15774647902944E+05
 [a.u.] -> [kJ/mol]                                         2.62549961709828E+03
 [a.u.] -> [kcal/mol]                                       6.27509468713739E+02
 [a.u.] -> [Pa]                                             2.94210107994716E+13
 [a.u.] -> [bar]                                            2.94210107994716E+08
 [a.u.] -> [atm]                                            2.90362800883016E+08
 [a.u.] -> [eV]                                             2.72113838565563E+01
 [a.u.] -> [Hz]                                             6.57968392072181E+15
 [a.u.] -> [1/cm] (wave numbers)                            2.19474631370540E+05
 [a.u./Bohr**2] -> [1/cm]                                   5.14048714338585E+03
 

 CELL_TOP| Volume [angstrom^3]:                                         2519.385
 CELL_TOP| Vector a [angstrom     9.737     0.000     0.000    |a| =       9.737
 CELL_TOP| Vector b [angstrom    -4.859     8.416     0.000    |b| =       9.718
 CELL_TOP| Vector c [angstrom     0.000     0.000    30.744    |c| =      30.744
 CELL_TOP| Angle (b,c), alpha [degree]:                                   90.000
 CELL_TOP| Angle (a,c), beta  [degree]:                                   90.000
 CELL_TOP| Angle (a,b), gamma [degree]:                                  120.000
 CELL_TOP| Numerically orthorhombic:                                          NO
 
 GENERATE|  Preliminary Number of Bonds generated:                             0
 GENERATE|  Achieved consistency in connectivity generation.

 CELL| Volume [angstrom^3]:                                             2519.385
 CELL| Vector a [angstrom]:       9.737     0.000     0.000    |a| =       9.737
 CELL| Vector b [angstrom]:      -4.859     8.416     0.000    |b| =       9.718
 CELL| Vector c [angstrom]:       0.000     0.000    30.744    |c| =      30.744
 CELL| Angle (b,c), alpha [degree]:                                       90.000
 CELL| Angle (a,c), beta  [degree]:                                       90.000
 CELL| Angle (a,b), gamma [degree]:                                      120.000
 CELL| Numerically orthorhombic:                                              NO

 CELL_REF| Volume [angstrom^3]:                                         2432.344
 CELL_REF| Vector a [angstrom     9.558     0.000     0.000    |a| =       9.558
 CELL_REF| Vector b [angstrom    -4.779     8.277     0.000    |b| =       9.558
 CELL_REF| Vector c [angstrom     0.000     0.000    30.744    |c| =      30.744
 CELL_REF| Angle (b,c), alpha [degree]:                                   90.000
 CELL_REF| Angle (a,c), beta  [degree]:                                   90.000
 CELL_REF| Angle (a,b), gamma [degree]:                                  120.000
 CELL_REF| Numerically orthorhombic:                                          NO

 *******************************************************************************
 *******************************************************************************
 **                                                                           **
 **     #####                         ##              ##                      **
 **    ##   ##            ##          ##              ##                      **
 **   ##     ##                       ##            ######                    **
 **   ##     ##  ##   ##  ##   #####  ##  ##   ####   ##    #####    #####    **
 **   ##     ##  ##   ##  ##  ##      ## ##   ##      ##   ##   ##  ##   ##   **
 **   ##  ## ##  ##   ##  ##  ##      ####     ###    ##   ######   ######    **
 **    ##  ###   ##   ##  ##  ##      ## ##      ##   ##   ##       ##        **
 **     #######   #####   ##   #####  ##  ##  ####    ##    #####   ##        **
 **           ##                                                    ##        **
 **                                                                           **
 **                                                ... make the atoms dance   **
 **                                                                           **
 **            Copyright (C) by CP2K developers group (2000 - 2018)           **
 **                                                                           **
 *******************************************************************************

 DFT| Spin restricted Kohn-Sham (RKS) calculation                            RKS
 DFT| Multiplicity                                                             1
 DFT| Number of spin states                                                    1
 DFT| Charge                                                                   0
 DFT| Self-interaction correction (SIC)                                       NO
 DFT| Cutoffs: density                                              1.000000E-10
 DFT|          gradient                                             1.000000E-10
 DFT|          tau                                                  1.000000E-10
 DFT|          cutoff_smoothing_range                               0.000000E+00
 DFT| XC density smoothing                                                  NONE
 DFT| XC derivatives                                                          PW
 FUNCTIONAL| ROUTINE=NEW
 FUNCTIONAL| PBE:
 FUNCTIONAL| J.P.Perdew, K.Burke, M.Ernzerhof, Phys. Rev. Letter, vol. 77, n 18,
 FUNCTIONAL|  pp. 3865-3868, (1996){spin unpolarized}                           
 vdW POTENTIAL|                                                   Pair Potential
 vdW POTENTIAL|          DFT-D3 (Version 3.1)
 vdW POTENTIAL|          Potential Form: S. Grimme et al, JCP 132: 154104 (2010)
 vdW POTENTIAL|          Zero Damping
 vdW POTENTIAL|          Cutoff Radius [Bohr]:                             18.90
 vdW POTENTIAL|          s6 Scaling Factor:                               1.0000
 vdW POTENTIAL|          sr6 Scaling Factor:                              1.2170
 vdW POTENTIAL|          s8 Scaling Factor:                               0.7220
 vdW POTENTIAL|          Cutoff for CN calculation:                   0.1000E-05

 QS| Method:                                                                 GPW
 QS| Density plane wave grid type                        NON-SPHERICAL FULLSPACE
 QS| Number of grid levels:                                                    5
 QS| Density cutoff [a.u.]:                                                600.0
 QS| Multi grid cutoff [a.u.]: 1) grid level                               600.0
 QS|                           2) grid level                               200.0
 QS|                           3) grid level                                66.7
 QS|                           4) grid level                                22.2
 QS|                           5) grid level                                 7.4
 QS| Grid level progression factor:                                          3.0
 QS| Relative density cutoff [a.u.]:                                        20.0
 QS| Consistent realspace mapping and integration 
 QS| Interaction thresholds: eps_pgf_orb:                                1.0E-07
 QS|                         eps_filter_matrix:                          0.0E+00
 QS|                         eps_core_charge:                            1.0E-16
 QS|                         eps_rho_gspace:                             1.0E-14
 QS|                         eps_rho_rspace:                             1.0E-14
 QS|                         eps_gvg_rspace:                             1.0E-07
 QS|                         eps_ppl:                                    1.0E-02
 QS|                         eps_ppnl:                                   1.0E-09


 ATOMIC KIND INFORMATION

  1. Atomic kind: Ga                                    Number of atoms:      72

     Orbital Basis Set                                    DZVP-MOLOPT-SR-GTH-q13

       Number of orbital shell sets:                                           1
       Number of orbital shells:                                               7
       Number of primitive Cartesian functions:                                6
       Number of Cartesian basis functions:                                   30
       Number of spherical basis functions:                                   25
       Norm type:                                                              2

       Normalised Cartesian orbitals:

                        Set   Shell   Orbital            Exponent    Coefficient

                          1       1    2s                7.066654       0.013136
                                                         3.428369      -0.094392
                                                         1.430064       0.265435
                                                         0.571611       0.056465
                                                         0.232197      -0.192187
                                                         0.076562      -0.044987

                          1       2    3s                7.066654      -0.098564
                                                         3.428369       0.010390
                                                         1.430064       0.351249
                                                         0.571611       0.182615
                                                         0.232197      -0.425358
                                                         0.076562       0.190349

                          1       3    3px               7.066654       0.002364
                                                         3.428369       0.019222
                                                         1.430064       0.250132
                                                         0.571611      -0.058486
                                                         0.232197      -0.159451
                                                         0.076562      -0.020696
                          1       3    3py               7.066654       0.002364
                                                         3.428369       0.019222
                                                         1.430064       0.250132
                                                         0.571611      -0.058486
                                                         0.232197      -0.159451
                                                         0.076562      -0.020696
                          1       3    3pz               7.066654       0.002364
                                                         3.428369       0.019222
                                                         1.430064       0.250132
                                                         0.571611      -0.058486
                                                         0.232197      -0.159451
                                                         0.076562      -0.020696

                          1       4    4px               7.066654       0.492448
                                                         3.428369      -0.614736
                                                         1.430064      -0.191654
                                                         0.571611       0.037801
                                                         0.232197       0.302315
                                                         0.076562      -0.071336
                          1       4    4py               7.066654       0.492448
                                                         3.428369      -0.614736
                                                         1.430064      -0.191654
                                                         0.571611       0.037801
                                                         0.232197       0.302315
                                                         0.076562      -0.071336
                          1       4    4pz               7.066654       0.492448
                                                         3.428369      -0.614736
                                                         1.430064      -0.191654
                                                         0.571611       0.037801
                                                         0.232197       0.302315
                                                         0.076562      -0.071336

                          1       5    4dx2              7.066654     -15.264855
                                                         3.428369      -5.345726
                                                         1.430064      -1.022732
                                                         0.571611      -0.123148
                                                         0.232197      -0.006983
                                                         0.076562      -0.000022
                          1       5    4dxy              7.066654     -26.439504
                                                         3.428369      -9.259069
                                                         1.430064      -1.771423
                                                         0.571611      -0.213299
                                                         0.232197      -0.012094
                                                         0.076562      -0.000037
                          1       5    4dxz              7.066654     -26.439504
                                                         3.428369      -9.259069
                                                         1.430064      -1.771423
                                                         0.571611      -0.213299
                                                         0.232197      -0.012094
                                                         0.076562      -0.000037
                          1       5    4dy2              7.066654     -15.264855
                                                         3.428369      -5.345726
                                                         1.430064      -1.022732
                                                         0.571611      -0.123148
                                                         0.232197      -0.006983
                                                         0.076562      -0.000022
                          1       5    4dyz              7.066654     -26.439504
                                                         3.428369      -9.259069
                                                         1.430064      -1.771423
                                                         0.571611      -0.213299
                                                         0.232197      -0.012094
                                                         0.076562      -0.000037
                          1       5    4dz2              7.066654     -15.264855
                                                         3.428369      -5.345726
                                                         1.430064      -1.022732
                                                         0.571611      -0.123148
                                                         0.232197      -0.006983
                                                         0.076562      -0.000022

                          1       6    5dx2              7.066654      -5.739265
                                                         3.428369      -2.129289
                                                         1.430064      -0.700423
                                                         0.571611       0.161606
                                                         0.232197       0.043513
                                                         0.076562       0.011205
                          1       6    5dxy              7.066654      -9.940698
                                                         3.428369      -3.688037
                                                         1.430064      -1.213168
                                                         0.571611       0.279909
                                                         0.232197       0.075368
                                                         0.076562       0.019407
                          1       6    5dxz              7.066654      -9.940698
                                                         3.428369      -3.688037
                                                         1.430064      -1.213168
                                                         0.571611       0.279909
                                                         0.232197       0.075368
                                                         0.076562       0.019407
                          1       6    5dy2              7.066654      -5.739265
                                                         3.428369      -2.129289
                                                         1.430064      -0.700423
                                                         0.571611       0.161606
                                                         0.232197       0.043513
                                                         0.076562       0.011205
                          1       6    5dyz              7.066654      -9.940698
                                                         3.428369      -3.688037
                                                         1.430064      -1.213168
                                                         0.571611       0.279909
                                                         0.232197       0.075368
                                                         0.076562       0.019407
                          1       6    5dz2              7.066654      -5.739265
                                                         3.428369      -2.129289
                                                         1.430064      -0.700423
                                                         0.571611       0.161606
                                                         0.232197       0.043513
                                                         0.076562       0.011205

                          1       7    5fx3              7.066654       0.705879
                                                         3.428369      -0.273976
                                                         1.430064       0.113667
                                                         0.571611       0.132480
                                                         0.232197       0.012437
                                                         0.076562       0.003241
                          1       7    5fx2y             7.066654       1.578393
                                                         3.428369      -0.612629
                                                         1.430064       0.254167
                                                         0.571611       0.296234
                                                         0.232197       0.027811
                                                         0.076562       0.007246
                          1       7    5fx2z             7.066654       1.578393
                                                         3.428369      -0.612629
                                                         1.430064       0.254167
                                                         0.571611       0.296234
                                                         0.232197       0.027811
                                                         0.076562       0.007246
                          1       7    5fxy2             7.066654       1.578393
                                                         3.428369      -0.612629
                                                         1.430064       0.254167
                                                         0.571611       0.296234
                                                         0.232197       0.027811
                                                         0.076562       0.007246
                          1       7    5fxyz             7.066654       2.733856
                                                         3.428369      -1.061105
                                                         1.430064       0.440230
                                                         0.571611       0.513092
                                                         0.232197       0.048170
                                                         0.076562       0.012551
                          1       7    5fxz2             7.066654       1.578393
                                                         3.428369      -0.612629
                                                         1.430064       0.254167
                                                         0.571611       0.296234
                                                         0.232197       0.027811
                                                         0.076562       0.007246
                          1       7    5fy3              7.066654       0.705879
                                                         3.428369      -0.273976
                                                         1.430064       0.113667
                                                         0.571611       0.132480
                                                         0.232197       0.012437
                                                         0.076562       0.003241
                          1       7    5fy2z             7.066654       1.578393
                                                         3.428369      -0.612629
                                                         1.430064       0.254167
                                                         0.571611       0.296234
                                                         0.232197       0.027811
                                                         0.076562       0.007246
                          1       7    5fyz2             7.066654       1.578393
                                                         3.428369      -0.612629
                                                         1.430064       0.254167
                                                         0.571611       0.296234
                                                         0.232197       0.027811
                                                         0.076562       0.007246
                          1       7    5fz3              7.066654       0.705879
                                                         3.428369      -0.273976
                                                         1.430064       0.113667
                                                         0.571611       0.132480
                                                         0.232197       0.012437
                                                         0.076562       0.003241

     GTH Potential information for                                   GTH-PBE-q13

       Description:                       Goedecker-Teter-Hutter pseudopotential
                                           Goedecker et al., PRB 54, 1703 (1996)
                                          Hartwigsen et al., PRB 58, 3641 (1998)
                                                      Krack, TCA 114, 145 (2005)

       Gaussian exponent of the core charge distribution:               2.082466
       Electronic configuration (s p d ...):                           2   1  10

       Parameters of the local part of the GTH pseudopotential:

                          rloc        C1          C2          C3          C4
                        0.490000

       Parameters of the non-local part of the GTH pseudopotential:

                   l      r(l)      h(i,j,l)

                   0    0.416777   10.475690   -4.921768    0.870706
                                   -4.921768    7.770178   -2.248152
                                    0.870706   -2.248152    1.784415
                   1    0.569627    1.777985    0.195860
                                    0.195860   -0.231744
                   2    0.238126  -16.248680

  2. Atomic kind: N                                     Number of atoms:      72

     Orbital Basis Set                                     DZVP-MOLOPT-SR-GTH-q5

       Number of orbital shell sets:                                           1
       Number of orbital shells:                                               5
       Number of primitive Cartesian functions:                                5
       Number of Cartesian basis functions:                                   14
       Number of spherical basis functions:                                   13
       Norm type:                                                              2

       Normalised Cartesian orbitals:

                        Set   Shell   Orbital            Exponent    Coefficient

                          1       1    2s                7.341988       0.360561
                                                         2.542637       0.139177
                                                         0.888575      -0.289383
                                                         0.333802      -0.182244
                                                         0.112012      -0.019197

                          1       2    3s                7.341988       0.282000
                                                         2.542637       0.177875
                                                         0.888575      -0.278381
                                                         0.333802       0.008577
                                                         0.112012       0.154176

                          1       3    3px               7.341988      -1.188719
                                                         2.542637      -0.973969
                                                         0.888575      -0.501079
                                                         0.333802      -0.144894
                                                         0.112012      -0.013986
                          1       3    3py               7.341988      -1.188719
                                                         2.542637      -0.973969
                                                         0.888575      -0.501079
                                                         0.333802      -0.144894
                                                         0.112012      -0.013986
                          1       3    3pz               7.341988      -1.188719
                                                         2.542637      -0.973969
                                                         0.888575      -0.501079
                                                         0.333802      -0.144894
                                                         0.112012      -0.013986

                          1       4    4px               7.341988      -0.094798
                                                         2.542637       0.050069
                                                         0.888575      -0.114797
                                                         0.333802       0.144793
                                                         0.112012       0.066710
                          1       4    4py               7.341988      -0.094798
                                                         2.542637       0.050069
                                                         0.888575      -0.114797
                                                         0.333802       0.144793
                                                         0.112012       0.066710
                          1       4    4pz               7.341988      -0.094798
                                                         2.542637       0.050069
                                                         0.888575      -0.114797
                                                         0.333802       0.144793
                                                         0.112012       0.066710

                          1       5    4dx2              7.341988       1.354688
                                                         2.542637       0.690378
                                                         0.888575       0.855359
                                                         0.333802       0.091746
                                                         0.112012       0.001253
                          1       5    4dxy              7.341988       2.346389
                                                         2.542637       1.195770
                                                         0.888575       1.481524
                                                         0.333802       0.158910
                                                         0.112012       0.002169
                          1       5    4dxz              7.341988       2.346389
                                                         2.542637       1.195770
                                                         0.888575       1.481524
                                                         0.333802       0.158910
                                                         0.112012       0.002169
                          1       5    4dy2              7.341988       1.354688
                                                         2.542637       0.690378
                                                         0.888575       0.855359
                                                         0.333802       0.091746
                                                         0.112012       0.001253
                          1       5    4dyz              7.341988       2.346389
                                                         2.542637       1.195770
                                                         0.888575       1.481524
                                                         0.333802       0.158910
                                                         0.112012       0.002169
                          1       5    4dz2              7.341988       1.354688
                                                         2.542637       0.690378
                                                         0.888575       0.855359
                                                         0.333802       0.091746
                                                         0.112012       0.001253

     GTH Potential information for                                    GTH-PBE-q5

       Description:                       Goedecker-Teter-Hutter pseudopotential
                                           Goedecker et al., PRB 54, 1703 (1996)
                                          Hartwigsen et al., PRB 58, 3641 (1998)
                                                      Krack, TCA 114, 145 (2005)

       Gaussian exponent of the core charge distribution:               6.208322
       Electronic configuration (s p d ...):                               2   3

       Parameters of the local part of the GTH pseudopotential:

                          rloc        C1          C2          C3          C4
                        0.283791  -12.415226    1.868096

       Parameters of the non-local part of the GTH pseudopotential:

                   l      r(l)      h(i,j,l)

                   0    0.255405   13.630263
                   1    0.245495

  3. Atomic kind: H                                     Number of atoms:       2

     Orbital Basis Set                                     DZVP-MOLOPT-SR-GTH-q1

       Number of orbital shell sets:                                           1
       Number of orbital shells:                                               3
       Number of primitive Cartesian functions:                                5
       Number of Cartesian basis functions:                                    5
       Number of spherical basis functions:                                    5
       Norm type:                                                              2

       Normalised Cartesian orbitals:

                        Set   Shell   Orbital            Exponent    Coefficient

                          1       1    2s               10.068468      -0.133023
                                                         2.680223      -0.177618
                                                         0.791502      -0.258419
                                                         0.239116      -0.107525
                                                         0.082193      -0.014019

                          1       2    3s               10.068468       0.344673
                                                         2.680223       1.819821
                                                         0.791502      -0.999069
                                                         0.239116       0.017430
                                                         0.082193       0.082660

                          1       3    3px              10.068468       0.155326
                                                         2.680223       0.367157
                                                         0.791502       0.311480
                                                         0.239116       0.080105
                                                         0.082193       0.033440
                          1       3    3py              10.068468       0.155326
                                                         2.680223       0.367157
                                                         0.791502       0.311480
                                                         0.239116       0.080105
                                                         0.082193       0.033440
                          1       3    3pz              10.068468       0.155326
                                                         2.680223       0.367157
                                                         0.791502       0.311480
                                                         0.239116       0.080105
                                                         0.082193       0.033440

     GTH Potential information for                                    GTH-PBE-q1

       Description:                       Goedecker-Teter-Hutter pseudopotential
                                           Goedecker et al., PRB 54, 1703 (1996)
                                          Hartwigsen et al., PRB 58, 3641 (1998)
                                                      Krack, TCA 114, 145 (2005)

       Gaussian exponent of the core charge distribution:              12.500000
       Electronic configuration (s p d ...):                                   1

       Parameters of the local part of the GTH pseudopotential:

                          rloc        C1          C2          C3          C4
                        0.200000   -4.178900    0.724463


 MOLECULE KIND INFORMATION


 All atoms are their own molecule, skipping detailed information


 TOTAL NUMBERS AND MAXIMUM NUMBERS

  Total number of            - Atomic kinds:                                   3
                             - Atoms:                                        146
                             - Shell sets:                                   146
                             - Shells:                                       870
                             - Primitive Cartesian functions:                802
                             - Cartesian basis functions:                   3178
                             - Spherical basis functions:                   2746

  Maximum angular momentum of- Orbital basis functions:                        3
                             - Local part of the GTH pseudopotential:          2
                             - Non-local part of the GTH pseudopotential:      4


 MODULE QUICKSTEP:  ATOMIC COORDINATES IN angstrom

  Atom  Kind  Element       X           Y           Z          Z(eff)       Mass

       1     1 Ga  31   -0.048418   -0.033518   -0.529533     13.00      69.7230
       2     2 N    7   -0.045763    1.841453    0.622208      5.00      14.0067
       3     1 Ga  31   -0.047085    1.809488    2.651254     13.00      69.7230
       4     2 N    7   -0.050165   -0.033478    3.284970      5.00      14.0067
       5     1 Ga  31   -0.050770   -0.030602    5.274971     13.00      69.7230
       6     2 N    7   -0.048124    1.843742    5.864687      5.00      14.0067
       7     1 Ga  31   -0.050347    1.844024    7.863357     13.00      69.7230
       8     2 N    7   -0.053344   -0.029438    8.465831      5.00      14.0067
       9     1 Ga  31   -0.054530   -0.025922   10.463754     13.00      69.7230
      10     2 N    7   -0.051843    1.845045   11.069876      5.00      14.0067
      11     1 Ga  31   -0.054206    1.845626   13.070425     13.00      69.7230
      12     2 N    7   -0.057500   -0.032354   13.663143      5.00      14.0067
      13     1 Ga  31   -0.058175   -0.015841   15.667638     13.00      69.7230
      14     2 N    7   -0.055827    1.865823   16.172418      5.00      14.0067
      15     1 Ga  31   -0.058927    1.872193   18.206173     13.00      69.7230
      16     2 N    7   -0.060538   -0.005387   18.610849      5.00      14.0067
      17     1 Ga  31   -1.668492    2.770487    0.339185     13.00      69.7230
      18     2 N    7   -1.669427    4.641216    0.623221      5.00      14.0067
      19     1 Ga  31   -1.642705    4.657255    2.653588     13.00      69.7230
      20     2 N    7   -1.669839    2.771642    3.244180      5.00      14.0067
      21     1 Ga  31   -1.670469    2.773816    5.253613     13.00      69.7230
      22     2 N    7   -1.670616    4.644219    5.862644      5.00      14.0067
      23     1 Ga  31   -1.671376    4.646017    7.860036     13.00      69.7230
      24     2 N    7   -1.673042    2.776690    8.469479      5.00      14.0067
      25     1 Ga  31   -1.673934    2.779133   10.466038     13.00      69.7230
      26     2 N    7   -1.671954    4.654961   11.066695      5.00      14.0067
      27     1 Ga  31   -1.673105    4.655362   13.060482     13.00      69.7230
      28     2 N    7   -1.684509    2.786599   13.648671      5.00      14.0067
      29     1 Ga  31   -1.681861    2.788358   15.643977     13.00      69.7230
      30     2 N    7   -1.684384    4.664678   16.267699      5.00      14.0067
      31     1 Ga  31   -1.632091    4.655272   18.298921     13.00      69.7230
      32     2 N    7   -1.694096    2.789862   18.675166      5.00      14.0067
      33     1 Ga  31   -3.289425    5.577080    0.339403     13.00      69.7230
      34     2 N    7   -3.281332    7.446868    0.622155      5.00      14.0067
      35     1 Ga  31   -3.311086    7.463296    2.651212     13.00      69.7230
      36     2 N    7   -3.289661    5.577505    3.243816      5.00      14.0067
      37     1 Ga  31   -3.290356    5.579881    5.253215     13.00      69.7230
      38     2 N    7   -3.284882    7.450387    5.862849      5.00      14.0067
      39     1 Ga  31   -3.288525    7.453076    7.860437     13.00      69.7230
      40     2 N    7   -3.292681    5.581869    8.463313      5.00      14.0067
      41     1 Ga  31   -3.293059    5.585624   10.455967     13.00      69.7230
      42     2 N    7   -3.290957    7.453894   11.068502      5.00      14.0067
      43     1 Ga  31   -3.294684    7.457166   13.063490     13.00      69.7230
      44     2 N    7   -3.304209    5.581314   13.680391      5.00      14.0067
      45     1 Ga  31   -3.313334    5.579713   15.669998     13.00      69.7230
      46     2 N    7   -3.288274    7.449048   16.264138      5.00      14.0067
      47     1 Ga  31   -3.272372    7.512230   18.291413     13.00      69.7230
      48     2 N    7   -3.271197    5.619418   18.853463      5.00      14.0067
      49     1 Ga  31    3.196912   -0.033758    0.339016     13.00      69.7230
      50     2 N    7    3.195413    1.835481    0.622122      5.00      14.0067
      51     1 Ga  31    3.223360    1.852258    2.650686     13.00      69.7230
      52     2 N    7    3.195481   -0.033164    3.243976      5.00      14.0067
      53     1 Ga  31    3.194678   -0.030426    5.253202     13.00      69.7230
      54     2 N    7    3.194518    1.839015    5.863780      5.00      14.0067
      55     1 Ga  31    3.192914    1.840899    7.861548     13.00      69.7230
      56     2 N    7    3.192561   -0.029760    8.468202      5.00      14.0067
      57     1 Ga  31    3.192080   -0.027854   10.463762     13.00      69.7230
      58     2 N    7    3.196370    1.844333   11.065962      5.00      14.0067
      59     1 Ga  31    3.192370    1.843999   13.060448     13.00      69.7230
      60     2 N    7    3.187226   -0.027776   13.670349      5.00      14.0067
      61     1 Ga  31    3.206538   -0.030307   15.673868     13.00      69.7230
      62     2 N    7    3.204669    1.850968   16.236293      5.00      14.0067
      63     1 Ga  31    3.149054    1.803525   18.242199     13.00      69.7230
      64     2 N    7    3.189249   -0.010567   18.777436      5.00      14.0067
      65     1 Ga  31    1.576993    2.770934    0.339091     13.00      69.7230
      66     2 N    7    1.583107    4.641716    0.623342      5.00      14.0067
      67     1 Ga  31    1.554403    4.657402    2.653492     13.00      69.7230
      68     2 N    7    1.575950    2.771666    3.244155      5.00      14.0067
      69     1 Ga  31    1.575149    2.773798    5.253594     13.00      69.7230
      70     2 N    7    1.580434    4.644182    5.862594      5.00      14.0067
      71     1 Ga  31    1.577091    4.646043    7.859993     13.00      69.7230
      72     2 N    7    1.572782    2.776632    8.469497      5.00      14.0067
      73     1 Ga  31    1.571354    2.779046   10.466093     13.00      69.7230
      74     2 N    7    1.574388    4.654783   11.066756      5.00      14.0067
      75     1 Ga  31    1.571087    4.655180   13.060581     13.00      69.7230
      76     2 N    7    1.576314    2.786676   13.649463      5.00      14.0067
      77     1 Ga  31    1.572063    2.787565   15.645399     13.00      69.7230
      78     2 N    7    1.579191    4.664675   16.270556      5.00      14.0067
      79     1 Ga  31    1.522947    4.655595   18.302711     13.00      69.7230
      80     2 N    7    1.577520    2.789166   18.672892      5.00      14.0067
      81     1 Ga  31   -0.042225    5.577300   -0.511120     13.00      69.7230
      82     2 N    7   -0.039606    7.451260    0.623363      5.00      14.0067
      83     1 Ga  31   -0.040960    7.420889    2.653622     13.00      69.7230
      84     2 N    7   -0.043990    5.577361    3.285815      5.00      14.0067
      85     1 Ga  31   -0.044643    5.579808    5.275835     13.00      69.7230
      86     2 N    7   -0.042026    7.455116    5.862666      5.00      14.0067
      87     1 Ga  31   -0.044040    7.455381    7.859952     13.00      69.7230
      88     2 N    7   -0.047016    5.582103    8.462380      5.00      14.0067
      89     1 Ga  31   -0.048186    5.585926   10.458152     13.00      69.7230
      90     2 N    7   -0.045720    7.454263   11.072751      5.00      14.0067
      91     1 Ga  31   -0.047614    7.453421   13.069339     13.00      69.7230
      92     2 N    7   -0.050728    5.580319   13.684262      5.00      14.0067
      93     1 Ga  31   -0.052648    5.606327   15.691957     13.00      69.7230
      94     2 N    7   -0.049990    7.460066   16.313576      5.00      14.0067
      95     1 Ga  31   -0.050977    7.465090   18.417083     13.00      69.7230
      96     2 N    7   -0.055276    5.597724   18.772316      5.00      14.0067
      97     1 Ga  31    6.442120   -0.033197    0.339114     13.00      69.7230
      98     2 N    7    6.448899    1.836086    0.622420      5.00      14.0067
      99     1 Ga  31    6.418932    1.852499    2.650787     13.00      69.7230
     100     2 N    7    6.441178   -0.033098    3.243963      5.00      14.0067
     101     1 Ga  31    6.440443   -0.030417    5.253184     13.00      69.7230
     102     2 N    7    6.445883    1.839083    5.863750      5.00      14.0067
     103     1 Ga  31    6.443481    1.840873    7.861544     13.00      69.7230
     104     2 N    7    6.437772   -0.029778    8.467942      5.00      14.0067
     105     1 Ga  31    6.435604   -0.028244   10.463350     13.00      69.7230
     106     2 N    7    6.436616    1.844051   11.065318      5.00      14.0067
     107     1 Ga  31    6.436533    1.843402   13.059448     13.00      69.7230
     108     2 N    7    6.435694   -0.027835   13.671246      5.00      14.0067
     109     1 Ga  31    6.413665   -0.030959   15.675110     13.00      69.7230
     110     2 N    7    6.423713    1.850161   16.237603      5.00      14.0067
     111     1 Ga  31    6.472220    1.802361   18.244094     13.00      69.7230
     112     2 N    7    6.426082   -0.011523   18.778424      5.00      14.0067
     113     1 Ga  31    4.823255    2.770710   -0.537504     13.00      69.7230
     114     2 N    7    4.825705    4.646012    0.622186      5.00      14.0067
     115     1 Ga  31    4.824360    4.614194    2.650957     13.00      69.7230
     116     2 N    7    4.821267    2.771597    3.285429      5.00      14.0067
     117     1 Ga  31    4.820560    2.773839    5.275318     13.00      69.7230
     118     2 N    7    4.823281    4.649010    5.861522      5.00      14.0067
     119     1 Ga  31    4.821179    4.649455    7.858358     13.00      69.7230
     120     2 N    7    4.818282    2.776298    8.460724      5.00      14.0067
     121     1 Ga  31    4.816741    2.777173   10.455357     13.00      69.7230
     122     2 N    7    4.819533    4.650974   11.058489      5.00      14.0067
     123     1 Ga  31    4.817588    4.653373   13.045192     13.00      69.7230
     124     2 N    7    4.815186    2.789678   13.665981      5.00      14.0067
     125     1 Ga  31    4.813843    2.799539   15.650795     13.00      69.7230
     126     2 N    7    4.816211    4.654488   16.338715      5.00      14.0067
     127     1 Ga  31    4.814633    4.661961   18.352794     13.00      69.7230
     128     2 N    7    4.811169    2.742728   18.879040      5.00      14.0067
     129     1 Ga  31    3.204047    5.576580    0.339438     13.00      69.7230
     130     2 N    7    3.201106    7.446322    0.622032      5.00      14.0067
     131     1 Ga  31    3.228962    7.463094    2.651244     13.00      69.7230
     132     2 N    7    3.201881    5.577441    3.243747      5.00      14.0067
     133     1 Ga  31    3.201067    5.579783    5.253135     13.00      69.7230
     134     2 N    7    3.200892    7.450361    5.862706      5.00      14.0067
     135     1 Ga  31    3.200127    7.453046    7.860263     13.00      69.7230
     136     2 N    7    3.198541    5.581875    8.463232      5.00      14.0067
     137     1 Ga  31    3.196199    5.585354   10.455874     13.00      69.7230
     138     2 N    7    3.199355    7.453607   11.068480      5.00      14.0067
     139     1 Ga  31    3.198514    7.456778   13.063440     13.00      69.7230
     140     2 N    7    3.202359    5.580738   13.681074      5.00      14.0067
     141     1 Ga  31    3.209281    5.578953   15.670971     13.00      69.7230
     142     2 N    7    3.189374    7.448541   16.265238      5.00      14.0067
     143     1 Ga  31    3.169692    7.512071   18.292947     13.00      69.7230
     144     2 N    7    3.162216    5.619092   18.854416      5.00      14.0067
     145     3 H    1    3.188702    5.581897   19.882006      1.00       1.0079
     146     3 H    1    6.441336    5.581481   19.881001      1.00       1.0079




 SCF PARAMETERS         Density guess:                                    ATOMIC
                        --------------------------------------------------------
                        max_scf:                                             100
                        max_scf_history:                                       0
                        max_diis:                                              4
                        --------------------------------------------------------
                        eps_scf:                                        5.00E-06
                        eps_scf_history:                                0.00E+00
                        eps_diis:                                       1.00E-01
                        eps_eigval:                                     1.00E-05
                        --------------------------------------------------------
                        level_shift [a.u.]:                                 0.00
                        --------------------------------------------------------
                        Outer loop SCF in use 
                        No variables optimised in outer loop
                        eps_scf                                         5.00E-06
                        max_scf                                                4
                        No outer loop optimization
                        step_size                                       5.00E-01

 PW_GRID| Information for grid number                                          1
 PW_GRID| Grid distributed over                                    80 processors
 PW_GRID| Real space group dimensions                                    80    1
 PW_GRID| the grid is blocked:                                                NO
 PW_GRID| Cutoff [a.u.]                                                    600.0
 PW_GRID| spherical cutoff:                                                   NO
 PW_GRID|   Bounds   1           -100      99                Points:         200
 PW_GRID|   Bounds   2           -100      99                Points:         200
 PW_GRID|   Bounds   3           -324     323                Points:         648
 PW_GRID| Volume element (a.u.^3)  0.6333E-03     Volume (a.u.^3)     16414.2734
 PW_GRID| Grid span                                                    FULLSPACE
 PW_GRID|   Distribution                         Average         Max         Min
 PW_GRID|   G-Vectors                           324000.0      324000      324000
 PW_GRID|   G-Rays                                1620.0        1620        1620
 PW_GRID|   Real Space Points                   324000.0      388800      259200

 PW_GRID| Information for grid number                                          2
 PW_GRID| Grid distributed over                                    80 processors
 PW_GRID| Real space group dimensions                                    80    1
 PW_GRID| the grid is blocked:                                                NO
 PW_GRID| Cutoff [a.u.]                                                    200.0
 PW_GRID| spherical cutoff:                                                   NO
 PW_GRID|   Bounds   1            -60      59                Points:         120
 PW_GRID|   Bounds   2            -60      59                Points:         120
 PW_GRID|   Bounds   3           -187     187                Points:         375
 PW_GRID| Volume element (a.u.^3)  0.3040E-02     Volume (a.u.^3)     16414.2734
 PW_GRID| Grid span                                                    FULLSPACE
 PW_GRID|   Distribution                         Average         Max         Min
 PW_GRID|   G-Vectors                            67500.0       68520       66240
 PW_GRID|   G-Rays                                 562.5         571         552
 PW_GRID|   Real Space Points                    67500.0       90000       45000

 PW_GRID| Information for grid number                                          3
 PW_GRID| Grid distributed over                                    80 processors
 PW_GRID| Real space group dimensions                                     8   10
 PW_GRID| the grid is blocked:                                                NO
 PW_GRID| Cutoff [a.u.]                                                     66.7
 PW_GRID| spherical cutoff:                                                   NO
 PW_GRID|   Bounds   1            -36      35                Points:          72
 PW_GRID|   Bounds   2            -36      35                Points:          72
 PW_GRID|   Bounds   3           -108     107                Points:         216
 PW_GRID| Volume element (a.u.^3)  0.1466E-01     Volume (a.u.^3)     16414.2734
 PW_GRID| Grid span                                                    FULLSPACE
 PW_GRID|   Distribution                         Average         Max         Min
 PW_GRID|   G-Vectors                            13996.8       14976       12816
 PW_GRID|   G-Rays                                 194.4         208         178
 PW_GRID|   Real Space Points                    13996.8       15552       13608

 PW_GRID| Information for grid number                                          4
 PW_GRID| Grid distributed over                                    80 processors
 PW_GRID| Real space group dimensions                                     8   10
 PW_GRID| the grid is blocked:                                                NO
 PW_GRID| Cutoff [a.u.]                                                     22.2
 PW_GRID| spherical cutoff:                                                   NO
 PW_GRID|   Bounds   1            -20      19                Points:          40
 PW_GRID|   Bounds   2            -20      19                Points:          40
 PW_GRID|   Bounds   3            -62      62                Points:         125
 PW_GRID| Volume element (a.u.^3)  0.8207E-01     Volume (a.u.^3)     16414.2734
 PW_GRID| Grid span                                                    FULLSPACE
 PW_GRID|   Distribution                         Average         Max         Min
 PW_GRID|   G-Vectors                             2500.0        2960        2040
 PW_GRID|   G-Rays                                  62.5          74          51
 PW_GRID|   Real Space Points                     2500.0        2500        2500

 PW_GRID| Information for grid number                                          5
 PW_GRID| Grid distributed over                                    80 processors
 PW_GRID| Real space group dimensions                                     8   10
 PW_GRID| the grid is blocked:                                                NO
 PW_GRID| Cutoff [a.u.]                                                      7.4
 PW_GRID| spherical cutoff:                                                   NO
 PW_GRID|   Bounds   1            -12      11                Points:          24
 PW_GRID|   Bounds   2            -12      11                Points:          24
 PW_GRID|   Bounds   3            -36      35                Points:          72
 PW_GRID| Volume element (a.u.^3)  0.3958         Volume (a.u.^3)     16414.2734
 PW_GRID| Grid span                                                    FULLSPACE
 PW_GRID|   Distribution                         Average         Max         Min
 PW_GRID|   G-Vectors                              518.4         648         240
 PW_GRID|   G-Rays                                  21.6          27          10
 PW_GRID|   Real Space Points                      518.4         648         432

 POISSON| Solver                                                        PERIODIC
 POISSON| Periodicity                                                        XYZ

 RS_GRID| Information for grid number                                          1
 RS_GRID|   Bounds   1           -100      99                Points:         200
 RS_GRID|   Bounds   2           -100      99                Points:         200
 RS_GRID|   Bounds   3           -324     323                Points:         648
 RS_GRID| Real space distribution over                                 80 groups
 RS_GRID| Real space distribution along direction                              3
 RS_GRID| Border size                                                         73
 RS_GRID|   Distribution                         Average         Max         Min
 RS_GRID|   Planes                                 154.1         155         154

 RS_GRID| Information for grid number                                          2
 RS_GRID|   Bounds   1            -60      59                Points:         120
 RS_GRID|   Bounds   2            -60      59                Points:         120
 RS_GRID|   Bounds   3           -187     187                Points:         375
 RS_GRID| Real space distribution over                                 80 groups
 RS_GRID| Real space distribution along direction                              3
 RS_GRID| Border size                                                         45
 RS_GRID|   Distribution                         Average         Max         Min
 RS_GRID|   Planes                                  94.7          95          94

 RS_GRID| Information for grid number                                          3
 RS_GRID|   Bounds   1            -36      35                Points:          72
 RS_GRID|   Bounds   2            -36      35                Points:          72
 RS_GRID|   Bounds   3           -108     107                Points:         216
 RS_GRID| Real space fully replicated
 RS_GRID| Group size                                                           1

 RS_GRID| Information for grid number                                          4
 RS_GRID|   Bounds   1            -20      19                Points:          40
 RS_GRID|   Bounds   2            -20      19                Points:          40
 RS_GRID|   Bounds   3            -62      62                Points:         125
 RS_GRID| Real space fully replicated
 RS_GRID| Group size                                                           1

 RS_GRID| Information for grid number                                          5
 RS_GRID|   Bounds   1            -12      11                Points:          24
 RS_GRID|   Bounds   2            -12      11                Points:          24
 RS_GRID|   Bounds   3            -36      35                Points:          72
 RS_GRID| Real space fully replicated
 RS_GRID| Group size                                                           1

 BFGS| Use rational function optimization for step estimation:                NO
 BFGS| Use model Hessian for initial guess:                                  YES
 BFGS| Restart Hessian:                                                       NO
 BFGS| Trust radius:                                                       0.472

 *******************************************************************************
 ***                     STARTING GEOMETRY OPTIMIZATION                      ***
 ***                                   BFGS                                  ***
 *******************************************************************************

 Number of electrons:                                                       1298
 Number of occupied orbitals:                                                649
 Number of molecular orbitals:                                               649

 Number of orbital functions:                                               2746
 Number of independent orbital functions:                                   2746

 Extrapolation method: initial_guess

 Atomic guess: The first density matrix is obtained in terms of atomic orbitals
               and electronic configurations assigned to each atomic kind

 Guess for atomic kind: Ga

 Electronic structure
    Total number of core electrons                                         18.00
    Total number of valence electrons                                      13.00
    Total number of electrons                                              31.00
    Multiplicity                                                   not specified
    S   [  2.00  2.00  2.00] 2.00
    P   [  6.00  6.00] 1.00
    D     10.00
 

 *******************************************************************************
                  Iteration          Convergence                     Energy [au]
 *******************************************************************************
                          1         22.1524                     -44.516413224335
                          2         1.91043                     -73.305924441898
                          3        0.524291E-01                 -74.147756188929
                          4        0.359055E-02                 -74.148100266765
                          5        0.137660E-02                 -74.148101509825
                          6        0.820576E-03                 -74.148101603074
                          7        0.577059E-04                 -74.148101657024
                          8        0.577427E-08                 -74.148101657328

 Energy components [Hartree]           Total Energy ::          -74.148101657328
                                        Band Energy ::           -7.354344558070
                                     Kinetic Energy ::           99.564392614967
                                   Potential Energy ::         -173.712494272295
                                      Virial (-V/T) ::            1.744725094081
                                        Core Energy ::         -134.243973097364
                                          XC Energy ::           -9.781240980901
                                     Coulomb Energy ::           69.877112420937
                       Total Pseudopotential Energy ::         -233.873649274629
                       Local Pseudopotential Energy ::         -163.402683521975
                    Nonlocal Pseudopotential Energy ::          -70.470965752654
                                        Confinement ::            0.652835622975

 Orbital energies  State     L     Occupation   Energy[a.u.]          Energy[eV]

                       1     0          2.000      -0.307238           -8.360378
 
                       1     1          1.000      -0.061461           -1.672442
 
                       1     2         10.000      -0.667841          -18.172870
 

 Total Electron Density at R=0:                                         0.000004

 Guess for atomic kind: N

 Electronic structure
    Total number of core electrons                                          2.00
    Total number of valence electrons                                       5.00
    Total number of electrons                                               7.00
    Multiplicity                                                   not specified
    S   [  2.00] 2.00
    P      3.00
 

 *******************************************************************************
                  Iteration          Convergence                     Energy [au]
 *******************************************************************************
                          1        0.314603                      -9.513311037226
                          2        0.240982                      -9.524715106536
                          3        0.171660E-02                  -9.545365478140
                          4        0.189497E-03                  -9.545366407342
                          5        0.115171E-03                  -9.545366414563
                          6        0.842367E-04                  -9.545366416530
                          7        0.416372E-07                  -9.545366418792

 Energy components [Hartree]           Total Energy ::           -9.545366418792
                                        Band Energy ::           -2.053285301135
                                     Kinetic Energy ::            6.740378038236
                                   Potential Energy ::          -16.285744457028
                                      Virial (-V/T) ::            2.416147041701
                                        Core Energy ::          -15.542519058333
                                          XC Energy ::           -2.163416690174
                                     Coulomb Energy ::            8.160569329715
                       Total Pseudopotential Energy ::          -22.320027271038
                       Local Pseudopotential Energy ::          -23.240219346165
                    Nonlocal Pseudopotential Energy ::            0.920192075127
                                        Confinement ::            0.371301744695

 Orbital energies  State     L     Occupation   Energy[a.u.]          Energy[eV]

                       1     0          2.000      -0.663125          -18.044549
 
                       1     1          3.000      -0.242345           -6.594545
 

 Total Electron Density at R=0:                                         0.000019

 Guess for atomic kind: H

 Electronic structure
    Total number of core electrons                                          0.00
    Total number of valence electrons                                       1.00
    Total number of electrons                                               1.00
    Multiplicity                                                   not specified
    S      1.00
 

 *******************************************************************************
                  Iteration          Convergence                     Energy [au]
 *******************************************************************************
                          1        0.250972E-02                  -0.375256815885
                          2        0.570752E-04                  -0.375258666164
                          3        0.832405E-09                  -0.375258667122

 Energy components [Hartree]           Total Energy ::           -0.375258667122
                                        Band Energy ::           -0.076317618391
                                     Kinetic Energy ::            0.771356566341
                                   Potential Energy ::           -1.146615233463
                                      Virial (-V/T) ::            1.486491829455
                                        Core Energy ::           -0.456090715790
                                          XC Energy ::           -0.314218627334
                                     Coulomb Energy ::            0.395050676003
                       Total Pseudopotential Energy ::           -1.238482237174
                       Local Pseudopotential Energy ::           -1.238482237174
                    Nonlocal Pseudopotential Energy ::            0.000000000000
                                        Confinement ::            0.110349550431

 Orbital energies  State     L     Occupation   Energy[a.u.]          Energy[eV]

                       1     0          1.000      -0.076318           -2.076708
 

 Total Electron Density at R=0:                                         0.425022
 Re-scaling the density matrix to get the right number of electrons
                  # Electrons              Trace(P)               Scaling factor
                         1298              1297.997                        1.000


 SCF WAVEFUNCTION OPTIMIZATION

  ----------------------------------- OT ---------------------------------------
  Minimizer      : CG                  : conjugate gradient
  Preconditioner : FULL_ALL            : diagonalization, state selective
  Precond_solver : DEFAULT
  Line search    : 2PNT                : 2 energies, one gradient
  stepsize       :    0.15000000                  energy_gap     :    0.08000000
  eps_taylor     :   0.10000E-15                  max_taylor     :             4
  ----------------------------------- OT ---------------------------------------

  Step     Update method      Time    Convergence         Total energy    Change
  ------------------------------------------------------------------------------
     1 OT CG       0.15E+00    4.8     0.03436187     -6017.6130261070 -6.02E+03
     2 OT LS       0.52E-01    1.9                    -5875.0716100885
     3 OT CG       0.52E-01    4.1     0.29693678     -5833.4954353510  1.84E+02
     4 OT LS       0.23E-01    1.9                    -4759.2883013411
     5 OT CG       0.23E-01    4.5     0.57452477     -5470.4403826003  3.63E+02
     6 OT LS       0.11E-01    1.9                    -5098.1921223289
     7 OT CG       0.11E-01    4.1     0.68565029     -5179.4695374921  2.91E+02
     8 OT LS       0.58E-02    1.9                    -5254.8732890401
     9 OT CG       0.58E-02    4.1     0.20684789     -5795.1254807426 -6.16E+02
    10 OT LS       0.37E-02    2.3                    -5877.2459298374
    11 OT CG       0.37E-02    5.6     0.07671444     -5888.9883792882 -9.39E+01
    12 OT LS       0.73E-02    3.1                    -5917.9396035126
    13 OT CG       0.73E-02    6.7     0.04576771     -5930.0035897544 -4.10E+01
    14 OT LS       0.51E-02    2.7                    -5938.3699820867
    15 OT CG       0.51E-02    6.2     0.03006657     -5940.4143353344 -1.04E+01
    16 OT LS       0.20E-01    3.1                    -5947.7760433297
    17 OT CG       0.20E-01    6.4     0.02876035     -5961.5816292778 -2.12E+01
    18 OT LS       0.11E-01    3.0                    -5964.4916146726
    19 OT CG       0.11E-01    6.2     0.03578364     -5969.6969758316 -8.12E+00
    20 OT LS       0.11E-01    3.1                    -5981.2065952847
    21 OT CG       0.11E-01    6.3     0.02956670     -5981.3563801147 -1.17E+01
    22 OT LS       0.32E-01    2.7                    -5993.8488544337
    23 OT CG       0.32E-01    6.0     0.07938141     -5995.0745911131 -1.37E+01
    24 OT LS       0.21E-02    2.8                    -4980.6922410823
    25 OT CG       0.21E-02    6.2     0.07820067     -5999.6744760269 -4.60E+00
    26 OT LS       0.32E-02    2.7                    -6015.0383786064
    27 OT CG       0.32E-02    5.4     0.01167879     -6017.4602211440 -1.78E+01
    28 OT LS       0.13E-01    1.9                    -6018.2000999499
    29 OT CG       0.13E-01    4.1     0.01105013     -6020.0226071260 -2.56E+00
    30 OT LS       0.18E-01    1.9                    -6022.1151083590
    31 OT CG       0.18E-01    4.4     0.02052075     -6022.2638974684 -2.24E+00
    32 OT LS       0.12E-01    1.9                    -6025.4307365909
    33 OT CG       0.12E-01    4.1     0.03164542     -6026.9221569266 -4.66E+00
    34 OT LS       0.77E-02    1.9                    -6031.7844090899
    35 OT CG       0.77E-02    4.1     0.01112417     -6032.9775036022 -6.06E+00
    36 OT LS       0.31E-01    2.3                    -6034.4537684479
    37 OT CG       0.31E-01    4.1     0.01662610     -6035.9895213248 -3.01E+00
    38 OT LS       0.72E-02    1.9                    -6024.1124966274
    39 OT CG       0.72E-02    4.1     0.01423461     -6037.3134735475 -1.32E+00
    40 OT LS       0.73E-02    1.9                    -6038.6351196524
    41 OT CG       0.73E-02    4.3     0.01015833     -6038.6368060179 -1.32E+00
    42 OT LS       0.29E-01    1.9                    -6039.8826943848
    43 OT CG       0.29E-01    4.1     0.00903664     -6041.7254135264 -3.09E+00
    44 OT LS       0.23E-01    1.9                    -6043.4086574291
    45 OT CG       0.23E-01    4.1     0.00689716     -6043.4175295481 -1.69E+00
    46 OT LS       0.13E-01    2.3                    -6043.6784713089
    47 OT CG       0.13E-01    4.1     0.00732122     -6044.0505396440 -6.33E-01
    48 OT LS       0.24E-01    1.9                    -6044.9844597148
    49 OT CG       0.24E-01    4.1     0.00597555     -6045.2638205515 -1.21E+00
    50 OT LS       0.69E-01    1.9                    -6046.5883209016
    51 OT CG       0.69E-01    4.5     0.00449516     -6047.6495607606 -2.39E+00
    52 OT LS       0.53E-01    1.9                    -6048.5463125562
    53 OT CG       0.53E-01    4.2     0.00916416     -6048.5766441488 -9.27E-01
    54 OT LS       0.56E-02    2.5                    -6017.9766653818
    55 OT CG       0.56E-02    5.9     0.00490896     -6049.2577101406 -6.81E-01
    56 OT LS       0.91E-02    2.7                    -6049.4240158191
    57 OT CG       0.91E-02    5.8     0.00328692     -6049.4502594978 -1.93E-01
    58 OT LS       0.36E-01    2.8                    -6049.6082414840
    59 OT CG       0.36E-01    5.6     0.00283562     -6049.9378665714 -4.88E-01
    60 OT LS       0.12E-01    2.7                    -6049.6687698575
    61 OT CG       0.12E-01    6.1     0.00273478     -6050.0246577773 -8.68E-02
    62 OT LS       0.49E-01    2.7                    -6050.1712108692
    63 OT CG       0.49E-01    6.2     0.00282784     -6050.5145894367 -4.90E-01
    64 OT LS       0.13E-01    2.6                    -6049.7867909404
    65 OT CG       0.13E-01    5.5     0.00266784     -6050.6211200280 -1.07E-01
    66 OT LS       0.50E-01    2.7                    -6050.7691190657
    67 OT CG       0.50E-01    6.1     0.00377345     -6050.9579514988 -3.37E-01
    68 OT LS       0.22E-01    2.7                    -6050.7893345614
    69 OT CG       0.22E-01    6.0     0.00552610     -6051.2117263067 -2.54E-01
    70 OT LS       0.56E-01    2.9                    -6052.1288572014
[...]
 flops     5 x    25 x    32          11688192000     100.0%      0.0%      0.0%
 flops    25 x     5 x    32          11688192000     100.0%      0.0%      0.0%
 flops    13 x    32 x     5          16668288000     100.0%      0.0%      0.0%
 flops     5 x    32 x    13          16668288000     100.0%      0.0%      0.0%
 flops   677 x    41 x   139          17037912768     100.0%      0.0%      0.0%
 flops   677 x    41 x   140          17160487680     100.0%      0.0%      0.0%
 flops   685 x    41 x   139          17239247040     100.0%      0.0%      0.0%
 flops   688 x    41 x   139          17314747392     100.0%      0.0%      0.0%
 flops   685 x    41 x   140          17363270400     100.0%      0.0%      0.0%
 flops   688 x    41 x   140          17439313920     100.0%      0.0%      0.0%
 flops   696 x    41 x   139          17516081664     100.0%      0.0%      0.0%
 flops   696 x    41 x   140          17642096640     100.0%      0.0%      0.0%
 flops    13 x     9 x    13          23875094412     100.0%      0.0%      0.0%
 flops   160 x    41 x   139          28482234240     100.0%      0.0%      0.0%
 flops   160 x    41 x   140          28687142400     100.0%      0.0%      0.0%
 flops    13 x    13 x    41          31847637978     100.0%      0.0%      0.0%
 flops   169 x    41 x    32          37123475584     100.0%      0.0%      0.0%
 flops   169 x    32 x    41          37123475584     100.0%      0.0%      0.0%
 flops   169 x    41 x   127          41230723482     100.0%      0.0%      0.0%
 flops    25 x    32 x     5          42739200000     100.0%      0.0%      0.0%
 flops     5 x    32 x    25          42739200000     100.0%      0.0%      0.0%
 flops    13 x     9 x    25          53506831950     100.0%      0.0%      0.0%
 flops    25 x     9 x    13          53506831950     100.0%      0.0%      0.0%
 flops    25 x    13 x    41          68833165700     100.0%      0.0%      0.0%
 flops   677 x    41 x   127          70051562208     100.0%      0.0%      0.0%
 flops   685 x    41 x   127          70879350240     100.0%      0.0%      0.0%
 flops   688 x    41 x   127          71189770752     100.0%      0.0%      0.0%
 flops    13 x    25 x    41          71509811750     100.0%      0.0%      0.0%
 flops   696 x    41 x   127          72017558784     100.0%      0.0%      0.0%
 flops   160 x    32 x    41         105439457280     100.0%      0.0%      0.0%
 flops   160 x    41 x    32         105439457280     100.0%      0.0%      0.0%
 flops    25 x     9 x    25         108183600000     100.0%      0.0%      0.0%
 flops   160 x    41 x   127         117105013440     100.0%      0.0%      0.0%
 flops   677 x    32 x    41         120901497984     100.0%      0.0%      0.0%
 flops   677 x    41 x    32         120901497984     100.0%      0.0%      0.0%
 flops   685 x    32 x    41         122330171520     100.0%      0.0%      0.0%
 flops   685 x    41 x    32         122330171520     100.0%      0.0%      0.0%
 flops   688 x    32 x    41         122865924096     100.0%      0.0%      0.0%
 flops   688 x    41 x    32         122865924096     100.0%      0.0%      0.0%
 flops   696 x    41 x    32         124294597632     100.0%      0.0%      0.0%
 flops   696 x    32 x    41         124294597632     100.0%      0.0%      0.0%
 flops    25 x    25 x    41         143843580000     100.0%      0.0%      0.0%
 flops   169 x    32 x   139         148709681536     100.0%      0.0%      0.0%
 flops   169 x    32 x   140         149779535360     100.0%      0.0%      0.0%
 flops   677 x    32 x   139         252659779584     100.0%      0.0%      0.0%
 flops   677 x    32 x   140         254477475840     100.0%      0.0%      0.0%
 flops   685 x    32 x   139         255645419520     100.0%      0.0%      0.0%
 flops   688 x    32 x   139         256765034496     100.0%      0.0%      0.0%
 flops   685 x    32 x   140         257484595200     100.0%      0.0%      0.0%
 flops   688 x    32 x   140         258612264960     100.0%      0.0%      0.0%
 flops   696 x    32 x   139         259750674432     100.0%      0.0%      0.0%
 flops   696 x    32 x   140         261619384320     100.0%      0.0%      0.0%
 flops   160 x    32 x   139         422370693120     100.0%      0.0%      0.0%
 flops   160 x    32 x   140         425409331200     100.0%      0.0%      0.0%
 flops    13 x    13 x    32         472277168064     100.0%      0.0%      0.0%
 flops   169 x    32 x    32         550513979392     100.0%      0.0%      0.0%
 flops   169 x    32 x   127         611421460416     100.0%      0.0%      0.0%
 flops    25 x    13 x    32        1020745481600     100.0%      0.0%      0.0%
 flops   677 x    32 x   127        1038813410304     100.0%      0.0%      0.0%
 flops   685 x    32 x   127        1051088901120     100.0%      0.0%      0.0%
 flops   688 x    32 x   127        1055692210176     100.0%      0.0%      0.0%
 flops    13 x    25 x    32        1060438184000     100.0%      0.0%      0.0%
 flops   696 x    32 x   127        1067967700992     100.0%      0.0%      0.0%
 flops   160 x    32 x    32        1563590000640     100.0%      0.0%      0.0%
 flops    13 x    32 x    13        1697784491520     100.0%      0.0%      0.0%
 flops   160 x    32 x   127        1736581662720     100.0%      0.0%      0.0%
 flops   677 x    32 x    32        1792880750592     100.0%      0.0%      0.0%
 flops   685 x    32 x    32        1814066933760     100.0%      0.0%      0.0%
 flops   688 x    32 x    32        1822011752448     100.0%      0.0%      0.0%
 flops   696 x    32 x    32        1843197935616     100.0%      0.0%      0.0%
 flops    25 x    25 x    32        2133095040000     100.0%      0.0%      0.0%
 flops    13 x    32 x    25        3804930272000     100.0%      0.0%      0.0%
 flops    25 x    32 x    13        3804930272000     100.0%      0.0%      0.0%
 flops    25 x    32 x    25        7693056000000     100.0%      0.0%      0.0%
 flops inhomo. stacks               8578875813200     100.0%      0.0%      0.0%
 flops total                        52.098556E+12     100.0%      0.0%      0.0%
 flops max/rank                    819.681224E+09     100.0%      0.0%      0.0%
 matmuls inhomo. stacks                   2075920     100.0%      0.0%      0.0%
 matmuls total                         1002378552     100.0%      0.0%      0.0%
 number of processed stacks              42593470     100.0%      0.0%      0.0%
 average stack size                                    23.5       0.0       0.0
 marketing flops                    56.277527E+12
 -------------------------------------------------------------------------------
 # multiplications                          14682
 max memory usage/rank             870.080512E+06
 # max total images/rank                        5
 # max 3D layers                                1
 # MPI messages exchanged               133899840
 MPI messages size (bytes):
  total size                         7.866388E+12
  min size                           0.000000E+00
  max size                           1.113600E+06
  average size                      58.748301E+03
 MPI breakdown and total messages size (bytes):
             size <=      128              522880                        0
       128 < size <=     8192            54801244             448931790848
      8192 < size <=    32768            28777514             787228451296
     32768 < size <=   131072            34227322            1353418791088
    131072 < size <=  4194304            15570880            5271744398576
   4194304 < size <= 16777216                   0                        0
  16777216 < size                               0                        0
 -------------------------------------------------------------------------------

 *** WARNING in dbcsr/mm/dbcsr_mm.F:268 :: Using a non-square number of ***
 *** MPI ranks might lead to poor performance.                          ***
 *** Used ranks: 80                                                     ***
 *** Suggested: 81 169                                                  ***

 -------------------------------------------------------------------------------
 
 MEMORY| Estimated peak process memory [MiB]                                 835

 -------------------------------------------------------------------------------
 ----                             MULTIGRID INFO                            ----
 -------------------------------------------------------------------------------
 count for grid        1:         355809          cutoff [a.u.]          600.00
 count for grid        2:        2867459          cutoff [a.u.]          200.00
 count for grid        3:        2480281          cutoff [a.u.]           66.67
 count for grid        4:        3578031          cutoff [a.u.]           22.22
 count for grid        5:        3367565          cutoff [a.u.]            7.41
 total gridlevel count  :       12649145

 -------------------------------------------------------------------------------
 -                                                                             -
 -                         MESSAGE PASSING PERFORMANCE                         -
 -                                                                             -
 -------------------------------------------------------------------------------

 ROUTINE             CALLS      AVE VOLUME [Bytes]
 MP_Group              959
 MP_Bcast            24053                  24112.
 MP_Allreduce       138503                    202.
 MP_Sync               569
 MP_Alltoall         74498                2832882.
 MP_SendRecv          8848                   5258.
 MP_ISendRecv       376356                  49867.
 MP_Wait           3335217
 MP_comm_split         564
 MP_ISend          3806788                  55340.
 MP_IRecv          3805684                  55268.
 MP_Recv               513                  77088.
 MP_Memory         1645326
 -------------------------------------------------------------------------------


 -------------------------------------------------------------------------------
 -                                                                             -
 -                           R E F E R E N C E S                               -
 -                                                                             -
 -------------------------------------------------------------------------------
 
 CP2K version 7.0 (Development Version), the CP2K developers group (2018).
 CP2K is freely available from https://www.cp2k.org/ .

 Schuett, Ole; Messmer, Peter; Hutter, Juerg; VandeVondele, Joost. 
 Electronic Structure Calculations on Graphics Processing Units, John Wiley & Sons, Ltd, 173-190 (2016). 
 GPU-Accelerated Sparse Matrix-Matrix Multiplication for Linear Scaling Density Functional Theory.
 http://dx.doi.org/10.1002/9781118670712.ch8


 Borstnik, U; VandeVondele, J; Weber, V; Hutter, J. 
 PARALLEL COMPUTING, 40 (5-6), 47-58 (2014). 
 Sparse matrix multiplication: The distributed block-compressed sparse
 row library.
 http://dx.doi.org/10.1016/j.parco.2014.03.012


 Hutter, J; Iannuzzi, M; Schiffmann, F; VandeVondele, J. 
 WILEY INTERDISCIPLINARY REVIEWS-COMPUTATIONAL MOLECULAR SCIENCE, 4 (1), 15-25 (2014). 
 CP2K: atomistic simulations of condensed matter systems.
 http://dx.doi.org/10.1002/wcms.1159


 Grimme, S; Ehrlich, S; Goerigk, L. 
 JOURNAL OF COMPUTATIONAL CHEMISTRY, 32, 1456 (2011). 
 Effect of the damping function in dispersion corrected density functional theory.
 http://dx.doi.org/10.1002/jcc.21759


 Grimme, S; Antony, J; Ehrlich, S; Krieg, H. 
 JOURNAL OF CHEMICAL PHYSICS, 132 (15), 154104 (2010). 
 A consistent and accurate ab initio parametrization of density
 functional dispersion correction (DFT-D) for the 94 elements H-Pu.
 http://dx.doi.org/10.1063/1.3382344


 VandeVondele, J; Hutter, J. 
 JOURNAL OF CHEMICAL PHYSICS, 127 (11), 114105 (2007). 
 Gaussian basis sets for accurate calculations on molecular systems in
 gas and condensed phases.
 http://dx.doi.org/10.1063/1.2770708


 Krack, M. 
 THEORETICAL CHEMISTRY ACCOUNTS, 114 (1-3), 145-152 (2005). 
 Pseudopotentials for H to Kr optimized for gradient-corrected
 exchange-correlation functionals.
 http://dx.doi.org/10.1007/s00214-005-0655-y


 VandeVondele, J; Krack, M; Mohamed, F; Parrinello, M; Chassaing, T;
 Hutter, J. COMPUTER PHYSICS COMMUNICATIONS, 167 (2), 103-128 (2005). 
 QUICKSTEP: Fast and accurate density functional calculations using a
 mixed Gaussian and plane waves approach.
 http://dx.doi.org/10.1016/j.cpc.2004.12.014


 Frigo, M; Johnson, SG. 
 PROCEEDINGS OF THE IEEE, 93 (2), 216-231 (2005). 
 The design and implementation of FFTW3.
 http://dx.doi.org/10.1109/JPROC.2004.840301


 Kolafa, J. 
 JOURNAL OF COMPUTATIONAL CHEMISTRY, 25 (3), 335-342 (2004). 
 Time-reversible always stable predictor-corrector method for molecular dynamics of polarizable molecules.
 http://dx.doi.org/10.1002/jcc.10385


 VandeVondele, J; Hutter, J. 
 JOURNAL OF CHEMICAL PHYSICS, 118 (10), 4365-4369 (2003). 
 An efficient orbital transformation method for electronic structure
 calculations.
 http://dx.doi.org/10.1063/1.1543154


 Hartwigsen, C; Goedecker, S; Hutter, J. 
 PHYSICAL REVIEW B, 58 (7), 3641-3662 (1998). 
 Relativistic separable dual-space Gaussian pseudopotentials from H to Rn.
 http://dx.doi.org/10.1103/PhysRevB.58.3641


 Lippert, G; Hutter, J; Parrinello, M. 
 MOLECULAR PHYSICS, 92 (3), 477-487 (1997). 
 A hybrid Gaussian and plane wave density functional scheme.
 http://dx.doi.org/10.1080/002689797170220


 Perdew, JP; Burke, K; Ernzerhof, M. 
 PHYSICAL REVIEW LETTERS, 77 (18), 3865-3868 (1996). 
 Generalized gradient approximation made simple.
 http://dx.doi.org/10.1103/PhysRevLett.77.3865


 Goedecker, S; Teter, M; Hutter, J. 
 PHYSICAL REVIEW B, 54 (3), 1703-1710 (1996). 
 Separable dual-space Gaussian pseudopotentials.
 http://dx.doi.org/10.1103/PhysRevB.54.1703


 -------------------------------------------------------------------------------
 -                                                                             -
 -                                T I M I N G                                  -
 -                                                                             -
 -------------------------------------------------------------------------------
 SUBROUTINE                       CALLS  ASD         SELF TIME        TOTAL TIME
                                MAXIMUM       AVERAGE  MAXIMUM  AVERAGE  MAXIMUM
 CP2K                                 1  1.0    0.180    0.188 4371.319 4371.331
 cp_geo_opt                           1  2.0    0.002    0.002 4370.094 4370.107
 geoopt_bfgs                          1  3.0    0.024    0.053 4370.092 4370.106
 cp_eval_at                          29  4.0    0.008    0.016 4360.498 4360.527
 qs_forces                           28  5.0    0.014    0.041 4322.685 4322.702
 qs_energies                         29  6.0    0.063    0.136 4134.008 4134.072
 scf_env_do_scf                      29  7.0    0.007    0.039 3986.104 3986.125
 scf_env_do_scf_inner_loop         1011  8.0    0.050    0.085 3739.909 3739.986
 rebuild_ks_matrix                 1039  9.9    0.004    0.004 1801.792 1802.406
 qs_ks_build_kohn_sham_matrix      1039 10.9    0.209    0.450 1801.789 1802.401
 qs_rho_update_rho                 1040  9.0    0.006    0.009 1739.814 1741.210
 calculate_rho_elec                1040 10.0  968.223 1005.992 1739.808 1741.201
 qs_ks_update_qs_env               1043  9.0    0.010    0.027 1631.177 1631.862
 sum_up_and_integrate               548 11.8    2.266    2.844 1044.714 1044.957
 integrate_v_rspace                 548 12.8  628.471  648.799 1042.447 1043.169
 pw_transfer                      16944 13.3    2.101    2.447  831.699  834.774
 fft_wrap_pw1pw2                  14866 14.4    0.212    0.236  822.742  825.655
 fft_wrap_pw1pw2_600               8514 15.7   60.109   69.717  750.295  753.857
 rs_pw_transfer                    8055 13.0    0.100    0.119  725.497  746.454
 density_rs2pw                     1040 11.0    0.084    0.098  694.979  717.945
 fft3d_ps                         14866 16.4  200.512  231.464  685.217  697.238
 qs_vxc_create                     1039 11.9    0.023    0.046  606.459  609.069
 dbcsr_multiply_generic           14682 13.8    0.861    1.243  531.471  533.180
 qs_scf_new_mos                    1011  9.0    0.009    0.024  514.331  514.883
 qs_scf_loop_do_ot                 1011 10.0    0.046    0.123  514.323  514.874
 mp_waitall_1                   2999765 16.7  441.147  471.318  441.147  471.318
 ot_scf_mini                       1011 11.0    0.064    0.106  468.970  469.477
 mp_waitany                      335452 14.9  423.140  463.839  423.140  463.839
 mp_alltoall_z22v                 14866 18.4  409.326  461.260  409.326  461.260
 xc_vxc_pw_create                   548 12.8   16.216   20.369  432.057  434.710
 multiply_cannon                  14682 14.8    4.432    4.688  390.831  399.871
 rs_pw_transfer_RS2PW_600          1098 12.9   79.611   96.872  334.051  357.309
 xc_rho_set_and_dset_create        1039 13.9    3.564    4.180  335.973  344.956
 potential_pw2rs                    548 13.8    0.251    0.350  308.179  308.917
 x_to_yz                           5801 18.0   30.216   38.615  256.740  269.439
 multiply_cannon_metrocomm3      293640 15.8    0.778    0.815  234.092  259.626
 init_scf_loop                       32  8.0    0.007    0.009  245.863  245.880
 ot_mini                           1011 12.0    0.006    0.006  236.734  237.367
 yz_to_x                           4301 17.1   20.884   26.348  201.569  229.073
 qs_ks_update_qs_env_forces          28  6.0    0.000    0.000  175.852  175.897
 xc_exc_calc                        491 13.0    1.127    1.391  174.379  174.487
 rs_pw_transfer_PW2RS_600           605 15.4   63.981   72.180  163.638  164.443
 prepare_preconditioner              32  9.0    0.000    0.001  147.134  147.244
 qs_ot_get_derivative               520 13.0    0.006    0.006  145.987  146.591
 mp_alltoall_d11v                 12487 15.5  130.827  141.724  130.827  141.724
 make_preconditioner                 32 10.0    0.005    0.015  136.637  136.678
 rs_distribute_matrix              1616 12.0    1.049    3.110  125.326  135.469
 make_full_all                       32 11.0    0.012    0.029  128.628  128.670
 cp_fm_syevd                        564 14.0    0.003    0.006  117.922  124.923
 multiply_cannon_metrocomm1      293640 15.8    0.854    0.910   85.807  122.756
 cp_fm_redistribute_end             564 15.0   64.333  118.796   65.836  120.807
 mp_sum_d                         22632 14.5   89.646  114.379   89.646  114.379
 cp_fm_syevd_base                   564 14.8   48.187  106.942   48.187  106.942
 qs_ot_get_p                       1043 11.9    0.013    0.043  105.140  106.266
 apply_preconditioner_dbcsr         552 14.0    0.001    0.002   88.924   89.437
 apply_all                          552 15.0    0.036    0.056   88.922   89.435
 ot_new_cg_direction                520 13.0    0.007    0.025   88.646   88.701
 -------------------------------------------------------------------------------

 The number of warnings for this run is : 1
 
 -------------------------------------------------------------------------------
  **** **** ******  **  PROGRAM ENDED AT                 2019-05-27 07:51:16.082
 ***** ** ***  *** **   PROGRAM RAN ON            blg8437.int.ets1.calculquebec.
 **    ****   ******    PROGRAM RAN BY                                       rzk
 ***** **    ** ** **   PROGRAM PROCESS ID                                 15013
  **** **  *******  **  PROGRAM STOPPED IN /lustre03/project/6004141/rzk/GaN-car
                                           bene/334-native/07-Hydrogen/01-surfac
                                           e-atoms
