     146
 i =        1, E =     -6089.8118578088
 Ga        -0.0484886879       -0.0334526347       -0.5311170695
  N        -0.0458367688        1.8412489940        0.6224837575
 Ga        -0.0471058959        1.8095885236        2.6514348843
  N        -0.0502325068       -0.0333900406        3.2849566801
 Ga        -0.0507842241       -0.0304823266        5.2748883997
  N        -0.0481890641        1.8438704093        5.8646314458
 Ga        -0.0503087963        1.8439925783        7.8633384299
  N        -0.0533290505       -0.0294838759        8.4651737242
 Ga        -0.0545624876       -0.0265366631       10.4624383807
  N        -0.0517530913        1.8440993079       11.0673257082
 Ga        -0.0541238868        1.8458182431       13.0663396711
  N        -0.0574843096       -0.0307014590       13.6683689628
 Ga        -0.0599438934       -0.0190917138       15.6773067981
  N        -0.0544248068        1.8721621138       16.1841130858
 Ga        -0.0578293154        1.8745672839       18.2245409032
  N        -0.0602209382       -0.0057188187       18.6162427266
 Ga        -1.6684078692        2.7706355919        0.3391728568
  N        -1.6693970752        4.6413738400        0.6234090392
 Ga        -1.6428351775        4.6572856774        2.6537001625
  N        -1.6699412253        2.7716419098        3.2440787512
 Ga        -1.6704599846        2.7738636398        5.2534321851
  N        -1.6706816152        4.6442915668        5.8625201247
 Ga        -1.6713601034        4.6460403488        7.8599898316
  N        -1.6729544840        2.7767870934        8.4695310449
 Ga        -1.6741357872        2.7790542857       10.4662992680
  N        -1.6716526863        4.6550944442       11.0670892845
 Ga        -1.6733482500        4.6561911562       13.0614107225
  N        -1.6815816693        2.7870223287       13.6472588019
 Ga        -1.6881888412        2.7884207724       15.6431062647
  N        -1.6854645602        4.6647676574       16.2741192890
 Ga        -1.6422182469        4.6574433064       18.3060299995
  N        -1.6925171847        2.7849497141       18.6636713120
 Ga        -3.2893819522        5.5772822804        0.3394149046
  N        -3.2816483700        7.4471042114        0.6224622792
 Ga        -3.3110930294        7.4634483813        2.6514180134
  N        -3.2898085038        5.5776033273        3.2436834050
 Ga        -3.2903579361        5.5800155425        5.2529696742
  N        -3.2849467495        7.4503864164        5.8627348284
 Ga        -3.2885356502        7.4532358568        7.8602793074
  N        -3.2925981806        5.5820486145        8.4636719643
 Ga        -3.2929790097        5.5858608067       10.4565139276
  N        -3.2915150251        7.4542901925       11.0694136023
 Ga        -3.2946472748        7.4569946976       13.0646523865
  N        -3.3052573123        5.5807600534       13.6787958763
 Ga        -3.3075536004        5.5803574240       15.6664202880
  N        -3.2865832840        7.4450978309       16.2698777301
 Ga        -3.2815231305        7.5028759415       18.2972260270
  N        -3.3031363533        5.6020386220       18.8631587799
 Ga         3.1968147878       -0.0338088725        0.3390109931
  N         3.1954231065        1.8356333934        0.6221081614
 Ga         3.2233155332        1.8523275638        2.6507970499
  N         3.1954207707       -0.0329896986        3.2439509346
 Ga         3.1946001710       -0.0303660945        5.2531148953
  N         3.1944751328        1.8390842898        5.8637093397
 Ga         3.1927587787        1.8408017770        7.8616166163
  N         3.1924526344       -0.0298874429        8.4682468160
 Ga         3.1916397925       -0.0277874278       10.4638622827
  N         3.1961458670        1.8441021148       11.0669796983
 Ga         3.1931628767        1.8452583773       13.0632979301
  N         3.1878795363       -0.0295649766       13.6660669560
 Ga         3.2013651375       -0.0282911565       15.6697559836
  N         3.1937402482        1.8473485448       16.2407734186
 Ga         3.1804199815        1.8245638800       18.2636751831
  N         3.1790282163       -0.0157850384       18.7556286145
 Ga         1.5767734091        2.7710895101        0.3390902494
  N         1.5829628886        4.6418965656        0.6235114431
 Ga         1.5544676645        4.6574191524        2.6535862715
  N         1.5759598960        2.7716969266        3.2440882089
 Ga         1.5751004589        2.7738008479        5.2534659792
  N         1.5804031291        4.6442765133        5.8624748452
 Ga         1.5770840617        4.6459994731        7.8599871739
  N         1.5726854206        2.7767150073        8.4696318752
 Ga         1.5716283613        2.7791415102       10.4663992472
  N         1.5740271906        4.6548348528       11.0678289723
 Ga         1.5721685329        4.6561738031       13.0626572153
  N         1.5735922502        2.7865936214       13.6471607917
 Ga         1.5779979527        2.7904749112       15.6426922050
  N         1.5821897113        4.6655819509       16.2713693146
 Ga         1.5343659039        4.6571704723       18.3015758163
  N         1.5773404966        2.7845456070       18.6673283747
 Ga        -0.0422869888        5.5774227664       -0.5129946163
  N        -0.0396483546        7.4512214613        0.6235800570
 Ga        -0.0410071720        7.4211401405        2.6537665307
  N        -0.0440099727        5.5774588531        3.2855928805
 Ga        -0.0447039649        5.5798881945        5.2755937749
  N        -0.0420554012        7.4551193139        5.8625742539
 Ga        -0.0440874064        7.4554320143        7.8600157628
  N        -0.0470077404        5.5820527861        8.4621096255
 Ga        -0.0480544481        5.5856237571       10.4576513380
  N        -0.0458696511        7.4540136763       11.0702700477
 Ga        -0.0472609341        7.4549066697       13.0656888183
  N        -0.0509224828        5.5835167662       13.6902112895
 Ga        -0.0515255372        5.6018301428       15.7006152402
  N        -0.0516332309        7.4689213824       16.3100196840
 Ga        -0.0487496657        7.4738926753       18.4202452096
  N        -0.0545061344        5.5931794828       18.7631609982
 Ga         6.4421028883       -0.0332431883        0.3390782690
  N         6.4487942311        1.8362176197        0.6224101182
 Ga         6.4188812980        1.8525732417        2.6508589018
  N         6.4411902484       -0.0329207786        3.2439203269
 Ga         6.4404384818       -0.0303808297        5.2530865118
  N         6.4459008360        1.8391645410        5.8636428568
 Ga         6.4435418861        1.8407660922        7.8616163800
  N         6.4378347665       -0.0299320595        8.4681578664
 Ga         6.4360557240       -0.0281944167       10.4638741755
  N         6.4368016537        1.8440168309       11.0668385427
 Ga         6.4358736207        1.8441099835       13.0632573334
  N         6.4345338438       -0.0299670020       13.6666515331
 Ga         6.4179226072       -0.0283113894       15.6716911809
  N         6.4328021145        1.8476643894       16.2430969773
 Ga         6.4429312123        1.8258684253       18.2657161067
  N         6.4374306575       -0.0146509274       18.7560762869
 Ga         4.8232140147        2.7709074913       -0.5374792263
  N         4.8256391639        4.6460794912        0.6222098726
 Ga         4.8243089994        4.6142759765        2.6510399916
  N         4.8212412319        2.7716916927        3.2853722600
 Ga         4.8205080764        2.7738811887        5.2752625287
  N         4.8232959156        4.6491570710        5.8614802553
 Ga         4.8211441550        4.6495676652        7.8584436398
  N         4.8182449957        2.7763249288        8.4608327628
 Ga         4.8167209033        2.7768410219       10.4559543158
  N         4.8196078733        4.6510762402       11.0583576253
 Ga         4.8174858284        4.6512648111       13.0451958934
  N         4.8149882650        2.7899373371       13.6743040437
 Ga         4.8130279578        2.7848605097       15.6686352374
  N         4.8165536532        4.6627514313       16.3149642963
 Ga         4.8151652221        4.6278246188       18.3111132148
  N         4.8091841897        2.7652448916       18.8199703894
 Ga         3.2038845074        5.5768034889        0.3394413574
  N         3.2012917655        7.4465685324        0.6223284257
 Ga         3.2289030777        7.4632224720        2.6514219876
  N         3.2019338200        5.5775546702        3.2436455653
 Ga         3.2010448165        5.5798934944        5.2529489872
  N         3.2008908735        7.4503824123        5.8625856627
 Ga         3.2001500883        7.4531454909        7.8601482009
  N         3.1984354558        5.5820114501        8.4637663481
 Ga         3.1959908580        5.5855562459       10.4567675317
  N         3.2000681723        7.4540057911       11.0694902081
 Ga         3.1982622810        7.4566167791       13.0649623567
  N         3.2041729888        5.5807168420       13.6772361977
 Ga         3.2017493679        5.5795516308       15.6645599287
  N         3.1868395374        7.4426957001       16.2705265842
 Ga         3.1813132723        7.5026421759       18.2974593776
  N         3.1931576675        5.6011670495       18.8653891382
  H         3.1687119256        5.5954546775       19.8929210743
  H         6.4615071422        5.5950532830       19.8906171152
     146
 i =        2, E =     -6089.8147350198
 Ga        -0.0485694941       -0.0333022822       -0.5324818827
  N        -0.0459053318        1.8413961177        0.6220240218
 Ga        -0.0472110736        1.8096477009        2.6509774937
  N        -0.0502699486       -0.0331833847        3.2851064489
 Ga        -0.0509090361       -0.0303352157        5.2750972703
  N        -0.0482073400        1.8441497104        5.8646312270
 Ga        -0.0503890270        1.8444026489        7.8635821581
  N        -0.0533580157       -0.0295673657        8.4636699043
 Ga        -0.0546344183       -0.0267716516       10.4607227310
  N        -0.0518150683        1.8434407868       11.0668276563
 Ga        -0.0540918334        1.8466608746       13.0656513184
  N        -0.0577900445       -0.0279238892       13.6776950573
 Ga        -0.0609601742       -0.0203684655       15.6908084817
  N        -0.0542645125        1.8777381937       16.1973091435
 Ga        -0.0563377064        1.8751893178       18.2441575231
  N        -0.0591856124       -0.0059989569       18.6298409104
 Ga        -1.6684449825        2.7707587025        0.3399734238
  N        -1.6695456720        4.6415243642        0.6227892954
 Ga        -1.6428448928        4.6575056146        2.6531308207
  N        -1.6699887408        2.7718951849        3.2439532752
 Ga        -1.6706135255        2.7739564241        5.2535373081
  N        -1.6707786093        4.6444529610        5.8624114325
 Ga        -1.6714426535        4.6459525087        7.8600600366
  N        -1.6731870284        2.7768921460        8.4694301620
 Ga        -1.6747145064        2.7788038903       10.4665579739
  N        -1.6708089122        4.6551007028       11.0674721199
 Ga        -1.6704997864        4.6560887616       13.0622518505
  N        -1.6793930719        2.7875268565       13.6505143218
 Ga        -1.6924101814        2.7872719637       15.6478130633
  N        -1.6884029087        4.6662232737       16.2771202314
 Ga        -1.6447141180        4.6574773549       18.3071457080
  N        -1.6889338756        2.7809024026       18.6592405600
 Ga        -3.2894973530        5.5775581476        0.3402933133
  N        -3.2817434758        7.4473354569        0.6220476347
 Ga        -3.3113150485        7.4636404475        2.6509684707
  N        -3.2898245383        5.5777439603        3.2435061053
 Ga        -3.2905008694        5.5800460578        5.2529413399
  N        -3.2848963259        7.4504207654        5.8624198686
 Ga        -3.2883743765        7.4531213461        7.8600498234
  N        -3.2925654449        5.5820905298        8.4641078473
 Ga        -3.2932766165        5.5854361533       10.4576671372
  N        -3.2923003674        7.4546879883       11.0699414555
 Ga        -3.2955562484        7.4593273498       13.0659164334
  N        -3.3021163221        5.5814793741       13.6731219094
 Ga        -3.3049906808        5.5809330837       15.6585041897
  N        -3.2873128210        7.4395204477       16.2693569314
 Ga        -3.2885825322        7.5006045614       18.2952375753
  N        -3.3118634822        5.5933028687       18.8724783564
 Ga         3.1966587849       -0.0336382653        0.3397443365
  N         3.1954222406        1.8358588904        0.6215838885
 Ga         3.2233013264        1.8525672195        2.6504178581
  N         3.1953327777       -0.0328182090        3.2437798725
 Ga         3.1946787429       -0.0301851209        5.2532073559
  N         3.1943689895        1.8392323829        5.8637985450
 Ga         3.1928618064        1.8409805342        7.8619154887
  N         3.1922119753       -0.0297526785        8.4680384408
 Ga         3.1913229509       -0.0272124496       10.4642752384
  N         3.1964456169        1.8445994679       11.0674739241
 Ga         3.1922914459        1.8454408465       13.0652692569
  N         3.1874892324       -0.0305942421       13.6663311807
 Ga         3.1943373260       -0.0280960972       15.6714698386
  N         3.1856865340        1.8456795104       16.2341017263
 Ga         3.2043423710        1.8422032717       18.2802075843
  N         3.1765966136       -0.0244706552       18.7370969008
 Ga         1.5766376423        2.7712261147        0.3398472757
  N         1.5828983382        4.6420318130        0.6229638416
 Ga         1.5543257090        4.6576575737        2.6531283424
  N         1.5758751576        2.7718931227        3.2439236033
 Ga         1.5750972269        2.7739800549        5.2535206944
  N         1.5804606842        4.6444071075        5.8624370344
 Ga         1.5771810839        4.6460127140        7.8600973151
  N         1.5728005999        2.7768573321        8.4694772730
 Ga         1.5720715479        2.7790044899       10.4667148913
  N         1.5731906085        4.6549458414       11.0674672979
 Ga         1.5696402605        4.6565430604       13.0626936899
  N         1.5716696163        2.7873323812       13.6487104698
 Ga         1.5811608094        2.7894605381       15.6450890866
  N         1.5868608275        4.6676402897       16.2684379587
 Ga         1.5402563816        4.6552448424       18.2955142589
  N         1.5742918161        2.7798836234       18.6705949806
 Ga        -0.0423871755        5.5776416727       -0.5140502883
  N        -0.0397709331        7.4514755481        0.6230730394
 Ga        -0.0410681088        7.4211773660        2.6533554017
  N        -0.0441176234        5.5775578791        3.2855883633
 Ga        -0.0446863960        5.5800251976        5.2757259351
  N        -0.0420955460        7.4552035701        5.8627012316
 Ga        -0.0439906296        7.4555455125        7.8605102925
  N        -0.0470414336        5.5818199184        8.4610469158
 Ga        -0.0480573546        5.5855009659       10.4563793553
  N        -0.0458733587        7.4536291113       11.0697446315
 Ga        -0.0469979954        7.4565033400       13.0658462231
  N        -0.0510509673        5.5866476352       13.7014011068
 Ga        -0.0515485839        5.5991790410       15.7145409587
  N        -0.0534778287        7.4809318087       16.3039620457
 Ga        -0.0463567512        7.4766323183       18.4126733022
  N        -0.0526058932        5.5890213842       18.7534722180
 Ga         6.4420456591       -0.0330921681        0.3398469045
  N         6.4485799269        1.8364522155        0.6218876028
 Ga         6.4187845478        1.8527954205        2.6505276539
  N         6.4410988408       -0.0327574856        3.2437795375
 Ga         6.4403197681       -0.0302196236        5.2532012266
  N         6.4458636928        1.8392445490        5.8637777513
 Ga         6.4434479209        1.8408473750        7.8618938919
  N         6.4380400337       -0.0297052926        8.4681415698
 Ga         6.4363565377       -0.0274144791       10.4644810164
  N         6.4366433581        1.8445663633       11.0680003218
 Ga         6.4368803889        1.8441633831       13.0661814794
  N         6.4342554279       -0.0310417655       13.6667147276
 Ga         6.4227897179       -0.0274561557       15.6741540691
  N         6.4403181142        1.8465572702       16.2372230049
 Ga         6.4204301261        1.8448861310       18.2821752635
  N         6.4420940936       -0.0220959315       18.7356807976
 Ga         4.8230642184        2.7711923635       -0.5368035201
  N         4.8255407381        4.6461715608        0.6217622885
 Ga         4.8242447877        4.6144281866        2.6507468222
  N         4.8211659255        2.7718867930        3.2854434753
 Ga         4.8204947858        2.7739785865        5.2755898010
  N         4.8231958576        4.6493330259        5.8618659999
 Ga         4.8210925702        4.6494649924        7.8590726879
  N         4.8182983583        2.7762740015        8.4604795226
 Ga         4.8169383354        2.7762797728       10.4558086260
  N         4.8197044239        4.6498022786       11.0615002952
 Ga         4.8179467460        4.6479258569       13.0510883827
  N         4.8146709020        2.7847100837       13.6766104334
 Ga         4.8125573682        2.7738856031       15.6799077824
  N         4.8172169434        4.6714944380       16.3017034746
 Ga         4.8144849710        4.6071644829       18.2932672188
  N         4.8083126790        2.7772786812       18.7496617542
 Ga         3.2037827213        5.5770480057        0.3402873676
  N         3.2012076839        7.4467759053        0.6219189509
 Ga         3.2289589877        7.4634403743        2.6510260811
  N         3.2018504057        5.5776761867        3.2434671728
 Ga         3.2010227227        5.5799671596        5.2529112619
  N         3.2007186477        7.4503607821        5.8624535688
 Ga         3.1998234399        7.4530161268        7.8601173005
  N         3.1984048923        5.5820371892        8.4643372277
 Ga         3.1963575694        5.5853093640       10.4581701494
  N         3.2007721965        7.4546123512       11.0695418968
 Ga         3.1987436434        7.4590894241       13.0657933527
  N         3.2017299595        5.5815701910       13.6685049778
 Ga         3.1980632373        5.5812643755       15.6536035807
  N         3.1867307447        7.4369775717       16.2694891678
 Ga         3.1924437413        7.5002334851       18.2945380991
  N         3.2011723050        5.5932373735       18.8746970524
  H         3.1664740459        5.5991487380       19.9006034194
  H         6.4615397879        5.6000077469       19.8983307342
     146
 i =        3, E =     -6089.8151365215
 Ga        -0.0486348349       -0.0331882992       -0.5334991317
  N        -0.0459712860        1.8415325679        0.6221882936
 Ga        -0.0472441067        1.8096862393        2.6512028238
  N        -0.0503401354       -0.0330719368        3.2851606514
 Ga        -0.0509237900       -0.0302462534        5.2752130165
  N        -0.0482606900        1.8443303460        5.8642153705
 Ga        -0.0504044707        1.8445108647        7.8632785497
  N        -0.0533377236       -0.0295194707        8.4631959580
 Ga        -0.0546080940       -0.0265678220       10.4602845836
  N        -0.0518425616        1.8432078165       11.0680209373
 Ga        -0.0542990723        1.8470049633       13.0673090566
  N        -0.0578405849       -0.0271936521       13.6785769549
 Ga        -0.0611158834       -0.0199752015       15.6921489730
  N        -0.0541927991        1.8785084776       16.2034547945
 Ga        -0.0556802198        1.8733156743       18.2532678560
  N        -0.0585720811       -0.0084565833       18.6366733562
 Ga        -1.6685208256        2.7708652782        0.3398757724
  N        -1.6695598588        4.6416704856        0.6228612458
 Ga        -1.6427876675        4.6576528799        2.6532947964
  N        -1.6700397747        2.7720248543        3.2436728358
 Ga        -1.6706376111        2.7740705019        5.2533844305
  N        -1.6708759422        4.6444970735        5.8621131618
 Ga        -1.6716739699        4.6460433962        7.8599450381
  N        -1.6732157671        2.7769382345        8.4695365638
 Ga        -1.6746277834        2.7788097863       10.4670369597
  N        -1.6699094497        4.6550271213       11.0682807338
 Ga        -1.6695246102        4.6567506465       13.0633114928
  N        -1.6790808481        2.7881963929       13.6512577903
 Ga        -1.6916520465        2.7874116619       15.6493681452
  N        -1.6890942597        4.6672970814       16.2791232232
 Ga        -1.6456077605        4.6586562110       18.3076121529
  N        -1.6881180046        2.7817490764       18.6618430303
 Ga        -3.2895752697        5.5776704007        0.3402096997
  N        -3.2817866811        7.4474392029        0.6222241834
 Ga        -3.3114114113        7.4638403097        2.6512003960
  N        -3.2898470601        5.5778429757        3.2432215655
 Ga        -3.2905059870        5.5801255242        5.2528001568
  N        -3.2848597763        7.4504265926        5.8621063233
 Ga        -3.2883062446        7.4529735645        7.8599123907
  N        -3.2925951540        5.5821173115        8.4652873805
 Ga        -3.2932464945        5.5853072740       10.4596559076
  N        -3.2928830449        7.4552646883       11.0701064143
 Ga        -3.2961251386        7.4596833820       13.0661602831
  N        -3.3015575481        5.5814238124       13.6712847596
 Ga        -3.3055081209        5.5813241066       15.6558674163
  N        -3.2881719426        7.4391395948       16.2688285081
 Ga        -3.2881633550        7.5003785314       18.2943969708
  N        -3.3076274644        5.5936272742       18.8750666233
 Ga         3.1966034543       -0.0335018372        0.3397146716
  N         3.1954317006        1.8360340870        0.6218242520
 Ga         3.2232958279        1.8526956516        2.6507461488
  N         3.1953554843       -0.0327289028        3.2435517466
 Ga         3.1946554926       -0.0301401951        5.2531052804
  N         3.1943095428        1.8392678550        5.8634369117
 Ga         3.1928625053        1.8409831554        7.8617513577
  N         3.1921342809       -0.0297107809        8.4682813421
 Ga         3.1911872873       -0.0272895243       10.4649712144
  N         3.1961480888        1.8445454757       11.0677940418
 Ga         3.1922123818        1.8455880150       13.0661948736
  N         3.1862552956       -0.0305255308       13.6656509341
 Ga         3.1926925555       -0.0284060995       15.6714512664
  N         3.1843112402        1.8465572745       16.2273740649
 Ga         3.2015517020        1.8411081893       18.2804053572
  N         3.1801199330       -0.0281562811       18.7350602208
 Ga         1.5765787418        2.7713456189        0.3397789234
  N         1.5827792812        4.6421864290        0.6230403536
 Ga         1.5541881188        4.6577951010        2.6532960340
  N         1.5758353961        2.7720422741        3.2436826871
 Ga         1.5750685494        2.7740662874        5.2534162164
  N         1.5804649138        4.6444702705        5.8621394258
 Ga         1.5773813037        4.6460793599        7.8600362772
  N         1.5727909565        2.7768721846        8.4695037569
 Ga         1.5719774714        2.7789763898       10.4671013564
  N         1.5722391594        4.6549634479       11.0676877425
 Ga         1.5686687617        4.6572241277       13.0630186768
  N         1.5712344848        2.7879856008       13.6483284049
 Ga         1.5803417375        2.7889676078       15.6452113827
  N         1.5879232847        4.6685733695       16.2696672357
 Ga         1.5425731454        4.6556313122       18.2951913097
  N         1.5734828106        2.7804166482       18.6759713666
 Ga        -0.0424459852        5.5777773744       -0.5144621818
  N        -0.0398320967        7.4515206662        0.6231337317
 Ga        -0.0411196052        7.4212156184        2.6534866163
  N        -0.0441473923        5.5777006053        3.2855497008
 Ga        -0.0447463337        5.5801258831        5.2757710874
  N        -0.0421280390        7.4553367290        5.8623512040
 Ga        -0.0440472011        7.4557370197        7.8603332459
  N        -0.0470726285        5.5818927764        8.4605950324
 Ga        -0.0481668306        5.5858613538       10.4560375846
  N        -0.0458940378        7.4536024063       11.0714013280
 Ga        -0.0471533477        7.4567953969       13.0685833828
  N        -0.0510379429        5.5869661418       13.7036467911
 Ga        -0.0518630527        5.5979172757       15.7170497244
  N        -0.0537844638        7.4834051019       16.3024369870
 Ga        -0.0454114196        7.4731409483       18.4068812501
  N        -0.0518695459        5.5864353786       18.7460445808
 Ga         6.4419763989       -0.0329592082        0.3398058642
  N         6.4484356635        1.8366225327        0.6221216231
 Ga         6.4186866673        1.8529134918        2.6508443250
  N         6.4409993025       -0.0326816575        3.2435461703
 Ga         6.4402556807       -0.0301759242        5.2530935028
  N         6.4458802759        1.8392976981        5.8633765039
 Ga         6.4434160883        1.8408721014        7.8616867215
  N         6.4380285257       -0.0296375444        8.4683385783
 Ga         6.4363834468       -0.0273654390       10.4651526036
  N         6.4370213494        1.8445669062       11.0684822136
 Ga         6.4371979916        1.8442155027       13.0673263736
  N         6.4350251279       -0.0311110813       13.6660547357
 Ga         6.4237513337       -0.0277436524       15.6742868630
  N         6.4416976943        1.8472066019       16.2305639926
 Ga         6.4228219273        1.8445203285       18.2821205497
  N         6.4401959563       -0.0251849610       18.7321292414
 Ga         4.8229889448        2.7713565483       -0.5370070423
  N         4.8254715646        4.6462222539        0.6220251183
 Ga         4.8241852065        4.6144625795        2.6510806532
  N         4.8211233198        2.7719815686        3.2854785823
 Ga         4.8204480315        2.7740689732        5.2756765680
  N         4.8231972689        4.6494701048        5.8617344571
 Ga         4.8210992254        4.6495576165        7.8592778239
  N         4.8182990982        2.7762199315        8.4610168037
 Ga         4.8170039183        2.7760729931       10.4570103289
  N         4.8198569188        4.6491980128       11.0619004175
 Ga         4.8181242686        4.6469230189       13.0521452469
  N         4.8147745362        2.7833182758       13.6744998130
 Ga         4.8123371399        2.7727922952       15.6788034926
  N         4.8171662629        4.6733515179       16.2961402948
 Ga         4.8150539308        4.6129889976       18.2896739945
  N         4.8087888507        2.7753863725       18.7314294434
 Ga         3.2037209521        5.5771631616        0.3402170314
  N         3.2011280856        7.4468846378        0.6220735662
 Ga         3.2289547889        7.4636164906        2.6512196771
  N         3.2017666246        5.5777787256        3.2432215535
 Ga         3.2009910646        5.5800256683        5.2528142990
  N         3.2006165518        7.4503881118        5.8621600926
 Ga         3.1997398451        7.4528802816        7.8600561413
  N         3.1984500052        5.5820460046        8.4654559426
 Ga         3.1965117245        5.5851772137       10.4601460072
  N         3.2012701443        7.4553181902       11.0693680724
 Ga         3.1992456265        7.4598572741       13.0656741955
  N         3.2012099542        5.5817544321       13.6653239013
 Ga         3.1982978524        5.5821562347       15.6494758850
  N         3.1874344193        7.4366224649       16.2687445757
 Ga         3.1936593660        7.4996328959       18.2935123375
  N         3.1980065968        5.5934049605       18.8759665237
  H         3.1702661550        5.5971435293       19.9014680184
  H         6.4555263562        5.5988533765       19.9003524878
     146
 i =        4, E =     -6089.8154787738
 Ga        -0.0487761165       -0.0328918331       -0.5344324839
  N        -0.0461268291        1.8418241832        0.6220083147
 Ga        -0.0473506065        1.8097713299        2.6510029133
  N        -0.0504691110       -0.0327910473        3.2852063403
 Ga        -0.0510127500       -0.0301754362        5.2754283877
  N        -0.0483673640        1.8446769349        5.8637914871
 Ga        -0.0504480584        1.8448744522        7.8630985144
  N        -0.0533229569       -0.0292116040        8.4622407490
 Ga        -0.0545562519       -0.0261785337       10.4594567199
  N        -0.0519745787        1.8429382500       11.0685948691
 Ga        -0.0545161632        1.8477415252       13.0682197260
  N        -0.0581145680       -0.0251745345       13.6813849883
 Ga        -0.0616130869       -0.0203995121       15.6955096993
  N        -0.0539161698        1.8782703036       16.2165744811
 Ga        -0.0544474413        1.8699368560       18.2736970810
  N        -0.0572298086       -0.0123508073       18.6546631108
 Ga        -1.6686488406        2.7711869379        0.3402051099
  N        -1.6696510234        4.6420045532        0.6226383173
 Ga        -1.6428147723        4.6579881164        2.6530559969
  N        -1.6701073538        2.7723007349        3.2431709898