 DBCSR| Multiplication driver                                               BLAS
 DBCSR| Multrec recursion limit                                              512
 DBCSR| Multiplication stack size                                           1000
 DBCSR| Maximum elements for images                                    UNLIMITED
 DBCSR| Multiplicative factor virtual images                                   1
 DBCSR| Multiplication size stacks                                             3
 DBCSR| Number of 3D layers                                               SINGLE
 DBCSR| Use MPI memory allocation                                              T
 DBCSR| Use RMA algorithm                                                      F
 DBCSR| Use Communication thread                                               T
 DBCSR| Communication thread load                                             87


  **** **** ******  **  PROGRAM STARTED AT               2019-06-25 03:02:09.332
 ***** ** ***  *** **   PROGRAM STARTED ON        blg7113.int.ets1.calculquebec.
 **    ****   ******    PROGRAM STARTED BY                                   rzk
 ***** **    ** ** **   PROGRAM PROCESS ID                                 37651
  **** **  *******  **  PROGRAM STARTED IN /scratch/rzk/rzk/GaN-carbene/443-adat
                                           oms-both-2x2/03-DissMethanol/03-O-GaT
                                           op-H-NTop

 CP2K| version string:                    CP2K version 7.0 (Development Version)
 CP2K| source code revision number:                                    svn:18619
 CP2K| cp2kflags: libint fftw3 libxc parallel mpi3 scalapack mkl                
 CP2K| is freely available from                            https://www.cp2k.org/
 CP2K| Program compiled at                          Sun Apr  7 00:48:11 EDT 2019
 CP2K| Program compiled on                      beluga2.int.ets1.calculquebec.ca
 CP2K| Program compiled for                    Beluga-Linux-x86-64-intel-openmpi
 CP2K| Data directory path    /home/rzk/projects/def-rzk/group/cp2k/cp2k-mcgill/
 CP2K| Input file name                                              start-01.inp
 
 GLOBAL| Force Environment number                                              1
 GLOBAL| Basis set file name                                        BASIS_MOLOPT
 GLOBAL| Potential file name                                      GTH_POTENTIALS
 GLOBAL| MM Potential file name                                     MM_POTENTIAL
 GLOBAL| Coordinate file name                                      __STD_INPUT__
 GLOBAL| Method name                                                        CP2K
 GLOBAL| Project name                                                       TEST
 GLOBAL| Preferred FFT library                                             FFTW3
 GLOBAL| Preferred diagonalization lib.                                       SL
 GLOBAL| Run type                                                        GEO_OPT
 GLOBAL| All-to-all communication in single precision                          F
 GLOBAL| FFTs using library dependent lengths                                  F
 GLOBAL| Global print level                                               MEDIUM
 GLOBAL| MPI I/O enabled                                                       T
 GLOBAL| Total number of message passing processes                            80
 GLOBAL| Number of threads for this process                                    1
 GLOBAL| This output is from process                                           0
 GLOBAL| CPU model name :  Intel(R) Xeon(R) Gold 6148 CPU @ 2.40GHz

 MEMORY| system memory details [Kb]
 MEMORY|                        rank 0           min           max       average
 MEMORY| MemTotal            196614300     196614300     196614300     196614300
 MEMORY| MemFree             162032716     149506444     162032716     155797052
 MEMORY| Buffers                    76            76            76            76
 MEMORY| Cached                1541212       1541212       5035036       3288124
 MEMORY| Slab                  7493784       3560368       7493784       5526916
 MEMORY| SReclaimable          2476840        789948       2476840       1633234
 MEMORY| MemLikelyFree       166050844     155331504     166050844     160718486


 *** Fundamental physical constants (SI units) ***

 *** Literature: B. J. Mohr and B. N. Taylor,
 ***             CODATA recommended values of the fundamental physical
 ***             constants: 2006, Web Version 5.1
 ***             http://physics.nist.gov/constants

 Speed of light in vacuum [m/s]                             2.99792458000000E+08
 Magnetic constant or permeability of vacuum [N/A**2]       1.25663706143592E-06
 Electric constant or permittivity of vacuum [F/m]          8.85418781762039E-12
 Planck constant (h) [J*s]                                  6.62606896000000E-34
 Planck constant (h-bar) [J*s]                              1.05457162825177E-34
 Elementary charge [C]                                      1.60217648700000E-19
 Electron mass [kg]                                         9.10938215000000E-31
 Electron g factor [ ]                                     -2.00231930436220E+00
 Proton mass [kg]                                           1.67262163700000E-27
 Fine-structure constant                                    7.29735253760000E-03
 Rydberg constant [1/m]                                     1.09737315685270E+07
 Avogadro constant [1/mol]                                  6.02214179000000E+23
 Boltzmann constant [J/K]                                   1.38065040000000E-23
 Atomic mass unit [kg]                                      1.66053878200000E-27
 Bohr radius [m]                                            5.29177208590000E-11

 *** Conversion factors ***

 [u] -> [a.u.]                                              1.82288848426455E+03
 [Angstrom] -> [Bohr] = [a.u.]                              1.88972613288564E+00
 [a.u.] = [Bohr] -> [Angstrom]                              5.29177208590000E-01
 [a.u.] -> [s]                                              2.41888432650478E-17
 [a.u.] -> [fs]                                             2.41888432650478E-02
 [a.u.] -> [J]                                              4.35974393937059E-18
 [a.u.] -> [N]                                              8.23872205491840E-08
 [a.u.] -> [K]                                              3.15774647902944E+05
 [a.u.] -> [kJ/mol]                                         2.62549961709828E+03
 [a.u.] -> [kcal/mol]                                       6.27509468713739E+02
 [a.u.] -> [Pa]                                             2.94210107994716E+13
 [a.u.] -> [bar]                                            2.94210107994716E+08
 [a.u.] -> [atm]                                            2.90362800883016E+08
 [a.u.] -> [eV]                                             2.72113838565563E+01
 [a.u.] -> [Hz]                                             6.57968392072181E+15
 [a.u.] -> [1/cm] (wave numbers)                            2.19474631370540E+05
 [a.u./Bohr**2] -> [1/cm]                                   5.14048714338585E+03
 

 CELL_TOP| Volume [angstrom^3]:                                         4586.323
 CELL_TOP| Vector a [angstrom    12.864     0.000     0.000    |a| =      12.864
 CELL_TOP| Vector b [angstrom    -6.432    11.141     0.000    |b| =      12.864
 CELL_TOP| Vector c [angstrom     0.000     0.000    32.000    |c| =      32.000
 CELL_TOP| Angle (b,c), alpha [degree]:                                   90.000
 CELL_TOP| Angle (a,c), beta  [degree]:                                   90.000
 CELL_TOP| Angle (a,b), gamma [degree]:                                  120.000
 CELL_TOP| Numerically orthorhombic:                                          NO
 
 GENERATE|  Preliminary Number of Bonds generated:                             0
 GENERATE|  Achieved consistency in connectivity generation.

 CELL| Volume [angstrom^3]:                                             4586.323
 CELL| Vector a [angstrom]:      12.864     0.000     0.000    |a| =      12.864
 CELL| Vector b [angstrom]:      -6.432    11.141     0.000    |b| =      12.864
 CELL| Vector c [angstrom]:       0.000     0.000    32.000    |c| =      32.000
 CELL| Angle (b,c), alpha [degree]:                                       90.000
 CELL| Angle (a,c), beta  [degree]:                                       90.000
 CELL| Angle (a,b), gamma [degree]:                                      120.000
 CELL| Numerically orthorhombic:                                              NO

 CELL_REF| Volume [angstrom^3]:                                         4670.759
 CELL_REF| Vector a [angstrom    12.982     0.000     0.000    |a| =      12.982
 CELL_REF| Vector b [angstrom    -6.491    11.243     0.000    |b| =      12.982
 CELL_REF| Vector c [angstrom     0.000     0.000    32.000    |c| =      32.000
 CELL_REF| Angle (b,c), alpha [degree]:                                   90.000
 CELL_REF| Angle (a,c), beta  [degree]:                                   90.000
 CELL_REF| Angle (a,b), gamma [degree]:                                  120.000
 CELL_REF| Numerically orthorhombic:                                          NO

 *******************************************************************************
 *******************************************************************************
 **                                                                           **
 **     #####                         ##              ##                      **
 **    ##   ##            ##          ##              ##                      **
 **   ##     ##                       ##            ######                    **
 **   ##     ##  ##   ##  ##   #####  ##  ##   ####   ##    #####    #####    **
 **   ##     ##  ##   ##  ##  ##      ## ##   ##      ##   ##   ##  ##   ##   **
 **   ##  ## ##  ##   ##  ##  ##      ####     ###    ##   ######   ######    **
 **    ##  ###   ##   ##  ##  ##      ## ##      ##   ##   ##       ##        **
 **     #######   #####   ##   #####  ##  ##  ####    ##    #####   ##        **
 **           ##                                                    ##        **
 **                                                                           **
 **                                                ... make the atoms dance   **
 **                                                                           **
 **            Copyright (C) by CP2K developers group (2000 - 2018)           **
 **                                                                           **
 *******************************************************************************

 DFT| Spin unrestricted (spin-polarized) Kohn-Sham calculation               UKS
 DFT| Multiplicity                                                             1
 DFT| Number of spin states                                                    2
 DFT| Charge                                                                   0
 DFT| Self-interaction correction (SIC)                                       NO
 DFT| Cutoffs: density                                              1.000000E-10
 DFT|          gradient                                             1.000000E-10
 DFT|          tau                                                  1.000000E-10
 DFT|          cutoff_smoothing_range                               0.000000E+00
 DFT| XC density smoothing                                                  NONE
 DFT| XC derivatives                                                          PW
 FUNCTIONAL| ROUTINE=NEW
 FUNCTIONAL| PBE:
 FUNCTIONAL| J.P.Perdew, K.Burke, M.Ernzerhof, Phys. Rev. Letter, vol. 77, n 18,
 FUNCTIONAL|  pp. 3865-3868, (1996){spin polarized}                             
 vdW POTENTIAL|                                                   Pair Potential
 vdW POTENTIAL|          DFT-D3 (Version 3.1)
 vdW POTENTIAL|          Potential Form: S. Grimme et al, JCP 132: 154104 (2010)
 vdW POTENTIAL|          Zero Damping
 vdW POTENTIAL|          Cutoff Radius [Bohr]:                             18.90
 vdW POTENTIAL|          s6 Scaling Factor:                               1.0000
 vdW POTENTIAL|          sr6 Scaling Factor:                              1.2170
 vdW POTENTIAL|          s8 Scaling Factor:                               0.7220
 vdW POTENTIAL|          Cutoff for CN calculation:                   0.1000E-05

 QS| Method:                                                                 GPW
 QS| Density plane wave grid type                        NON-SPHERICAL FULLSPACE
 QS| Number of grid levels:                                                    5
 QS| Density cutoff [a.u.]:                                                600.0
 QS| Multi grid cutoff [a.u.]: 1) grid level                               600.0
 QS|                           2) grid level                               200.0
 QS|                           3) grid level                                66.7
 QS|                           4) grid level                                22.2
 QS|                           5) grid level                                 7.4
 QS| Grid level progression factor:                                          3.0
 QS| Relative density cutoff [a.u.]:                                        20.0
 QS| Consistent realspace mapping and integration 
 QS| Interaction thresholds: eps_pgf_orb:                                1.0E-07
 QS|                         eps_filter_matrix:                          0.0E+00
 QS|                         eps_core_charge:                            1.0E-16
 QS|                         eps_rho_gspace:                             1.0E-14
 QS|                         eps_rho_rspace:                             1.0E-14
 QS|                         eps_gvg_rspace:                             1.0E-07
 QS|                         eps_ppl:                                    1.0E-02
 QS|                         eps_ppnl:                                   1.0E-09


 ATOMIC KIND INFORMATION

  1. Atomic kind: N                                     Number of atoms:     100

     Orbital Basis Set                                        DZVP-MOLOPT-SR-GTH

       Number of orbital shell sets:                                           1
       Number of orbital shells:                                               5
       Number of primitive Cartesian functions:                                5
       Number of Cartesian basis functions:                                   14
       Number of spherical basis functions:                                   13
       Norm type:                                                              2

       Normalised Cartesian orbitals:

                        Set   Shell   Orbital            Exponent    Coefficient

                          1       1    2s                7.341988       0.360561
                                                         2.542637       0.139177
                                                         0.888575      -0.289383
                                                         0.333802      -0.182244
                                                         0.112012      -0.019197

                          1       2    3s                7.341988       0.282000
                                                         2.542637       0.177875
                                                         0.888575      -0.278381
                                                         0.333802       0.008577
                                                         0.112012       0.154176

                          1       3    3px               7.341988      -1.188719
                                                         2.542637      -0.973969
                                                         0.888575      -0.501079
                                                         0.333802      -0.144894
                                                         0.112012      -0.013986
                          1       3    3py               7.341988      -1.188719
                                                         2.542637      -0.973969
                                                         0.888575      -0.501079
                                                         0.333802      -0.144894
                                                         0.112012      -0.013986
                          1       3    3pz               7.341988      -1.188719
                                                         2.542637      -0.973969
                                                         0.888575      -0.501079
                                                         0.333802      -0.144894
                                                         0.112012      -0.013986

                          1       4    4px               7.341988      -0.094798
                                                         2.542637       0.050069
                                                         0.888575      -0.114797
                                                         0.333802       0.144793
                                                         0.112012       0.066710
                          1       4    4py               7.341988      -0.094798
                                                         2.542637       0.050069
                                                         0.888575      -0.114797
                                                         0.333802       0.144793
                                                         0.112012       0.066710
                          1       4    4pz               7.341988      -0.094798
                                                         2.542637       0.050069
                                                         0.888575      -0.114797
                                                         0.333802       0.144793
                                                         0.112012       0.066710

                          1       5    4dx2              7.341988       1.354688
                                                         2.542637       0.690378
                                                         0.888575       0.855359
                                                         0.333802       0.091746
                                                         0.112012       0.001253
                          1       5    4dxy              7.341988       2.346389
                                                         2.542637       1.195770
                                                         0.888575       1.481524
                                                         0.333802       0.158910
                                                         0.112012       0.002169
                          1       5    4dxz              7.341988       2.346389
                                                         2.542637       1.195770
                                                         0.888575       1.481524
                                                         0.333802       0.158910
                                                         0.112012       0.002169
                          1       5    4dy2              7.341988       1.354688
                                                         2.542637       0.690378
                                                         0.888575       0.855359
                                                         0.333802       0.091746
                                                         0.112012       0.001253
                          1       5    4dyz              7.341988       2.346389
                                                         2.542637       1.195770
                                                         0.888575       1.481524
                                                         0.333802       0.158910
                                                         0.112012       0.002169
                          1       5    4dz2              7.341988       1.354688
                                                         2.542637       0.690378
                                                         0.888575       0.855359
                                                         0.333802       0.091746
                                                         0.112012       0.001253

     GTH Potential information for                                    GTH-PBE-q5

       Description:                       Goedecker-Teter-Hutter pseudopotential
                                           Goedecker et al., PRB 54, 1703 (1996)
                                          Hartwigsen et al., PRB 58, 3641 (1998)
                                                      Krack, TCA 114, 145 (2005)

       Gaussian exponent of the core charge distribution:               6.208322
       Electronic configuration (s p d ...):                               2   3

       Parameters of the local part of the GTH pseudopotential:

                          rloc        C1          C2          C3          C4
                        0.283791  -12.415226    1.868096

       Parameters of the non-local part of the GTH pseudopotential:

                   l      r(l)      h(i,j,l)

                   0    0.255405   13.630263
                   1    0.245495

  2. Atomic kind: Ga                                    Number of atoms:     100

     Orbital Basis Set                                        DZVP-MOLOPT-SR-GTH

       Number of orbital shell sets:                                           1
       Number of orbital shells:                                               7
       Number of primitive Cartesian functions:                                6
       Number of Cartesian basis functions:                                   30
       Number of spherical basis functions:                                   25
       Norm type:                                                              2

       Normalised Cartesian orbitals:

                        Set   Shell   Orbital            Exponent    Coefficient

                          1       1    2s                7.066654       0.013136
                                                         3.428369      -0.094392
                                                         1.430064       0.265435
                                                         0.571611       0.056465
                                                         0.232197      -0.192187
                                                         0.076562      -0.044987

                          1       2    3s                7.066654      -0.098564
                                                         3.428369       0.010390
                                                         1.430064       0.351249
                                                         0.571611       0.182615
                                                         0.232197      -0.425358
                                                         0.076562       0.190349

                          1       3    3px               7.066654       0.002364
                                                         3.428369       0.019222
                                                         1.430064       0.250132
                                                         0.571611      -0.058486
                                                         0.232197      -0.159451
                                                         0.076562      -0.020696
                          1       3    3py               7.066654       0.002364
                                                         3.428369       0.019222
                                                         1.430064       0.250132
                                                         0.571611      -0.058486
                                                         0.232197      -0.159451
                                                         0.076562      -0.020696
                          1       3    3pz               7.066654       0.002364
                                                         3.428369       0.019222
                                                         1.430064       0.250132
                                                         0.571611      -0.058486
                                                         0.232197      -0.159451
                                                         0.076562      -0.020696

                          1       4    4px               7.066654       0.492448
                                                         3.428369      -0.614736
                                                         1.430064      -0.191654
                                                         0.571611       0.037801
                                                         0.232197       0.302315
                                                         0.076562      -0.071336
                          1       4    4py               7.066654       0.492448
                                                         3.428369      -0.614736
                                                         1.430064      -0.191654
                                                         0.571611       0.037801
                                                         0.232197       0.302315
                                                         0.076562      -0.071336
                          1       4    4pz               7.066654       0.492448
                                                         3.428369      -0.614736
                                                         1.430064      -0.191654
                                                         0.571611       0.037801
                                                         0.232197       0.302315
                                                         0.076562      -0.071336

                          1       5    4dx2              7.066654     -15.264855
                                                         3.428369      -5.345726
                                                         1.430064      -1.022732
                                                         0.571611      -0.123148
                                                         0.232197      -0.006983
                                                         0.076562      -0.000022
                          1       5    4dxy              7.066654     -26.439504
                                                         3.428369      -9.259069
                                                         1.430064      -1.771423
                                                         0.571611      -0.213299
                                                         0.232197      -0.012094
                                                         0.076562      -0.000037
                          1       5    4dxz              7.066654     -26.439504
                                                         3.428369      -9.259069
                                                         1.430064      -1.771423
                                                         0.571611      -0.213299
                                                         0.232197      -0.012094
                                                         0.076562      -0.000037
                          1       5    4dy2              7.066654     -15.264855
                                                         3.428369      -5.345726
                                                         1.430064      -1.022732
                                                         0.571611      -0.123148
                                                         0.232197      -0.006983
                                                         0.076562      -0.000022
                          1       5    4dyz              7.066654     -26.439504
                                                         3.428369      -9.259069
                                                         1.430064      -1.771423
                                                         0.571611      -0.213299
                                                         0.232197      -0.012094
                                                         0.076562      -0.000037
                          1       5    4dz2              7.066654     -15.264855
                                                         3.428369      -5.345726
                                                         1.430064      -1.022732
                                                         0.571611      -0.123148
                                                         0.232197      -0.006983
                                                         0.076562      -0.000022

                          1       6    5dx2              7.066654      -5.739265
                                                         3.428369      -2.129289
                                                         1.430064      -0.700423
                                                         0.571611       0.161606
                                                         0.232197       0.043513
                                                         0.076562       0.011205
                          1       6    5dxy              7.066654      -9.940698
                                                         3.428369      -3.688037
                                                         1.430064      -1.213168
                                                         0.571611       0.279909
                                                         0.232197       0.075368
                                                         0.076562       0.019407
                          1       6    5dxz              7.066654      -9.940698
                                                         3.428369      -3.688037
                                                         1.430064      -1.213168
                                                         0.571611       0.279909
                                                         0.232197       0.075368
                                                         0.076562       0.019407
                          1       6    5dy2              7.066654      -5.739265
                                                         3.428369      -2.129289
                                                         1.430064      -0.700423
                                                         0.571611       0.161606
                                                         0.232197       0.043513
                                                         0.076562       0.011205
                          1       6    5dyz              7.066654      -9.940698
                                                         3.428369      -3.688037
                                                         1.430064      -1.213168
                                                         0.571611       0.279909
                                                         0.232197       0.075368
                                                         0.076562       0.019407
                          1       6    5dz2              7.066654      -5.739265
                                                         3.428369      -2.129289
                                                         1.430064      -0.700423
                                                         0.571611       0.161606
                                                         0.232197       0.043513
                                                         0.076562       0.011205

                          1       7    5fx3              7.066654       0.705879
                                                         3.428369      -0.273976
                                                         1.430064       0.113667
                                                         0.571611       0.132480
                                                         0.232197       0.012437
                                                         0.076562       0.003241
                          1       7    5fx2y             7.066654       1.578393
                                                         3.428369      -0.612629
                                                         1.430064       0.254167
                                                         0.571611       0.296234
                                                         0.232197       0.027811
                                                         0.076562       0.007246
                          1       7    5fx2z             7.066654       1.578393
                                                         3.428369      -0.612629
                                                         1.430064       0.254167
                                                         0.571611       0.296234
                                                         0.232197       0.027811
                                                         0.076562       0.007246
                          1       7    5fxy2             7.066654       1.578393
                                                         3.428369      -0.612629
                                                         1.430064       0.254167
                                                         0.571611       0.296234
                                                         0.232197       0.027811
                                                         0.076562       0.007246
                          1       7    5fxyz             7.066654       2.733856
                                                         3.428369      -1.061105
                                                         1.430064       0.440230
                                                         0.571611       0.513092
                                                         0.232197       0.048170
                                                         0.076562       0.012551
                          1       7    5fxz2             7.066654       1.578393
                                                         3.428369      -0.612629
                                                         1.430064       0.254167
                                                         0.571611       0.296234
                                                         0.232197       0.027811
                                                         0.076562       0.007246
                          1       7    5fy3              7.066654       0.705879
                                                         3.428369      -0.273976
                                                         1.430064       0.113667
                                                         0.571611       0.132480
                                                         0.232197       0.012437
                                                         0.076562       0.003241
                          1       7    5fy2z             7.066654       1.578393
                                                         3.428369      -0.612629
                                                         1.430064       0.254167
                                                         0.571611       0.296234
                                                         0.232197       0.027811
                                                         0.076562       0.007246
                          1       7    5fyz2             7.066654       1.578393
                                                         3.428369      -0.612629
                                                         1.430064       0.254167
                                                         0.571611       0.296234
                                                         0.232197       0.027811
                                                         0.076562       0.007246
                          1       7    5fz3              7.066654       0.705879
                                                         3.428369      -0.273976
                                                         1.430064       0.113667
                                                         0.571611       0.132480
                                                         0.232197       0.012437
                                                         0.076562       0.003241

     GTH Potential information for                                   GTH-PBE-q13

       Description:                       Goedecker-Teter-Hutter pseudopotential
                                           Goedecker et al., PRB 54, 1703 (1996)
                                          Hartwigsen et al., PRB 58, 3641 (1998)
                                                      Krack, TCA 114, 145 (2005)

       Gaussian exponent of the core charge distribution:               2.082466
       Electronic configuration (s p d ...):                           2   1  10

       Parameters of the local part of the GTH pseudopotential:

                          rloc        C1          C2          C3          C4
                        0.490000

       Parameters of the non-local part of the GTH pseudopotential:

                   l      r(l)      h(i,j,l)

                   0    0.416777   10.475690   -4.921768    0.870706
                                   -4.921768    7.770178   -2.248152
                                    0.870706   -2.248152    1.784415
                   1    0.569627    1.777985    0.195860
                                    0.195860   -0.231744
                   2    0.238126  -16.248680

  3. Atomic kind: O                                     Number of atoms:       1

     Orbital Basis Set                                     DZVP-MOLOPT-SR-GTH-q6

       Number of orbital shell sets:                                           1
       Number of orbital shells:                                               5
       Number of primitive Cartesian functions:                                5
       Number of Cartesian basis functions:                                   14
       Number of spherical basis functions:                                   13
       Norm type:                                                              2

       Normalised Cartesian orbitals:

                        Set   Shell   Orbital            Exponent    Coefficient

                          1       1    2s               10.389228       0.396646
                                                         3.849621       0.208811
                                                         1.388401      -0.301641
                                                         0.496955      -0.274061
                                                         0.162492      -0.033677

                          1       2    3s               10.389228       0.303673
                                                         3.849621       0.240943
                                                         1.388401      -0.313066
                                                         0.496955      -0.043055
                                                         0.162492       0.213991

                          1       3    3px              10.389228      -1.530415
                                                         3.849621      -1.371928
                                                         1.388401      -0.761951
                                                         0.496955      -0.253695
                                                         0.162492      -0.035541
                          1       3    3py              10.389228      -1.530415
                                                         3.849621      -1.371928
                                                         1.388401      -0.761951
                                                         0.496955      -0.253695
                                                         0.162492      -0.035541
                          1       3    3pz              10.389228      -1.530415
                                                         3.849621      -1.371928
                                                         1.388401      -0.761951
                                                         0.496955      -0.253695
                                                         0.162492      -0.035541

                          1       4    4px              10.389228      -0.565392
                                                         3.849621      -0.038231
                                                         1.388401      -0.382373
                                                         0.496955       0.179070
                                                         0.162492       0.122714
                          1       4    4py              10.389228      -0.565392
                                                         3.849621      -0.038231
                                                         1.388401      -0.382373
                                                         0.496955       0.179070
                                                         0.162492       0.122714
                          1       4    4pz              10.389228      -0.565392
                                                         3.849621      -0.038231
                                                         1.388401      -0.382373
                                                         0.496955       0.179070
                                                         0.162492       0.122714

                          1       5    4dx2             10.389228       1.867377
                                                         3.849621       0.670994
                                                         1.388401       1.353441
                                                         0.496955       0.273538
                                                         0.162492       0.006620
                          1       5    4dxy             10.389228       3.234392
                                                         3.849621       1.162195
                                                         1.388401       2.344229
                                                         0.496955       0.473781
                                                         0.162492       0.011466
                          1       5    4dxz             10.389228       3.234392
                                                         3.849621       1.162195
                                                         1.388401       2.344229
                                                         0.496955       0.473781
                                                         0.162492       0.011466
                          1       5    4dy2             10.389228       1.867377
                                                         3.849621       0.670994
                                                         1.388401       1.353441
                                                         0.496955       0.273538
                                                         0.162492       0.006620
                          1       5    4dyz             10.389228       3.234392
                                                         3.849621       1.162195
                                                         1.388401       2.344229
                                                         0.496955       0.473781
                                                         0.162492       0.011466
                          1       5    4dz2             10.389228       1.867377
                                                         3.849621       0.670994
                                                         1.388401       1.353441
                                                         0.496955       0.273538
                                                         0.162492       0.006620

     GTH Potential information for                                    GTH-PBE-q6

       Description:                       Goedecker-Teter-Hutter pseudopotential
                                           Goedecker et al., PRB 54, 1703 (1996)
                                          Hartwigsen et al., PRB 58, 3641 (1998)
                                                      Krack, TCA 114, 145 (2005)

       Gaussian exponent of the core charge distribution:               8.360253
       Electronic configuration (s p d ...):                               2   4

       Parameters of the local part of the GTH pseudopotential:

                          rloc        C1          C2          C3          C4
                        0.244554  -16.667215    2.487311

       Parameters of the non-local part of the GTH pseudopotential:

                   l      r(l)      h(i,j,l)

                   0    0.220956   18.337458
                   1    0.211332

  4. Atomic kind: H                                     Number of atoms:       4

     Orbital Basis Set                                     DZVP-MOLOPT-SR-GTH-q1

       Number of orbital shell sets:                                           1
       Number of orbital shells:                                               3
       Number of primitive Cartesian functions:                                5
       Number of Cartesian basis functions:                                    5
       Number of spherical basis functions:                                    5
       Norm type:                                                              2

       Normalised Cartesian orbitals:

                        Set   Shell   Orbital            Exponent    Coefficient

                          1       1    2s               10.068468      -0.133023
                                                         2.680223      -0.177618
                                                         0.791502      -0.258419
                                                         0.239116      -0.107525
                                                         0.082193      -0.014019

                          1       2    3s               10.068468       0.344673
                                                         2.680223       1.819821
                                                         0.791502      -0.999069
                                                         0.239116       0.017430
                                                         0.082193       0.082660

                          1       3    3px              10.068468       0.155326
                                                         2.680223       0.367157
                                                         0.791502       0.311480
                                                         0.239116       0.080105
                                                         0.082193       0.033440
                          1       3    3py              10.068468       0.155326
                                                         2.680223       0.367157
                                                         0.791502       0.311480
                                                         0.239116       0.080105
                                                         0.082193       0.033440
                          1       3    3pz              10.068468       0.155326
                                                         2.680223       0.367157
                                                         0.791502       0.311480
                                                         0.239116       0.080105
                                                         0.082193       0.033440

     GTH Potential information for                                    GTH-PBE-q1

       Description:                       Goedecker-Teter-Hutter pseudopotential
                                           Goedecker et al., PRB 54, 1703 (1996)
                                          Hartwigsen et al., PRB 58, 3641 (1998)
                                                      Krack, TCA 114, 145 (2005)

       Gaussian exponent of the core charge distribution:              12.500000
       Electronic configuration (s p d ...):                                   1

       Parameters of the local part of the GTH pseudopotential:

                          rloc        C1          C2          C3          C4
                        0.200000   -4.178900    0.724463

  5. Atomic kind: C                                     Number of atoms:       1

     Orbital Basis Set                                     DZVP-MOLOPT-SR-GTH-q4

       Number of orbital shell sets:                                           1
       Number of orbital shells:                                               5
       Number of primitive Cartesian functions:                                5
       Number of Cartesian basis functions:                                   14
       Number of spherical basis functions:                                   13
       Norm type:                                                              2

       Normalised Cartesian orbitals:

                        Set   Shell   Orbital            Exponent    Coefficient

                          1       1    2s                5.605331       0.322515
                                                         2.113016       0.213043
                                                         0.769911      -0.209686
                                                         0.348157      -0.219794
                                                         0.128212      -0.022789

                          1       2    3s                5.605331       0.552234
                                                         2.113016       0.082072
                                                         0.769911       0.007843
                                                         0.348157       0.136893
                                                         0.128212       0.074283

                          1       3    3px               5.605331      -0.703879
                                                         2.113016      -0.642521
                                                         0.769911      -0.374851
                                                         0.348157      -0.139743
                                                         0.128212      -0.027849
                          1       3    3py               5.605331      -0.703879
                                                         2.113016      -0.642521
                                                         0.769911      -0.374851
                                                         0.348157      -0.139743
                                                         0.128212      -0.027849
                          1       3    3pz               5.605331      -0.703879
                                                         2.113016      -0.642521
                                                         0.769911      -0.374851
                                                         0.348157      -0.139743
                                                         0.128212      -0.027849

                          1       4    4px               5.605331      -0.480376
                                                         2.113016      -0.552894
                                                         0.769911      -0.316145
                                                         0.348157       0.210505
                                                         0.128212       0.076095
                          1       4    4py               5.605331      -0.480376
                                                         2.113016      -0.552894
                                                         0.769911      -0.316145
                                                         0.348157       0.210505
                                                         0.128212       0.076095
                          1       4    4pz               5.605331      -0.480376
                                                         2.113016      -0.552894
                                                         0.769911      -0.316145
                                                         0.348157       0.210505
                                                         0.128212       0.076095

                          1       5    4dx2              5.605331       0.640026
                                                         2.113016       0.274300
                                                         0.769911       0.446711
                                                         0.348157       0.028674
                                                         0.128212       0.029790
                          1       5    4dxy              5.605331       1.108557
                                                         2.113016       0.475102
                                                         0.769911       0.773726
                                                         0.348157       0.049666
                                                         0.128212       0.051599
                          1       5    4dxz              5.605331       1.108557
                                                         2.113016       0.475102
                                                         0.769911       0.773726
                                                         0.348157       0.049666
                                                         0.128212       0.051599
                          1       5    4dy2              5.605331       0.640026
                                                         2.113016       0.274300
                                                         0.769911       0.446711
                                                         0.348157       0.028674
                                                         0.128212       0.029790
                          1       5    4dyz              5.605331       1.108557
                                                         2.113016       0.475102
                                                         0.769911       0.773726
                                                         0.348157       0.049666
                                                         0.128212       0.051599
                          1       5    4dz2              5.605331       0.640026
                                                         2.113016       0.274300
                                                         0.769911       0.446711
                                                         0.348157       0.028674
                                                         0.128212       0.029790

     GTH Potential information for                                    GTH-PBE-q4

       Description:                       Goedecker-Teter-Hutter pseudopotential
                                           Goedecker et al., PRB 54, 1703 (1996)
                                          Hartwigsen et al., PRB 58, 3641 (1998)
                                                      Krack, TCA 114, 145 (2005)

       Gaussian exponent of the core charge distribution:               4.364419
       Electronic configuration (s p d ...):                               2   2

       Parameters of the local part of the GTH pseudopotential:

                          rloc        C1          C2          C3          C4
                        0.338471   -8.803674    1.339211

       Parameters of the non-local part of the GTH pseudopotential:

                   l      r(l)      h(i,j,l)

                   0    0.302576    9.622487
                   1    0.291507


 MOLECULE KIND INFORMATION


 All atoms are their own molecule, skipping detailed information


 TOTAL NUMBERS AND MAXIMUM NUMBERS

  Total number of            - Atomic kinds:                                   5
                             - Atoms:                                        206
                             - Shell sets:                                   206
                             - Shells:                                      1222
                             - Primitive Cartesian functions:               1130
                             - Cartesian basis functions:                   4448
                             - Spherical basis functions:                   3846

  Maximum angular momentum of- Orbital basis functions:                        3
                             - Local part of the GTH pseudopotential:          2
                             - Non-local part of the GTH pseudopotential:      4


 MODULE QUICKSTEP:  ATOMIC COORDINATES IN angstrom

  Atom  Kind  Element       X           Y           Z          Z(eff)       Mass

       1     1 N    7   -0.096566    2.023835    2.525583      5.00      14.0067
       2     2 Ga  31   -0.021032    0.052071    2.876415     13.00      69.7230
       3     1 N    7   -0.003567    0.056055    5.027786      5.00      14.0067
       4     2 Ga  31    0.028624    1.879053    5.820042     13.00      69.7230
       5     1 N    7    0.009554    1.896527    7.807801      5.00      14.0067
       6     2 Ga  31    0.001994    0.050825    8.451985     13.00      69.7230
       7     1 N    7   -0.000791    0.051479   10.422210      5.00      14.0067
       8     2 Ga  31    0.000123    1.892616   11.069089     13.00      69.7230
       9     1 N    7    0.000468    1.871847   13.063776      5.00      14.0067
      10     2 Ga  31    0.001640    0.048686   13.867168     13.00      69.7230
      11     1 N    7    0.000318    0.048572   16.068724      5.00      14.0067
      12     2 Ga  31    0.002124    2.076156   16.470039     13.00      69.7230
      13     2 Ga  31   -0.846185    3.288902    1.203482     13.00      69.7230
      14     1 N    7   -1.556439    4.553830    2.505742      5.00      14.0067
      15     2 Ga  31   -1.713695    2.770330    3.493242     13.00      69.7230
      16     1 N    7   -1.619348    2.831997    5.382401      5.00      14.0067
      17     2 Ga  31   -1.619871    4.734205    5.819410     13.00      69.7230
      18     1 N    7   -1.613856    4.708953    7.806961      5.00      14.0067
      19     2 Ga  31   -1.596766    2.844131    8.434007     13.00      69.7230
      20     1 N    7   -1.596915    2.843546   10.428370      5.00      14.0067
      21     2 Ga  31   -1.622093    4.702120   11.068745     13.00      69.7230
      22     1 N    7   -1.640414    4.713509   13.063253      5.00      14.0067
      23     2 Ga  31   -1.596577    2.844192   13.619771     13.00      69.7230
      24     1 N    7   -1.618429    2.829729   15.587267      5.00      14.0067
      25     2 Ga  31   -1.465531    4.612281   16.469236     13.00      69.7230
      26     1 N    7   -0.006533    3.765198   17.600241      5.00      14.0067
      27     1 N    7   -3.223992    7.590767    2.523539      5.00      14.0067
      28     2 Ga  31   -3.233589    5.608281    2.866802     13.00      69.7230
      29     1 N    7   -3.212607    5.616418    5.020931      5.00      14.0067
      30     2 Ga  31   -3.215795    7.450172    5.795792     13.00      69.7230
      31     1 N    7   -3.217791    7.466419    7.791968      5.00      14.0067
      32     2 Ga  31   -3.215857    5.624930    8.451539     13.00      69.7230
      33     1 N    7   -3.217000    5.622529   10.422083      5.00      14.0067
      34     2 Ga  31   -3.214897    7.464228   11.068276     13.00      69.7230
      35     1 N    7   -3.215526    7.443172   13.061012      5.00      14.0067
      36     2 Ga  31   -3.218925    5.624360   13.870163     13.00      69.7230
      37     1 N    7   -3.218565    5.624015   16.068552      5.00      14.0067
      38     2 Ga  31   -3.216751    7.670504   16.489129     13.00      69.7230
      39     2 Ga  31   -3.229120    9.328935    1.476389     13.00      69.7230
      40     1 N    7   -4.733149   10.204064    2.522493      5.00      14.0067
      41     2 Ga  31   -4.923185    8.352296    3.290878     13.00      69.7230
      42     1 N    7   -4.824713    8.407545    5.254100      5.00      14.0067
      43     2 Ga  31   -4.848453   10.279092    5.798166     13.00      69.7230
      44     1 N    7   -4.835667   10.269544    7.793584      5.00      14.0067
      45     2 Ga  31   -4.812286    8.414321    8.438295     13.00      69.7230
      46     1 N    7   -4.812681    8.414763   10.429602      5.00      14.0067
      47     2 Ga  31   -4.837277   10.273669   11.068722     13.00      69.7230
      48     1 N    7   -4.854245   10.282465   13.061207      5.00      14.0067
      49     2 Ga  31   -4.813499    8.413646   13.622462     13.00      69.7230
      50     1 N    7   -4.839293    8.400328   15.582830      5.00      14.0067
      51     2 Ga  31   -4.655492   10.169407   16.489650     13.00      69.7230
      52     1 N    7   -3.216751    9.332935   17.630203      5.00      14.0067
      53     1 N    7    3.184272    1.918264    2.581684      5.00      14.0067
      54     2 Ga  31    3.196996    0.173346    3.268475     13.00      69.7230
      55     1 N    7    3.210533    0.057175    5.234942      5.00      14.0067
      56     2 Ga  31    3.192048    1.921046    5.839438     13.00      69.7230
      57     1 N    7    3.207672    1.912141    7.823298      5.00      14.0067
      58     2 Ga  31    3.214675    0.044798    8.425034     13.00      69.7230
      59     1 N    7    3.215241    0.040905   10.421112      5.00      14.0067
      60     2 Ga  31    3.215333    1.907465   11.025918     13.00      69.7230
      61     1 N    7    3.215102    1.909030   12.996965      5.00      14.0067
      62     2 Ga  31    3.217261    0.038384   13.621721     13.00      69.7230
      63     1 N    7    3.216200    0.071515   15.580003      5.00      14.0067
      64     2 Ga  31    3.216546    1.907847   15.862707     13.00      69.7230
      65     1 N    7    1.643554    4.713392    2.536037      5.00      14.0067
      66     2 Ga  31    1.628777    2.805702    3.155034     13.00      69.7230
      67     1 N    7    1.593410    2.847330    5.167630      5.00      14.0067
      68     2 Ga  31    1.620469    4.701516    5.777265     13.00      69.7230
      69     1 N    7    1.614919    4.698577    7.778140      5.00      14.0067
      70     2 Ga  31    1.603029    2.846462    8.440591     13.00      69.7230
      71     1 N    7    1.598142    2.845927   10.430430      5.00      14.0067
      72     2 Ga  31    1.625137    4.703766   11.071186     13.00      69.7230
      73     1 N    7    1.641570    4.713638   13.063750      5.00      14.0067
      74     2 Ga  31    1.597073    2.844483   13.619331     13.00      69.7230
      75     1 N    7    1.621576    2.831378   15.584777      5.00      14.0067
      76     2 Ga  31    1.461494    4.607721   16.469722     13.00      69.7230
      77     1 N    7   -0.007921    7.451402    2.588802      5.00      14.0067
      78     2 Ga  31   -0.011567    5.659192    3.149091     13.00      69.7230
      79     1 N    7    0.000267    5.603178    5.162618      5.00      14.0067
      80     2 Ga  31   -0.001778    7.451634    5.837268     13.00      69.7230
      81     1 N    7   -0.001174    7.470000    7.821915      5.00      14.0067
      82     2 Ga  31    0.005120    5.614081    8.440645     13.00      69.7230
      83     1 N    7    0.002652    5.609722   10.430545      5.00      14.0067
      84     2 Ga  31   -0.001795    7.479942   11.024766     13.00      69.7230
      85     1 N    7    0.000193    7.478269   12.996337      5.00      14.0067
      86     2 Ga  31    0.000481    5.608959   13.620175     13.00      69.7230
      87     1 N    7    0.002703    5.636007   15.586587      5.00      14.0067
      88     2 Ga  31   -0.001004    7.479591   15.861221     13.00      69.7230
      89     1 N    7   -1.727542   10.196973    2.519234      5.00      14.0067
      90     2 Ga  31   -1.513997    8.333052    3.270059     13.00      69.7230
      91     1 N    7   -1.606983    8.400821    5.235980      5.00      14.0067
      92     2 Ga  31   -1.589514   10.275545    5.784992     13.00      69.7230
      93     1 N    7   -1.602497   10.267955    7.784212      5.00      14.0067
      94     2 Ga  31   -1.614879    8.409651    8.423438     13.00      69.7230
      95     1 N    7   -1.618328    8.413052   10.419952      5.00      14.0067
      96     2 Ga  31   -1.595309   10.272088   11.063557     13.00      69.7230
      97     1 N    7   -1.576709   10.282532   13.057540      5.00      14.0067
      98     2 Ga  31   -1.619232    8.415251   13.622896     13.00      69.7230
      99     1 N    7   -1.591908    8.399608   15.582945      5.00      14.0067
     100     2 Ga  31   -1.774713   10.171140   16.489191     13.00      69.7230
     101     1 N    7    6.424189    2.029329    2.519856      5.00      14.0067
     102     2 Ga  31    6.421575    0.046067    2.841287     13.00      69.7230
     103     1 N    7    6.426874    0.048670    5.011289      5.00      14.0067
     104     2 Ga  31    6.420237    1.874744    5.793667     13.00      69.7230
     105     1 N    7    6.427896    1.896474    7.792532      5.00      14.0067
     106     2 Ga  31    6.427293    0.048861    8.439002     13.00      69.7230
     107     1 N    7    6.430734    0.051200   10.413519      5.00      14.0067
     108     2 Ga  31    6.427151    1.888540   11.072030     13.00      69.7230
     109     1 N    7    6.431131    1.870364   13.063434      5.00      14.0067
     110     2 Ga  31    6.429247    0.051129   13.873899     13.00      69.7230
     111     1 N    7    6.431720    0.051527   16.067771      5.00      14.0067
     112     2 Ga  31    6.431620    2.096115   16.484349     13.00      69.7230
     113     2 Ga  31    6.424532    3.773981    1.479643     13.00      69.7230
     114     1 N    7    4.950178    4.636868    2.554892      5.00      14.0067
     115     2 Ga  31    4.702841    2.781020    3.274563     13.00      69.7230
     116     1 N    7    4.814656    2.836159    5.240075      5.00      14.0067
     117     2 Ga  31    4.814891    4.700891    5.817511     13.00      69.7230
     118     1 N    7    4.817870    4.696830    7.805020      5.00      14.0067
     119     2 Ga  31    4.826198    2.836116    8.431725     13.00      69.7230
     120     1 N    7    4.832376    2.841066   10.425710      5.00      14.0067
     121     2 Ga  31    4.807481    4.700903   11.066485     13.00      69.7230
     122     1 N    7    4.792543    4.712436   13.059102      5.00      14.0067
     123     2 Ga  31    4.835547    2.844471   13.621519     13.00      69.7230
     124     1 N    7    4.804274    2.828722   15.581118      5.00      14.0067
     125     2 Ga  31    4.991040    4.598234   16.485896     13.00      69.7230
     126     1 N    7    6.431234    3.761713   17.616049      5.00      14.0067
     127     1 N    7    3.229954    7.617933    2.557108      5.00      14.0067
     128     2 Ga  31    3.310710    5.677192    2.998812     13.00      69.7230
     129     1 N    7    3.236432    5.634565    5.064398      5.00      14.0067
     130     2 Ga  31    3.217921    7.467822    5.818592     13.00      69.7230
     131     1 N    7    3.215523    7.472665    7.805724      5.00      14.0067
     132     2 Ga  31    3.213231    5.621099    8.438474     13.00      69.7230
     133     1 N    7    3.215065    5.622318   10.412782      5.00      14.0067
     134     2 Ga  31    3.213720    7.462045   11.066468     13.00      69.7230
     135     1 N    7    3.215940    7.441875   13.060075      5.00      14.0067
     136     2 Ga  31    3.219748    5.623165   13.867190     13.00      69.7230
     137     1 N    7    3.218982    5.623887   16.068069      5.00      14.0067
     138     2 Ga  31    3.218068    7.666838   16.482641     13.00      69.7230
     139     2 Ga  31    3.219740    9.325335    1.483883     13.00      69.7230
     140     1 N    7    1.708961   10.198438    2.520978      5.00      14.0067
     141     2 Ga  31    1.499797    8.332774    3.277624     13.00      69.7230
     142     1 N    7    1.603100    8.400303    5.242292      5.00      14.0067
     143     2 Ga  31    1.572730   10.271659    5.794787     13.00      69.7230
     144     1 N    7    1.595426   10.267164    7.793048      5.00      14.0067
     145     2 Ga  31    1.607880    8.410041    8.431136     13.00      69.7230
     146     1 N    7    1.615561    8.413272   10.425569      5.00      14.0067
     147     2 Ga  31    1.587942   10.270537   11.071938     13.00      69.7230
     148     1 N    7    1.573624   10.282997   13.064077      5.00      14.0067
     149     2 Ga  31    1.620157    8.414156   13.621847     13.00      69.7230
     150     1 N    7    1.592085    8.395564   15.583753      5.00      14.0067
     151     2 Ga  31    1.766061   10.175358   16.480893     13.00      69.7230
     152     1 N    7    3.209294    9.336489   17.611647      5.00      14.0067
     153     1 N    7    9.688902    1.933083    2.642554      5.00      14.0067
     154     2 Ga  31    9.641288    0.161529    3.286254     13.00      69.7230
     155     1 N    7    9.640858    0.054658    5.253078      5.00      14.0067
     156     2 Ga  31    9.617860    1.891788    5.925336     13.00      69.7230
     157     1 N    7    9.637946    1.902733    7.881948      5.00      14.0067
     158     2 Ga  31    9.641866    0.032069    8.453843     13.00      69.7230
     159     1 N    7    9.645722    0.035053   10.440540      5.00      14.0067
     160     2 Ga  31    9.647573    1.908599   11.025734     13.00      69.7230
     161     1 N    7    9.649209    1.908684   12.997154      5.00      14.0067
     162     2 Ga  31    9.647818    0.038219   13.620991     13.00      69.7230
     163     1 N    7    9.651755    0.072934   15.581344      5.00      14.0067
     164     2 Ga  31    9.649097    1.909737   15.863647     13.00      69.7230
     165     1 N    7    7.932842    4.625138    2.529452      5.00      14.0067
     166     2 Ga  31    8.130579    2.776888    3.285530     13.00      69.7230
     167     1 N    7    8.038337    2.829349    5.252361      5.00      14.0067
     168     2 Ga  31    8.070715    4.702324    5.809367     13.00      69.7230
     169     1 N    7    8.052767    4.695646    7.803417      5.00      14.0067
     170     2 Ga  31    8.019908    2.841905    8.452850     13.00      69.7230
     171     1 N    7    8.024020    2.843369   10.439586      5.00      14.0067
     172     2 Ga  31    8.054074    4.703266   11.074344     13.00      69.7230
     173     1 N    7    8.072142    4.712975   13.063798      5.00      14.0067
     174     2 Ga  31    8.028666    2.843667   13.621915     13.00      69.7230
     175     1 N    7    8.059685    2.828613   15.581565      5.00      14.0067
     176     2 Ga  31    7.872704    4.598202   16.484620     13.00      69.7230
     177     1 N    7    6.428695    7.477761    2.627654      5.00      14.0067
     178     2 Ga  31    6.452039    5.733139    3.302934     13.00      69.7230
     179     1 N    7    6.441523    5.623848    5.266203      5.00      14.0067
     180     2 Ga  31    6.435475    7.481115    5.886499     13.00      69.7230
     181     1 N    7    6.432155    7.479542    7.857300      5.00      14.0067
     182     2 Ga  31    6.434799    5.611043    8.444066     13.00      69.7230
     183     1 N    7    6.431996    5.609303   10.433422      5.00      14.0067
     184     2 Ga  31    6.432461    7.479858   11.026728     13.00      69.7230
     185     1 N    7    6.431599    7.479145   12.995700      5.00      14.0067
     186     2 Ga  31    6.432087    5.610069   13.621893     13.00      69.7230
     187     1 N    7    6.432292    5.642481   15.580902      5.00      14.0067
     188     2 Ga  31    6.434272    7.479635   15.861038     13.00      69.7230
     189     1 N    7    4.711741   10.207490    2.530756      5.00      14.0067
     190     2 Ga  31    4.930590    8.370914    3.304320     13.00      69.7230
     191     1 N    7    4.830082    8.415342    5.267199      5.00      14.0067
     192     2 Ga  31    4.846070   10.286377    5.812460     13.00      69.7230
     193     1 N    7    4.831154   10.274405    7.805592      5.00      14.0067
     194     2 Ga  31    4.815261    8.415649    8.444958     13.00      69.7230
     195     1 N    7    4.812430    8.414714   10.433984      5.00      14.0067
     196     2 Ga  31    4.839224   10.272120   11.074921     13.00      69.7230
     197     1 N    7    4.856337   10.282714   13.065128      5.00      14.0067
     198     2 Ga  31    4.813315    8.413562   13.621307     13.00      69.7230
     199     1 N    7    4.841796    8.398930   15.581760      5.00      14.0067
     200     2 Ga  31    4.659286   10.169428   16.481784     13.00      69.7230
     201     3 O    8   -0.379132    3.373148   -0.530878      6.00      15.9994
     202     4 H    1    1.631232    4.710659    1.505806      1.00       1.0079
     203     5 C    6    0.559439    2.362970   -0.968507      4.00      12.0107
     204     4 H    1    1.555843    2.512901   -0.523541      1.00       1.0079
     205     4 H    1    0.224089    1.345859   -0.721348      1.00       1.0079
     206     4 H    1    0.640581    2.457103   -2.062492      1.00       1.0079




 SCF PARAMETERS         Density guess:                                    ATOMIC
                        --------------------------------------------------------
                        max_scf:                                              80
                        max_scf_history:                                       0
                        max_diis:                                              4
                        --------------------------------------------------------
                        eps_scf:                                        5.00E-06
                        eps_scf_history:                                0.00E+00
                        eps_diis:                                       1.00E-01
                        eps_eigval:                                     1.00E-05
                        --------------------------------------------------------
                        level_shift [a.u.]:                                 0.00
                        --------------------------------------------------------
                        Outer loop SCF in use 
                        No variables optimised in outer loop
                        eps_scf                                         5.00E-06
                        max_scf                                                4
                        No outer loop optimization
                        step_size                                       5.00E-01

 PW_GRID| Information for grid number                                          1
 PW_GRID| Grid distributed over                                    80 processors
 PW_GRID| Real space group dimensions                                    80    1
 PW_GRID| the grid is blocked:                                                NO
 PW_GRID| Cutoff [a.u.]                                                    600.0
 PW_GRID| spherical cutoff:                                                   NO
 PW_GRID|   Bounds   1           -144     143                Points:         288
 PW_GRID|   Bounds   2           -144     143                Points:         288
 PW_GRID|   Bounds   3           -337     337                Points:         675
 PW_GRID| Volume element (a.u.^3)  0.5630E-03     Volume (a.u.^3)     31519.8467
 PW_GRID| Grid span                                                    FULLSPACE
 PW_GRID|   Distribution                         Average         Max         Min
 PW_GRID|   G-Vectors                           699840.0      699840      699840
 PW_GRID|   G-Rays                                2430.0        2430        2430
 PW_GRID|   Real Space Points                   699840.0      777600      583200

 PW_GRID| Information for grid number                                          2
 PW_GRID| Grid distributed over                                    80 processors
 PW_GRID| Real space group dimensions                                    80    1
 PW_GRID| the grid is blocked:                                                NO
 PW_GRID| Cutoff [a.u.]                                                    200.0
 PW_GRID| spherical cutoff:                                                   NO
 PW_GRID|   Bounds   1            -80      79                Points:         160
 PW_GRID|   Bounds   2            -80      79                Points:         160
 PW_GRID|   Bounds   3           -200     199                Points:         400
 PW_GRID| Volume element (a.u.^3)  0.3078E-02     Volume (a.u.^3)     31519.8467
 PW_GRID| Grid span                                                    FULLSPACE
 PW_GRID|   Distribution                         Average         Max         Min
 PW_GRID|   G-Vectors                           128000.0      128160      127840
 PW_GRID|   G-Rays                                 800.0         801         799
 PW_GRID|   Real Space Points                   128000.0      128000      128000

 PW_GRID| Information for grid number                                          3
 PW_GRID| Grid distributed over                                    80 processors
 PW_GRID| Real space group dimensions                                    80    1
 PW_GRID| the grid is blocked:                                                NO
 PW_GRID| Cutoff [a.u.]                                                     66.7
 PW_GRID| spherical cutoff:                                                   NO
 PW_GRID|   Bounds   1            -48      47                Points:          96
 PW_GRID|   Bounds   2            -48      47                Points:          96
 PW_GRID|   Bounds   3           -112     112                Points:         225
 PW_GRID| Volume element (a.u.^3)  0.1520E-01     Volume (a.u.^3)     31519.8467
 PW_GRID| Grid span                                                    FULLSPACE
 PW_GRID|   Distribution                         Average         Max         Min
 PW_GRID|   G-Vectors                            25920.0       26688       24864
 PW_GRID|   G-Rays                                 270.0         278         259
 PW_GRID|   Real Space Points                    25920.0       43200       21600

 PW_GRID| Information for grid number                                          4
 PW_GRID| Grid distributed over                                    80 processors
 PW_GRID| Real space group dimensions                                     8   10
 PW_GRID| the grid is blocked:                                                NO
 PW_GRID| Cutoff [a.u.]                                                     22.2
 PW_GRID| spherical cutoff:                                                   NO
 PW_GRID|   Bounds   1            -27      26                Points:          54
[...]
     16       N      1       5.000    2.040   2.041           -0.000      0.919
     17       Ga     2      13.000    6.941   6.944           -0.003     -0.885
     18       N      1       5.000    2.058   2.059           -0.001      0.883
     19       Ga     2      13.000    6.934   6.936           -0.002     -0.871
     20       N      1       5.000    2.062   2.063           -0.001      0.876
     21       Ga     2      13.000    6.938   6.939           -0.001     -0.877
     22       N      1       5.000    2.060   2.060           -0.001      0.880
     23       Ga     2      13.000    6.950   6.951           -0.001     -0.902
     24       N      1       5.000    2.051   2.051           -0.000      0.898
     25       Ga     2      13.000    6.907   6.912           -0.005     -0.819
     26       N      1       5.000    2.229   2.254           -0.025      0.517
     27       N      1       5.000    2.091   2.102           -0.011      0.807
     28       Ga     2      13.000    6.889   6.898           -0.009     -0.787
     29       N      1       5.000    2.094   2.101           -0.007      0.805
     30       Ga     2      13.000    6.942   6.945           -0.003     -0.888
     31       N      1       5.000    2.060   2.061           -0.001      0.880
     32       Ga     2      13.000    6.951   6.952           -0.001     -0.903
     33       N      1       5.000    2.051   2.052           -0.001      0.897
     34       Ga     2      13.000    6.938   6.940           -0.002     -0.877
     35       N      1       5.000    2.060   2.061           -0.001      0.879
     36       Ga     2      13.000    6.872   6.875           -0.003     -0.747
     37       N      1       5.000    2.134   2.136           -0.002      0.729
     38       Ga     2      13.000    6.913   6.908            0.005     -0.822
     39       Ga     2      13.000    6.670   6.759           -0.089     -0.430
     40       N      1       5.000    2.092   2.103           -0.012      0.805
     41       Ga     2      13.000    6.960   6.963           -0.003     -0.924
     42       N      1       5.000    2.050   2.050           -0.001      0.900
     43       Ga     2      13.000    6.943   6.946           -0.003     -0.888
     44       N      1       5.000    2.060   2.061           -0.001      0.880
     45       Ga     2      13.000    6.938   6.940           -0.002     -0.877
     46       N      1       5.000    2.061   2.062           -0.001      0.876
     47       Ga     2      13.000    6.938   6.940           -0.002     -0.878
     48       N      1       5.000    2.059   2.060           -0.001      0.882
     49       Ga     2      13.000    6.950   6.950           -0.000     -0.900
     50       N      1       5.000    2.055   2.047            0.008      0.898
     51       Ga     2      13.000    6.917   6.913            0.004     -0.830
     52       N      1       5.000    2.307   2.156            0.151      0.537
     53       N      1       5.000    2.126   2.127           -0.001      0.748
     54       Ga     2      13.000    6.961   6.964           -0.003     -0.925
     55       N      1       5.000    2.052   2.052           -0.001      0.896
     56       Ga     2      13.000    6.933   6.934           -0.002     -0.867
     57       N      1       5.000    2.058   2.059           -0.001      0.884
     58       Ga     2      13.000    6.937   6.939           -0.002     -0.876
     59       N      1       5.000    2.062   2.063           -0.001      0.875
     60       Ga     2      13.000    6.947   6.947           -0.001     -0.894
     61       N      1       5.000    2.062   2.061            0.001      0.876
     62       Ga     2      13.000    6.950   6.951           -0.001     -0.901
     63       N      1       5.000    2.052   2.048            0.003      0.900
     64       Ga     2      13.000    6.859   6.859           -0.000     -0.718
     65       N      1       5.000    2.254   2.254           -0.001      0.492
     66       Ga     2      13.000    7.012   7.013           -0.001     -1.025
     67       N      1       5.000    2.062   2.062           -0.001      0.876
     68       Ga     2      13.000    6.941   6.945           -0.004     -0.886
     69       N      1       5.000    2.062   2.063           -0.001      0.875
     70       Ga     2      13.000    6.940   6.942           -0.002     -0.882
     71       N      1       5.000    2.061   2.062           -0.001      0.878
     72       Ga     2      13.000    6.940   6.941           -0.001     -0.881
     73       N      1       5.000    2.058   2.059           -0.001      0.883
     74       Ga     2      13.000    6.950   6.951           -0.001     -0.901
     75       N      1       5.000    2.050   2.049            0.001      0.900
     76       Ga     2      13.000    6.911   6.916           -0.006     -0.827
     77       N      1       5.000    2.123   2.124           -0.001      0.752
     78       Ga     2      13.000    6.999   7.000           -0.001     -0.998
     79       N      1       5.000    2.062   2.063           -0.001      0.875
     80       Ga     2      13.000    6.932   6.934           -0.002     -0.866
     81       N      1       5.000    2.058   2.059           -0.001      0.883
     82       Ga     2      13.000    6.940   6.942           -0.002     -0.882
     83       N      1       5.000    2.061   2.062           -0.001      0.877
     84       Ga     2      13.000    6.946   6.947           -0.001     -0.893
     85       N      1       5.000    2.063   2.061            0.002      0.876
     86       Ga     2      13.000    6.951   6.951           -0.001     -0.902
     87       N      1       5.000    2.051   2.051           -0.000      0.898
     88       Ga     2      13.000    6.857   6.857           -0.000     -0.715
     89       N      1       5.000    2.091   2.104           -0.012      0.805
     90       Ga     2      13.000    6.960   6.963           -0.003     -0.923
     91       N      1       5.000    2.052   2.052           -0.001      0.896
     92       Ga     2      13.000    6.941   6.946           -0.005     -0.887
     93       N      1       5.000    2.060   2.062           -0.002      0.878
     94       Ga     2      13.000    6.936   6.938           -0.002     -0.875
     95       N      1       5.000    2.062   2.063           -0.001      0.875
     96       Ga     2      13.000    6.938   6.939           -0.002     -0.877
     97       N      1       5.000    2.059   2.060           -0.001      0.881
     98       Ga     2      13.000    6.950   6.950           -0.000     -0.901
     99       N      1       5.000    2.056   2.045            0.010      0.899
    100       Ga     2      13.000    6.919   6.914            0.005     -0.832
    101       N      1       5.000    2.089   2.110           -0.022      0.801
    102       Ga     2      13.000    6.888   6.902           -0.014     -0.790
    103       N      1       5.000    2.090   2.107           -0.017      0.803
    104       Ga     2      13.000    6.940   6.945           -0.005     -0.886
    105       N      1       5.000    2.060   2.063           -0.002      0.877
    106       Ga     2      13.000    6.949   6.951           -0.002     -0.900
    107       N      1       5.000    2.052   2.053           -0.001      0.895
    108       Ga     2      13.000    6.939   6.940           -0.002     -0.879
    109       N      1       5.000    2.058   2.059           -0.001      0.883
    110       Ga     2      13.000    6.871   6.875           -0.004     -0.746
    111       N      1       5.000    2.130   2.133           -0.002      0.737
    112       Ga     2      13.000    6.917   6.915            0.002     -0.832
    113       Ga     2      13.000    6.635   6.791           -0.156     -0.426
    114       N      1       5.000    2.082   2.102           -0.020      0.816
    115       Ga     2      13.000    6.958   6.962           -0.004     -0.920
    116       N      1       5.000    2.051   2.052           -0.001      0.897
    117       Ga     2      13.000    6.943   6.946           -0.003     -0.889
    118       N      1       5.000    2.058   2.060           -0.001      0.882
    119       Ga     2      13.000    6.938   6.940           -0.002     -0.878
    120       N      1       5.000    2.062   2.062           -0.001      0.876
    121       Ga     2      13.000    6.938   6.940           -0.002     -0.877
    122       N      1       5.000    2.059   2.060           -0.001      0.881
    123       Ga     2      13.000    6.950   6.951           -0.001     -0.901
    124       N      1       5.000    2.051   2.049            0.002      0.900
    125       Ga     2      13.000    6.916   6.914            0.002     -0.829
    126       N      1       5.000    2.284   2.187            0.097      0.529
    127       N      1       5.000    2.081   2.102           -0.021      0.817
    128       Ga     2      13.000    6.959   6.969           -0.010     -0.928
    129       N      1       5.000    2.080   2.088           -0.008      0.832
    130       Ga     2      13.000    6.943   6.946           -0.003     -0.889
    131       N      1       5.000    2.058   2.059           -0.001      0.882
    132       Ga     2      13.000    6.948   6.949           -0.001     -0.897
    133       N      1       5.000    2.052   2.053           -0.001      0.895
    134       Ga     2      13.000    6.937   6.938           -0.002     -0.875
    135       N      1       5.000    2.060   2.061           -0.001      0.878
    136       Ga     2      13.000    6.872   6.875           -0.004     -0.747
    137       N      1       5.000    2.131   2.134           -0.003      0.735
    138       Ga     2      13.000    6.930   6.910            0.020     -0.840
    139       Ga     2      13.000    6.633   6.796           -0.163     -0.430
    140       N      1       5.000    2.088   2.110           -0.023      0.802
    141       Ga     2      13.000    6.957   6.962           -0.005     -0.919
    142       N      1       5.000    2.051   2.052           -0.001      0.897
    143       Ga     2      13.000    6.940   6.945           -0.005     -0.885
    144       N      1       5.000    2.060   2.063           -0.002      0.877
    145       Ga     2      13.000    6.937   6.939           -0.002     -0.876
    146       N      1       5.000    2.062   2.063           -0.001      0.875
    147       Ga     2      13.000    6.938   6.939           -0.001     -0.877
    148       N      1       5.000    2.060   2.060           -0.001      0.880
    149       Ga     2      13.000    6.949   6.948            0.002     -0.897
    150       N      1       5.000    2.062   2.038            0.024      0.900
    151       Ga     2      13.000    6.930   6.910            0.020     -0.841
    152       N      1       5.000    2.459   1.976            0.483      0.564
    153       N      1       5.000    2.131   2.131           -0.000      0.739
    154       Ga     2      13.000    6.955   6.960           -0.005     -0.915
    155       N      1       5.000    2.052   2.054           -0.002      0.894
    156       Ga     2      13.000    6.937   6.939           -0.002     -0.876
    157       N      1       5.000    2.053   2.054           -0.001      0.893
    158       Ga     2      13.000    6.938   6.940           -0.002     -0.879
    159       N      1       5.000    2.060   2.061           -0.001      0.878
    160       Ga     2      13.000    6.944   6.945           -0.001     -0.890
    161       N      1       5.000    2.063   2.061            0.002      0.876
    162       Ga     2      13.000    6.949   6.948            0.001     -0.897
    163       N      1       5.000    2.061   2.038            0.023      0.901
    164       Ga     2      13.000    6.858   6.858            0.000     -0.716
    165       N      1       5.000    2.081   2.101           -0.020      0.818
    166       Ga     2      13.000    6.955   6.959           -0.005     -0.914
    167       N      1       5.000    2.052   2.054           -0.002      0.894
    168       Ga     2      13.000    6.942   6.946           -0.003     -0.888
    169       N      1       5.000    2.060   2.061           -0.001      0.879
    170       Ga     2      13.000    6.939   6.941           -0.002     -0.879
    171       N      1       5.000    2.060   2.061           -0.001      0.879
    172       Ga     2      13.000    6.939   6.940           -0.002     -0.879
    173       N      1       5.000    2.059   2.060           -0.001      0.880
    174       Ga     2      13.000    6.950   6.950           -0.000     -0.900
    175       N      1       5.000    2.054   2.047            0.008      0.899
    176       Ga     2      13.000    6.912   6.909            0.002     -0.821
    177       N      1       5.000    2.122   2.123           -0.001      0.756
    178       Ga     2      13.000    6.963   6.968           -0.004     -0.931
    179       N      1       5.000    2.050   2.051           -0.001      0.898
    180       Ga     2      13.000    6.934   6.937           -0.002     -0.871
    181       N      1       5.000    2.055   2.057           -0.002      0.889
    182       Ga     2      13.000    6.937   6.939           -0.002     -0.876
    183       N      1       5.000    2.061   2.062           -0.001      0.877
    184       Ga     2      13.000    6.945   6.946           -0.001     -0.891
    185       N      1       5.000    2.063   2.061            0.001      0.876
    186       Ga     2      13.000    6.950   6.951           -0.001     -0.901
    187       N      1       5.000    2.053   2.049            0.005      0.898
    188       Ga     2      13.000    6.857   6.857            0.000     -0.715
    189       N      1       5.000    2.081   2.103           -0.022      0.816
    190       Ga     2      13.000    6.964   6.968           -0.005     -0.932
    191       N      1       5.000    2.050   2.051           -0.001      0.899
    192       Ga     2      13.000    6.942   6.946           -0.003     -0.888
    193       N      1       5.000    2.060   2.061           -0.001      0.879
    194       Ga     2      13.000    6.937   6.939           -0.002     -0.876
    195       N      1       5.000    2.061   2.062           -0.001      0.877
    196       Ga     2      13.000    6.938   6.939           -0.001     -0.877
    197       N      1       5.000    2.060   2.060           -0.001      0.880
    198       Ga     2      13.000    6.949   6.947            0.002     -0.896
    199       N      1       5.000    2.064   2.035            0.029      0.901
    200       Ga     2      13.000    6.930   6.910            0.020     -0.841
    201       O      3       6.000    2.996   2.997           -0.001      0.006
    202       H      4       1.000    0.234   0.234           -0.000      0.533
    203       C      5       4.000    2.432   2.433           -0.000     -0.865
    204       H      4       1.000    0.277   0.277           -0.000      0.445
    205       H      4       1.000    0.280   0.280           -0.000      0.439
    206       H      4       1.000    0.279   0.279           -0.000      0.443

  Total Charge                                                            0.002
 !-----------------------------------------------------------------------------!

 ENERGY| Total FORCE_EVAL ( QS ) energy (a.u.):            -8480.610083564664819


 --------  Informations at step =   154 ------------
  Optimization Method        =                 BFGS
  Total Energy               =     -8480.6100835647
  Real energy change         =        -0.0000368461
  Predicted change in energy =        -0.0000304053
  Scaling factor             =         0.7930924003
  Step size                  =         0.0487049752
  Trust radius               =         0.4724315332
  Decrease in energy         =                   NO
  Used time                  =              142.576

  Convergence check :
  Max. step size             =         0.0487049752
  Conv. limit for step size  =         0.0030000000
  Convergence in step size   =                   NO
  RMS step size              =         0.0040047472
  Conv. limit for RMS step   =         0.0015000000
  Convergence in RMS step    =                   NO
  Max. gradient              =         0.0009689411
  Conv. limit for gradients  =         0.0004500000
  Conv. for gradients        =                   NO
  RMS gradient               =         0.0001756511
  Conv. limit for RMS grad.  =         0.0003000000
  Conv. in RMS gradients     =                  YES
 ---------------------------------------------------

 --------------------------
 OPTIMIZATION STEP:    155
 --------------------------

 Spin 1

 Number of electrons:                                                        907
 Number of occupied orbitals:                                                907
 Number of molecular orbitals:                                               907

 Spin 2

 Number of electrons:                                                        907
 Number of occupied orbitals:                                                907
 Number of molecular orbitals:                                               907

 Number of orbital functions:                                               3846
 Number of independent orbital functions:                                   3846

 Parameters for the always stable predictor-corrector (ASPC) method:

  ASPC order: 3

  B(1) =   3.000000
  B(2) =  -3.428571
  B(3) =   1.928571
  B(4) =  -0.571429
  B(5) =   0.071429

 Parameters for the always stable predictor-corrector (ASPC) method:

  ASPC order: 3

  B(1) =   3.000000
  B(2) =  -3.428571
  B(3) =   1.928571
  B(4) =  -0.571429
  B(5) =   0.071429

 Extrapolation method: ASPC


 SCF WAVEFUNCTION OPTIMIZATION

  ----------------------------------- OT ---------------------------------------
  Minimizer      : CG                  : conjugate gradient
  Preconditioner : FULL_ALL            : diagonalization, state selective
  Precond_solver : DEFAULT
  Line search    : 2PNT                : 2 energies, one gradient
  stepsize       :    0.15000000                  energy_gap     :    0.08000000
  eps_taylor     :   0.10000E-15                  max_taylor     :             4
  ----------------------------------- OT ---------------------------------------

  Step     Update method      Time    Convergence         Total energy    Change
  ------------------------------------------------------------------------------
     1 OT CG       0.15E+00   27.7     0.00001009     -8480.6100110233 -8.48E+03
     2 OT LS       0.21E+00    8.0                    -8480.6100791441
     3 OT CG       0.21E+00   17.7     0.00000805     -8480.6100848468 -7.38E-05
     4 OT LS       0.15E+00    8.2                    -8480.6101141809
     5 OT CG       0.15E+00   17.9     0.00000422     -8480.6101189874 -3.41E-05

  *** SCF run converged in     5 steps ***


  Electronic density on regular grids:      -1813.9999999997        0.0000000003
  Core density on regular grids:             1814.0000000000       -0.0000000000
  Total charge density on r-space grids:        0.0000000003
  Total charge density g-space grids:           0.0000000003

  Overlap energy of the core charge distribution:               0.00000123973402
  Self energy of the core charge distribution:             -12274.95679273117094
  Core Hamiltonian energy:                                   3676.66049796947436
  Hartree energy:                                            1403.89134447358333
  Exchange-correlation energy:                              -1285.24444802853623
  Dispersion energy:                                           -0.96072191044148

  Total energy:                                             -8480.61011898735705
