     206
 i =        1, E =     -8480.5681103296
  N        -0.0361138429        2.0488363172        2.5472312517
 Ga        -0.0202900531        0.0742451764        2.8543663967
  N        -0.0165797019        0.0589502120        5.0043696203
 Ga        -0.0178766632        1.8885289100        5.7924118713
  N        -0.0111230177        1.9027570465        7.7847428202
 Ga        -0.0123970362        0.0567135858        8.4389396560
  N        -0.0108176461        0.0563237920       10.4090628221
 Ga        -0.0099046320        1.8965132915       11.0665640518
  N        -0.0086343008        1.8768244110       13.0557606565
 Ga        -0.0073379888        0.0587057114       13.8684920453
  N        -0.0073097398        0.0542482840       16.0625413356
 Ga        -0.0071211107        2.1133270514       16.4900279702
 Ga        -0.1245417854        3.6893913113        1.4063933029
  N        -1.4996505653        4.6217696899        2.5148327252
 Ga        -1.7320556771        2.7833633787        3.3039173850
  N        -1.6302037009        2.8435124902        5.2580962623
 Ga        -1.6491256653        4.7148170731        5.7976554073
  N        -1.6295458994        4.7073732450        7.7888581950
 Ga        -1.6111427923        2.8477816159        8.4312739245
  N        -1.6066973381        2.8482085713       10.4205316915
 Ga        -1.6324582107        4.7064792966       11.0676571537
  N        -1.6483569676        4.7158148451       13.0565982845
 Ga        -1.6056810005        2.8469948444       13.6206093589
  N        -1.6335287080        2.8284607463       15.5759971302
 Ga        -1.4446554388        4.5982396838       16.4889234368
  N        -0.0120311149        3.7708270143       17.6318407509
  N        -3.2332750869        7.6103906750        2.5146703601
 Ga        -3.2166054221        5.6237693735        2.8426809297
  N        -3.2310981988        5.6294883611        5.0045362732
 Ga        -3.2340328149        7.4586247960        5.7919072036
  N        -3.2294692085        7.4725272962        7.7850788946
 Ga        -3.2292007164        5.6272931295        8.4418531300
  N        -3.2268023608        5.6255481391       10.4105153360
 Ga        -3.2270628390        7.4653357069       11.0648794036
  N        -3.2251288300        7.4453864772       13.0523445420
 Ga        -3.2232143655        5.6255708775       13.8681094752
  N        -3.2259565012        5.6267717024       16.0602742112
 Ga        -3.2269794887        7.6692869257       16.4724405115
 Ga        -3.2328986097        9.3422415137        1.4596116735
  N        -4.7398251313       10.2156259715        2.5068902121
 Ga        -4.9407118892        8.3642430402        3.2699437829
  N        -4.8419842929        8.4150351627        5.2347262753
 Ga        -4.8636759209       10.2855272566        5.7892995612
  N        -4.8464315310       10.2752787569        7.7827274233
 Ga        -4.8283773257        8.4177107048        8.4298742108
  N        -4.8242931272        8.4180615245       10.4192444215
 Ga        -4.8501966420       10.2771376996       11.0651271717
  N        -4.8654039125       10.2870315542       13.0530938719
 Ga        -4.8225943652        8.4172296367       13.6124078809
  N        -4.8496546046        8.4042640812       15.5685267390
 Ga        -4.6710206635       10.1765064676       16.4736245053
  N        -3.2277922480        9.3381916867       17.6204965206
  N         3.1974605124        1.9278309875        2.5768502479
 Ga         3.1923179102        0.1766935549        3.2635132488
  N         3.1987594214        0.0647153502        5.2301238328
 Ga         3.1990104245        1.9163435104        5.8697352257
  N         3.2019425836        1.9142972150        7.8379403139
 Ga         3.2023340904        0.0461879949        8.4324138892
  N         3.2046760438        0.0438045632       10.4203208147
 Ga         3.2041336010        1.9136470102       11.0213286414
  N         3.2060496723        1.9131537897       12.9864155548
 Ga         3.2070223387        0.0444598017       13.6115456909
  N         3.2067485434        0.0734977109       15.5668237633
 Ga         3.2060336344        1.9103691964       15.8516258623
  N         1.4511565961        4.6328448218        2.4727462011
 Ga         1.6646800381        2.7337632576        3.2854194000
  N         1.5948371594        2.8570238878        5.2399952000
 Ga         1.6200992156        4.7180682614        5.8203953792
  N         1.6058468781        4.7063378667        7.7998338344
 Ga         1.5852609902        2.8472504889        8.4340918201
  N         1.5861868178        2.8488120313       10.4209771273
 Ga         1.6122115113        4.7061510521       11.0690874392
  N         1.6307525389        4.7155453733       13.0575501578
 Ga         1.5884040806        2.8471293659       13.6208515729
  N         1.6174350665        2.8300174715       15.5752132701
 Ga         1.4256732947        4.5957281255       16.4910054518
  N        -0.0120320350        7.4957671888        2.5955190494
 Ga        -0.0752869756        5.7624204417        3.2915753678
  N        -0.0054217316        5.6292766842        5.2461071495
 Ga        -0.0153052127        7.4888669457        5.8764962549
  N        -0.0125805751        7.4847005599        7.8438088011
 Ga        -0.0132453334        5.6173319765        8.4370324846
  N        -0.0096411204        5.6130615459       10.4232281521
 Ga        -0.0101805407        7.4819364577       11.0227434239
  N        -0.0082479348        7.4826634498       12.9892824890
 Ga        -0.0084531952        5.6124615977       13.6213292665
  N        -0.0067076031        5.6468547458       15.5768893463
 Ga        -0.0108924693        7.4823537008       15.8531481380
  N        -1.7324851160       10.2163375487        2.5128039914
 Ga        -1.5307981140        8.3646964672        3.2788354894
  N        -1.6220053435        8.4151914518        5.2419388612
 Ga        -1.6012879356       10.2887846272        5.7934685357
  N        -1.6124774728       10.2759400513        7.7865309587
 Ga        -1.6315505374        8.4186037054        8.4333466212
  N        -1.6297451181        8.4175850693       10.4213609009
 Ga        -1.6047810230       10.2766049431       11.0646427738
  N        -1.5853737192       10.2868711461       13.0522058659
 Ga        -1.6280720921        8.4175155002       13.6129501767
  N        -1.6017889340        8.4042708675       15.5702031858
 Ga        -1.7845106734       10.1755411960       16.4722626443
  N         6.4124517443        2.0429422173        2.5166715866
 Ga         6.4139073298        0.0624162946        2.8524875747
  N         6.4169281716        0.0594161385        5.0108494520
 Ga         6.4149583218        1.8872490808        5.7954017637
  N         6.4170776285        1.9028127279        7.7870690701
 Ga         6.4195314596        0.0567020609        8.4413633694
  N         6.4215383803        0.0553554521       10.4103348963
 Ga         6.4211923523        1.8958871902       11.0654476639
  N         6.4227956363        1.8761722294       13.0542693148
 Ga         6.4220231899        0.0565278462       13.8635529197
  N         6.4207686401        0.0554673129       16.0590965598
 Ga         6.4200484323        2.1060888791       16.4730222260
 Ga         6.4280931519        3.7704258267        1.4753707733
  N         4.9119013971        4.6339245479        2.5057572915
 Ga         4.7087327408        2.7840552356        3.2793472567
  N         4.8040035004        2.8431490998        5.2387859186
 Ga         4.7844470434        4.7130395375        5.7919585499
  N         4.7992526608        4.7047074723        7.7823933884
 Ga         4.8198425329        2.8483063411        8.4324499587
  N         4.8235712988        2.8481233263       10.4205798557
 Ga         4.7981804735        4.7066917694       11.0679779858
  N         4.7829074796        4.7158126108       13.0566567981
 Ga         4.8243657167        2.8462336161       13.6144086728
  N         4.7957771195        2.8303551810       15.5701387875
 Ga         4.9771033755        4.6035345198       16.4747136807
  N         6.4249319617        3.7743583180       17.6099497042
  N         3.1876163382        7.6186943513        2.5060642229
 Ga         3.2280597626        5.6530663387        2.9023036181
  N         3.1911742723        5.6256568673        5.0147757613
 Ga         3.2018789307        7.4601558456        5.7940755093
  N         3.2036279124        7.4704014601        7.7844519788
 Ga         3.2054734097        5.6278147256        8.4437565262
  N         3.2051824903        5.6254864395       10.4112877356
 Ga         3.2064169747        7.4643542350       11.0692979909
  N         3.2072168100        7.4448514199       13.0586864729
 Ga         3.2055697452        5.6239342919       13.8723935525
  N         3.2075533936        5.6250150683       16.0656639743
 Ga         3.2070975413        7.6667964925       16.4783608578
 Ga         3.1929837275        9.3617927550        1.4652933614
  N         1.6951912042       10.2155619250        2.5179921545
 Ga         1.4904368750        8.3721444084        3.2882344932
  N         1.5915961602        8.4143723193        5.2470023517
 Ga         1.5693040301       10.2872247353        5.7986752160
  N         1.5859153532       10.2738263461        7.7899351779
 Ga         1.6069675077        8.4170571447        8.4352496159
  N         1.6095412324        8.4167426080       10.4232817413
 Ga         1.5833782297       10.2762800070       11.0674865905
  N         1.5668721251       10.2868100624       13.0572386344
 Ga         1.6102649433        8.4172466011       13.6190431168
  N         1.5828302204        8.4020441466       15.5786735399
 Ga         1.7586804325       10.1766725388       16.4764109243
  N         3.2082489940        9.3422250249       17.6088928212
  N         9.6273523593        1.9193448437        2.6085366683
 Ga         9.6298769960        0.1761024162        3.2825640253
  N         9.6326349121        0.0601210576        5.2438411794
 Ga         9.6306265749        1.9144210351        5.8756421150
  N         9.6340768857        1.9126593851        7.8435135325
 Ga         9.6366460417        0.0449657416        8.4350435077
  N         9.6385404334        0.0423671232       10.4233604844
 Ga         9.6388960998        1.9132403867       11.0221923211
  N         9.6398073492        1.9121511868       12.9887102143
 Ga         9.6395449871        0.0437382861       13.6188379288
  N         9.6387683444        0.0742355315       15.5785847915
 Ga         9.6401093598        1.9128600598       15.8569976294
  N         7.9140056251        4.6421871603        2.5226974700
 Ga         8.1195748922        2.7878011778        3.2874725499
  N         8.0236488182        2.8432219362        5.2465331139
 Ga         8.0488538623        4.7153078862        5.7941817925
  N         8.0367837828        4.7051958935        7.7860900531
 Ga         8.0169497486        2.8475852427        8.4332184866
  N         8.0180003643        2.8477355509       10.4216429592
 Ga         8.0439676570        4.7067621217       11.0665721450
  N         8.0632433611        4.7160609154       13.0559175814
 Ga         8.0210309023        2.8465406232       13.6155595718
  N         8.0477285000        2.8290254856       15.5733513954
 Ga         7.8675051936        4.6062595703       16.4731897131
  N         6.4126346502        7.4891945264        2.5948650272
 Ga         6.4128796620        5.7497322156        3.2806204336
  N         6.4139075369        5.6311882770        5.2410121087
 Ga         6.4167009974        7.4882002869        5.8654130513
  N         6.4183652389        7.4837423150        7.8357775822
 Ga         6.4183247540        5.6158610300        8.4300388426
  N         6.4202706144        5.6127937848       10.4194936253
 Ga         6.4213480101        7.4825055997       11.0205256303
  N         6.4218640973        7.4832496819       12.9869624319
 Ga         6.4230111738        5.6140747611       13.6157289689
  N         6.4204592659        5.6485161081       15.5721716252
 Ga         6.4245932199        7.4840757774       15.8538812818
  N         4.6966579861       10.2133093075        2.5166748407
 Ga         4.9043304246        8.3622181391        3.2731998558
  N         4.8084238657        8.4132454342        5.2370357303
 Ga         4.8325750451       10.2846194578        5.7935649210
  N         4.8213742709       10.2739605218        7.7857188328
 Ga         4.8017019717        8.4171140839        8.4317761294
  N         4.8019162831        8.4173027951       10.4210724741
 Ga         4.8295119685       10.2763333387       11.0681959195
  N         4.8478240129       10.2871219369       13.0586462300
 Ga         4.8041707831        8.4174783223       13.6199671409
  N         4.8310152259        8.4019157965       15.5795074337
 Ga         4.6569715791       10.1777069186       16.4773962819
  O         0.2167094144        3.5064858451       -0.5056073180
  H         1.5421550692        4.6832048936        1.4411250248
  C         0.7411678428        2.1763020632       -0.8258140229
  H         1.8303955036        2.0901656349       -0.6615552788
  H         0.2548615387        1.3383588678       -0.2951710061
  H         0.6008688754        1.9782127638       -1.9051454106
     206
 i =        2, E =     -8480.5831461523
  N        -0.0453141427        2.0363320179        2.5581854843
 Ga        -0.0243220115        0.0697336820        2.8502564263
  N        -0.0147652296        0.0583058129        5.0064596707
 Ga        -0.0171194487        1.8896462307        5.7913266989
  N        -0.0109432980        1.9024085728        7.7837323345
 Ga        -0.0122960120        0.0561612107        8.4393067792
  N        -0.0113106440        0.0563123987       10.4081599058
 Ga        -0.0114918943        1.8953609578       11.0674468897
  N        -0.0091201629        1.8756452275       13.0547667919
 Ga        -0.0069290490        0.0573523674       13.8706848760
  N        -0.0078197651        0.0552811475       16.0602130075
 Ga        -0.0070060820        2.1102761267       16.4892238149
 Ga        -0.2042518072        3.6223869177        1.3174170892
  N        -1.5059817163        4.6100967348        2.5010390947
 Ga        -1.7265579264        2.7849991942        3.3183678384
  N        -1.6338901481        2.8424306834        5.2696093591
 Ga        -1.6461885245        4.7147873947        5.7984131739
  N        -1.6298732634        4.7075110651        7.7888434509
 Ga        -1.6113837593        2.8471283928        8.4318663068
  N        -1.6070406968        2.8480347712       10.4198429977
 Ga        -1.6342594576        4.7056877381       11.0683734095
  N        -1.6486892374        4.7158906612       13.0558891471
 Ga        -1.6062393267        2.8464852151       13.6194484992
  N        -1.6315984422        2.8290453331       15.5749532318
 Ga        -1.4473738619        4.6006633139       16.4884100840
  N        -0.0132851351        3.7703903414       17.6357423606
  N        -3.2310100888        7.6074389603        2.5136884401
 Ga        -3.2176143921        5.6179451324        2.8324054202
  N        -3.2269198815        5.6290582415        4.9999542655
 Ga        -3.2335045772        7.4578249255        5.7907500614
  N        -3.2298261324        7.4729580650        7.7832460153
 Ga        -3.2299928580        5.6282429526        8.4422295502
  N        -3.2271157733        5.6259868908       10.4099116292
 Ga        -3.2272019221        7.4657261920       11.0651811493
  N        -3.2254062834        7.4453202074       13.0518358091
 Ga        -3.2246135739        5.6254892834       13.8694793893
  N        -3.2257614522        5.6263019735       16.0560823300
 Ga        -3.2265052637        7.6703874872       16.4788653541
 Ga        -3.2354476891        9.3418420889        1.4697141665
  N        -4.7385317871       10.2148782968        2.5095308787
 Ga        -4.9396666325        8.3615127120        3.2715144464
  N        -4.8415264031        8.4145379635        5.2349029982
 Ga        -4.8637912714       10.2849371714        5.7905108016
  N        -4.8463362652       10.2754316664        7.7824362927
 Ga        -4.8278366959        8.4185623650        8.4308251209
  N        -4.8242463937        8.4179582540       10.4182578483
 Ga        -4.8506750983       10.2770540235       11.0644008716
  N        -4.8663821061       10.2872319192       13.0505268368
 Ga        -4.8228388128        8.4181399797       13.6136973918
  N        -4.8496997167        8.4067784671       15.5697035910
 Ga        -4.6677234026       10.1757604104       16.4799264477
  N        -3.2267018237        9.3343152496       17.6257161624
  N         3.1941440342        1.9254212202        2.5855997629
 Ga         3.1970020384        0.1719024139        3.2662512697
  N         3.1981990043        0.0659197677        5.2310483594
 Ga         3.1983514155        1.9180554220        5.8694486831
  N         3.2016315626        1.9145365609        7.8369139181
 Ga         3.2025078057        0.0452937411        8.4327512346
  N         3.2048495768        0.0434543912       10.4195181784
 Ga         3.2053564567        1.9129169535       11.0212807302
  N         3.2061156157        1.9130025833       12.9860848520
 Ga         3.2066097548        0.0428201909       13.6119883679
  N         3.2061513487        0.0729980863       15.5658106609
 Ga         3.2069865770        1.9110674872       15.8489114251
  N         1.4644532817        4.6336200052        2.4269156758
 Ga         1.6438868832        2.7141371937        3.2625249341
  N         1.5961569713        2.8580027359        5.2175387498
 Ga         1.6144321412        4.7155179023        5.8158865526
  N         1.6061103006        4.7061773226        7.7956470939
 Ga         1.5845645727        2.8450266406        8.4388018709
  N         1.5858150705        2.8478626454       10.4240267150
 Ga         1.6125896134        4.7063925102       11.0697041826
  N         1.6311788554        4.7162652840       13.0561905111
 Ga         1.5875147408        2.8474414111       13.6188390513
  N         1.6157446105        2.8312230965       15.5729867878
 Ga         1.4275154315        4.5973841934       16.4903543822
  N        -0.0160419812        7.4890764729        2.6011098434
 Ga        -0.0994473093        5.7447698255        3.2578444229
  N        -0.0047551258        5.6290520576        5.2149045186
 Ga        -0.0144501231        7.4858223445        5.8744138046
  N        -0.0128355649        7.4844057202        7.8414557382
 Ga        -0.0150501379        5.6179203001        8.4419768781
  N        -0.0106900289        5.6135177798       10.4262832227
 Ga        -0.0103433685        7.4836299854       11.0233441284
  N        -0.0082543827        7.4831307302       12.9881033870
 Ga        -0.0084869722        5.6131807631       13.6192655161
  N        -0.0060117613        5.6453069582       15.5741367257
 Ga        -0.0129460568        7.4822042387       15.8581316020
  N        -1.7318526030       10.2164181391        2.5084178475
 Ga        -1.5325159856        8.3694640964        3.2771773033
  N        -1.6206258701        8.4135691360        5.2392764456
 Ga        -1.6014904043       10.2881564637        5.7915216455
  N        -1.6122785729       10.2765467966        7.7835973962
 Ga        -1.6325154296        8.4196906635        8.4334473596
  N        -1.6299713091        8.4177842862       10.4201152049
 Ga        -1.6037903352       10.2770402212       11.0645437632
  N        -1.5849992341       10.2869335151       13.0505608792
 Ga        -1.6283585515        8.4181682765       13.6144466769
  N        -1.6019483361        8.4062713374       15.5709083975
 Ga        -1.7862130168       10.1751213398       16.4792280893
  N         6.4123984342        2.0427889619        2.5169513683
 Ga         6.4140688643        0.0621301292        2.8481289087
  N         6.4164332429        0.0596029538        5.0080343328
 Ga         6.4157847063        1.8864188725        5.7967902515
  N         6.4177729084        1.9027123792        7.7870178149
 Ga         6.4188269366        0.0568608294        8.4414797617
  N         6.4218512626        0.0558462209       10.4089726225
 Ga         6.4216113780        1.8955821019       11.0654085597
  N         6.4227163227        1.8753774886       13.0522646046
 Ga         6.4209465571        0.0566033755       13.8675485834
  N         6.4208006419        0.0557312263       16.0572712424
 Ga         6.4205680734        2.1062192666       16.4782897153
 Ga         6.4266839842        3.7717131370        1.4800291850
  N         4.9101047277        4.6378160011        2.5138829573
 Ga         4.7086016888        2.7852655751        3.2784596886
  N         4.8049165568        2.8424426514        5.2369442710
 Ga         4.7910264324        4.7095341045        5.7970578461
  N         4.7994395037        4.7046114729        7.7844811506
 Ga         4.8206425106        2.8469652257        8.4336154590
  N         4.8240409758        2.8481937861       10.4200616951
 Ga         4.7992693573        4.7063403067       11.0678059662
  N         4.7821232839        4.7164482559       13.0537441215
 Ga         4.8252753688        2.8471017990       13.6143463419
  N         4.7983117817        2.8325512980       15.5687526421
 Ga         4.9796513917        4.6025135858       16.4798934497
  N         6.4265266388        3.7724714228       17.6239711521
  N         3.1901508085        7.6138388110        2.5135554674
 Ga         3.2630372673        5.6717085633        2.9579181238
  N         3.1960353455        5.6281450719        5.0242476462
 Ga         3.2009431114        7.4672920792        5.7987778692
  N         3.2032734302        7.4712065187        7.7861160749
 Ga         3.2066302483        5.6288547466        8.4485830246
  N         3.2059464286        5.6268159727       10.4140450968
 Ga         3.2063396327        7.4660611171       11.0704685215
  N         3.2068863661        7.4443198258       13.0587665294
 Ga         3.2064953164        5.6231113489       13.8731798890
  N         3.2067812921        5.6246529280       16.0613936793
 Ga         3.2072093154        7.6651173679       16.4773589181
 Ga         3.1950507771        9.3594691979        1.4711008879
  N         1.6960076905       10.2145939897        2.5180065707
 Ga         1.4902665473        8.3695761404        3.2845237675
  N         1.5904674653        8.4151712931        5.2427544140
 Ga         1.5681853112       10.2882119910        5.7991316204
  N         1.5855519961       10.2752631292        7.7891954841
 Ga         1.6058256851        8.4190913994        8.4363909665
  N         1.6096398111        8.4173831016       10.4227985634
 Ga         1.5826358558       10.2770731710       11.0678131902
  N         1.5662393625       10.2869049256       13.0567177749
 Ga         1.6099893263        8.4175744546       13.6193590594
  N         1.5802865174        8.4016874111       15.5795541631
 Ga         1.7577454356       10.1783941828       16.4758264752
  N         3.2072909638        9.3396445312       17.5940222900
  N         9.6330449965        1.9225283428        2.6148856449
 Ga         9.6302594695        0.1772273940        3.2846125745
  N         9.6323482797        0.0592538631        5.2451981936
 Ga         9.6273928005        1.9130504955        5.8800069773
  N         9.6330756387        1.9123851668        7.8461056474
 Ga         9.6363663955        0.0448761594        8.4366248476
  N         9.6380742076        0.0422536773       10.4232641029
 Ga         9.6384290597        1.9130760610       11.0212317541
  N         9.6394505596        1.9118288482       12.9866074663
 Ga         9.6395671973        0.0433789877       13.6177482425
  N         9.6390783733        0.0772580984       15.5770991372
 Ga         9.6388519255        1.9155692081       15.8584923380
  N         7.9170067470        4.6386785940        2.5182554030
 Ga         8.1205241065        2.7879806662        3.2876622338
  N         8.0226993668        2.8437266122        5.2465061597
 Ga         8.0501297990        4.7166747596        5.7921485548
  N         8.0370022873        4.7049413961        7.7841218075
 Ga         8.0166409663        2.8480140228        8.4346739655
  N         8.0179152920        2.8477187721       10.4211823497
 Ga         8.0440364898        4.7063298445       11.0661120441
  N         8.0629481926        4.7163443740       13.0534792392
 Ga         8.0205224442        2.8467335887       13.6151520164
  N         8.0448559397        2.8301923158       15.5713167279
 Ga         7.8665232976        4.6055184109       16.4786865672
  N         6.4109646129        7.4880390111        2.5993972873
 Ga         6.4225229902        5.7465044063        3.2775210098
  N         6.4134808711        5.6321588043        5.2373877852
 Ga         6.4172547571        7.4883592114        5.8667875223
  N         6.4186446916        7.4844654041        7.8357542905
 Ga         6.4199149066        5.6167584403        8.4312528491
  N         6.4205969431        5.6130843242       10.4188121071
 Ga         6.4213502601        7.4829029778       11.0200129096
  N         6.4215132315        7.4835538827       12.9851991284
 Ga         6.4224954906        5.6139568646       13.6145309941
  N         6.4194408012        5.6454128933       15.5692989154
 Ga         6.4262387574        7.4825308375       15.8561527292
  N         4.6939199277       10.2144205153        2.5147606761
 Ga         4.9061724649        8.3691037511        3.2728794644
  N         4.8084043566        8.4119423910        5.2354003134
 Ga         4.8337878102       10.2845785889        5.7936195515
  N         4.8207212728       10.2749001537        7.7849706609
 Ga         4.8027088783        8.4188697895        8.4331494968
  N         4.8016310768        8.4176843348       10.4206964031
 Ga         4.8292860992       10.2768129004       11.0679852053
  N         4.8481196220       10.2872205605       13.0571579611
 Ga         4.8038650720        8.4180178300       13.6190409684
  N         4.8334556725        8.4018416749       15.5791755016
 Ga         4.6569702782       10.1786732039       16.4768635034
  O         0.2344529268        3.4612608422       -0.3757614664
  H         1.6385436131        4.7353582959        1.3861580335
  C         0.7519911789        2.1810813743       -0.8221570692
  H         1.8305656919        2.1121680123       -0.6236881946
  H         0.2522323383        1.3619067275       -0.2815128835
  H         0.5611131875        2.0385737456       -1.9000520804
     206
 i =        3, E =     -8480.5886723585
  N        -0.0502636605        2.0175937873        2.5650835495
 Ga        -0.0268019656        0.0563391897        2.8571437263
  N        -0.0146994023        0.0575901391        5.0108625093
 Ga        -0.0141711021        1.8896096780        5.7920257925
  N        -0.0106543413        1.9024842412        7.7839372439
 Ga        -0.0121617108        0.0564416708        8.4384088261
  N        -0.0116298551        0.0560013303       10.4072245757
 Ga        -0.0119623509        1.8947705114       11.0680800149
  N        -0.0096452528        1.8753226040       13.0550042635
 Ga        -0.0072169673        0.0567498492       13.8717421070
  N        -0.0080828187        0.0562508836       16.0612044486
 Ga        -0.0079045426        2.1102159249       16.4874257661
 Ga        -0.2390455511        3.5993761805        1.3289078734
  N        -1.5238439252        4.6122546939        2.5060027184
 Ga        -1.7255191431        2.7840407050        3.3321478278
  N        -1.6334376179        2.8430684206        5.2795932351
 Ga        -1.6440480907        4.7172237591        5.7992279166
  N        -1.6295806318        4.7082099201        7.7886667436
 Ga        -1.6109223398        2.8476127053        8.4309289772
  N        -1.6073397523        2.8478951983       10.4191027503
 Ga        -1.6349602080        4.7056288258       11.0689842605
  N        -1.6488478813        4.7157175293       13.0562627366
 Ga        -1.6066585581        2.8462177903       13.6195338755
  N        -1.6318688464        2.8293503889       15.5744318347
 Ga        -1.4483653996        4.6005560897       16.4866559519
  N        -0.0131602953        3.7710300657       17.6356352378
  N        -3.2311887759        7.6113280023        2.5122422008
 Ga        -3.2328639340        5.6228044304        2.8335241155
  N        -3.2253007719        5.6280123984        4.9995912094
 Ga        -3.2322589231        7.4564287256        5.7897259683
  N        -3.2302232177        7.4727957561        7.7818961859
 Ga        -3.2296998271        5.6285898624        8.4412788774
  N        -3.2273582195        5.6263037012       10.4088837177
 Ga        -3.2272498094        7.4658381628       11.0660997914
  N        -3.2254600754        7.4459827409       13.0528065344
 Ga        -3.2251150930        5.6257852057       13.8705334355
  N        -3.2256985950        5.6267369603       16.0569729604
 Ga        -3.2262905950        7.6720937071       16.4791849698
 Ga        -3.2349852281        9.3422302737        1.4682434552
  N        -4.7354236195       10.2116056273        2.5091551664
 Ga        -4.9403673218        8.3593697564        3.2746487173
  N        -4.8405668592        8.4140722925        5.2369325327
 Ga        -4.8640112876       10.2850946798        5.7912262255
  N        -4.8465523597       10.2749053316        7.7825350411
 Ga        -4.8275746694        8.4183913186        8.4304621730
  N        -4.8241881955        8.4179803710       10.4175857086
 Ga        -4.8509172145       10.2770617074       11.0649101127