     200
 i =        1, E =     -8455.9324775115
  N         0.0078055708        1.9310743577        2.6052062625
 Ga         0.0039862014        0.0128934389        3.1463003017
  N         0.0043630376        0.0160570420        5.1461287264
 Ga         0.0087755710        1.8830146917        5.8135238816
  N         0.0071980416        1.8868007735        7.7833013270
 Ga         0.0044389210        0.0150507943        8.3982547693
  N         0.0044446270        0.0166643823       10.3789767042
 Ga         0.0084536557        1.8907509257       10.9952085056
  N         0.0083037401        1.8876594909       12.9671489038
 Ga         0.0045042806        0.0142649351       13.5943158092
  N         0.0074001325        0.0066754007       15.6162119999
 Ga         0.0022311744        1.9395304511       16.1839102731
 Ga        -0.0170486544        3.7653034551        1.8002802915
  N        -1.5755146192        4.6649270468        2.6097190373
 Ga        -1.6601551491        2.7869175055        3.2332930334
  N        -1.6083552410        2.8208137991        5.2091339690
 Ga        -1.6182753171        4.6926429134        5.8135086997
  N        -1.6158790974        4.6897960962        7.7844556918
 Ga        -1.6163336382        2.8163860601        8.3957798513
  N        -1.6116055147        2.8192731607       10.3709014354
 Ga        -1.6129132024        4.6893887373       10.9943610512
  N        -1.6131833923        4.6904658493       12.9670077140
 Ga        -1.6224031684        2.8137566878       13.5536607430
  N        -1.6453147004        2.7996889224       15.5100801144
 Ga        -1.5581467462        4.6562535930       16.1752258937
  N        -0.0118127132        3.7605151437       17.1100798307
  N        -3.2368300891        7.5398617662        2.6051932481
 Ga        -3.2402008652        5.6209773949        3.1517488960
  N        -3.2360647757        5.6222332169        5.1472812687
 Ga        -3.2353404540        7.4896763198        5.8114386920
  N        -3.2367027539        7.4921595071        7.7821576812
 Ga        -3.2377866349        5.6219302835        8.4007066415
  N        -3.2350799408        5.6226600758       10.3765838628
 Ga        -3.2352754647        7.4948949047       10.9938363734
  N        -3.2357162510        7.4947903291       12.9663102584
 Ga        -3.2384751441        5.6213901282       13.5895825675
  N        -3.2363688623        5.6171851797       15.6066571231
 Ga        -3.2415089431        7.5529251848       16.1823925225
 Ga        -3.2611141293        9.3787919761        1.8013317605
  N        -4.8227151457       10.2747991620        2.6082399198
 Ga        -4.9040950445        8.3969145529        3.2334303204
  N        -4.8527203559        8.4277264681        5.2084212665
 Ga        -4.8650497490       10.3006980365        5.8095978275
  N        -4.8553618369       10.2959996162        7.7865835553
 Ga        -4.8604592969        8.4205198808        8.3978713415
  N        -4.8553664587        8.4242121252       10.3724497755
 Ga        -4.8563783018       10.2955044632       10.9915034937
  N        -4.8568980112       10.2949878666       12.9689397845
 Ga        -4.8674338033        8.4168587682       13.5564680471
  N        -4.8870014107        8.4139154064       15.5115550293
 Ga        -4.8088588762       10.2680215629       16.1778859689
  N        -3.2604882968        9.3776526169       17.1222960600
  N         3.2453955273        1.8842902593        2.5626535974
 Ga         3.2494221066        0.0648398771        3.2314539805
  N         3.2433061015        0.0111852295        5.2089215338
 Ga         3.2455568774        1.8871827869        5.8029970610
  N         3.2462240131        1.8867381348        7.7756540480
 Ga         3.2484847258        0.0180043680        8.3972940173
  N         3.2448069974        0.0156859781       10.3739912854
 Ga         3.2457453241        1.8873171291       10.9867018777
  N         3.2447378862        1.8885211675       12.9446842706
 Ga         3.2476079008        0.0278428699       13.5506078668
  N         3.2444483483        0.0464301799       15.5092323014
 Ga         3.2410941075        1.8847967618       16.1343164993
  N         1.5829957070        4.6638263887        2.6113563119
 Ga         1.6718414590        2.7886072176        3.2345554049
  N         1.6228516818        2.8185275318        5.2053520256
 Ga         1.6265217048        4.6877987817        5.8111048967
  N         1.6252780976        4.6882360790        7.7825403694
 Ga         1.6276948619        2.8167724341        8.3977476361
  N         1.6265476979        2.8174177319       10.3696426949
 Ga         1.6224038165        4.6857763275       10.9935916859
  N         1.6219315840        4.6872203434       12.9669542370
 Ga         1.6356343763        2.8128056458       13.5586418064
  N         1.6494994056        2.7985152001       15.5147606656
 Ga         1.5700573939        4.6589885152       16.1762532582
  N         0.0003437605        7.4953762127        2.5631215525
 Ga         0.0039428195        5.6787351575        3.2362362380
  N         0.0041504704        5.6175752463        5.2074138875
 Ga         0.0012892355        7.4917703894        5.8002758047
  N         0.0018054898        7.4922872195        7.7739412125
 Ga         0.0044089160        5.6239748861        8.3989010891
  N         0.0046498520        5.6212748555       10.3714939843
 Ga         0.0009669522        7.4910133230       10.9857107256
  N         0.0004772148        7.4923123278       12.9442515565
 Ga         0.0043073579        5.6351312093       13.5571835401
  N         0.0031961813        5.6607461038       15.5116668480
 Ga        -0.0030610249        7.4960403151       16.1249737962
  N        -1.6525953728       10.2722464144        2.6056498782
 Ga        -1.5743219144        8.3997517138        3.2349293883
  N        -1.6207128010        8.4244775460        5.2045777187
 Ga        -1.6143666364       10.2938402011        5.8091820938
  N        -1.6141772095       10.2937689019        7.7852953889
 Ga        -1.6167314655        8.4208582276        8.4000788411
  N        -1.6174703069        8.4225343918       10.3709320383
 Ga        -1.6204107402       10.2912891504       10.9906007256
  N        -1.6138716112       10.2901818296       12.9681943995
 Ga        -1.6079383465        8.4154338296       13.5620008816
  N        -1.5961779014        8.4125869656       15.5165081299
 Ga        -1.6707412375       10.2674447111       16.1817555520
  N         6.4862688604        1.9274174873        2.6061362614
 Ga         6.4897597259        0.0119438240        3.1527261911
  N         6.4847139923        0.0134408447        5.1482270974
 Ga         6.4869925669        1.8794861104        5.8114834879
  N         6.4854590655        1.8825508513        7.7809142209
 Ga         6.4881359401        0.0144953269        8.4015232463
  N         6.4835088358        0.0133779980       10.3782816475
 Ga         6.4859972993        1.8856525461       10.9933070382
  N         6.4849853974        1.8853992784       12.9654305392
 Ga         6.4887446014        0.0144022058       13.5934943583
  N         6.4923968066        0.0068397725       15.6120251616
 Ga         6.4838679545        1.9386688436       16.1773777459
 Ga         6.4652708115        3.7619147209        1.8002870056
  N         4.9058573728        4.6613349628        2.6103596583
 Ga         4.8204950791        2.7850951061        3.2366908043
  N         4.8708756647        2.8157771871        5.2073401114
 Ga         4.8610587468        4.6856702139        5.8107992053
  N         4.8627365428        4.6848456670        7.7818227523
 Ga         4.8661532506        2.8140715939        8.3988717666
  N         4.8669722902        2.8142451589       10.3706307602
 Ga         4.8647843521        4.6828889567       10.9926885347
  N         4.8660302563        4.6837037187       12.9661307369
 Ga         4.8559978228        2.8091432622       13.5580968301
  N         4.8332276662        2.7926327501       15.5132328412
 Ga         4.9245335851        4.6491605362       16.1698178484
  N         6.4764697331        3.7601669729       17.1057531304
  N         3.2413002828        7.5363825869        2.6058119627
 Ga         3.2441853674        5.6196371829        3.1574866811
  N         3.2444239114        5.6184153597        5.1493181035
 Ga         3.2422867179        7.4855670855        5.8088038717
  N         3.2414366375        7.4879101444        7.7796366260
 Ga         3.2450277137        5.6199244459        8.4035437645
  N         3.2442734463        5.6181803778       10.3763518987
 Ga         3.2415535777        7.4893086800       10.9917534997
  N         3.2411061541        7.4917360777       12.9648142516
 Ga         3.2449119434        5.6198369041       13.5890705236
  N         3.2485036146        5.6166542002       15.6032327473
 Ga         3.2388760921        7.5512577997       16.1749941862
 Ga         3.2210107833        9.3756588858        1.8007430601
  N         1.6588641146       10.2709422891        2.6090546620
 Ga         1.5760735052        8.3948518423        3.2368189405
  N         1.6261162896        8.4228552882        5.2067789613
 Ga         1.6139520151       10.2937337457        5.8071508145
  N         1.6226966266       10.2910862621        7.7837925483
 Ga         1.6214688530        8.4183564333        8.4008498618
  N         1.6224236596        8.4193184936       10.3720798350
 Ga         1.6205495433       10.2890765412       10.9897731315
  N         1.6227164333       10.2880710052       12.9679318077
 Ga         1.6108006126        8.4118606097       13.5606344309
  N         1.5905337819        8.4062037953       15.5139653744
 Ga         1.6727741483       10.2599003085       16.1738522136
  N         3.2288964664        9.3772693343       17.1169341978
  N         9.7199503716        1.8772288054        2.5528907052
 Ga         9.7309252715        0.0607570287        3.2324552575
  N         9.7227182910        0.0054207768        5.2099253180
 Ga         9.7259000520        1.8837762330        5.8013789192
  N         9.7245150251        1.8820816094        7.7770005941
 Ga         9.7255180625        0.0117654955        8.3992075416
  N         9.7225682064        0.0107030481       10.3761741472
 Ga         9.7275430854        1.8852726663       10.9824881548
  N         9.7228223419        1.8831956108       12.9445165444
 Ga         9.7255512241        0.0214692413       13.5555995148
  N         9.7273617828        0.0417015450       15.5162550667
 Ga         9.7227531648        1.8815701085       16.1416386911
  N         8.0668472945        4.6616887345        2.6104782095
 Ga         8.1511462043        2.7844560352        3.2354529332
  N         8.1008762930        2.8153982825        5.2060763747
 Ga         8.1117814814        4.6871576359        5.8072111653
  N         8.1042921851        4.6837901341        7.7827396846
 Ga         8.1048364304        2.8111079749        8.4000325668
  N         8.1042403902        2.8131039918       10.3714801453
 Ga         8.1051582120        4.6838059203       10.9901899757
  N         8.1011681533        4.6832829480       12.9674348681
 Ga         8.1123363947        2.8071304027       13.5621575811
  N         8.1325157348        2.7965320635       15.5183603130
 Ga         8.0596309386        4.6600033601       16.1720026351
  N         6.4750297506        7.4884003896        2.5541091945
 Ga         6.4855528384        5.6743160707        3.2374171041
  N         6.4837725016        5.6120810709        5.2083239208
 Ga         6.4819506756        7.4885938952        5.7988891602
  N         6.4809108600        7.4874883745        7.7754105292
 Ga         6.4820413575        5.6177606531        8.4012459769
  N         6.4828749812        5.6162121699       10.3735518990
 Ga         6.4836234857        7.4886744500       10.9815976948
  N         6.4790115761        7.4871719932       12.9440386924
 Ga         6.4816407595        5.6290071389       13.5617133950
  N         6.4861406038        5.6568179724       15.5171119311
 Ga         6.4787283201        7.4923235603       16.1327904982
  N         4.8309480806       10.2707323198        2.6057216277
 Ga         4.9046019626        8.3961250689        3.2355251494
  N         4.8573819017        8.4214715139        5.2052241320
 Ga         4.8717438732       10.2947890717        5.8043434257
  N         4.8647006611       10.2903052750        7.7854333895
 Ga         4.8610589258        8.4156861984        8.4020559226
  N         4.8606251429        8.4181144449       10.3730354022
 Ga         4.8631268297       10.2908398779       10.9871799535
  N         4.8661230019       10.2874729058       12.9695562273
 Ga         4.8691733834        8.4103014159       13.5650689457
  N         4.8868000276        8.4105664161       15.5198689410
 Ga         4.8208590317       10.2699624460       16.1777700896
     200
 i =        2, E =     -8456.3081987512
  N         0.0211388410        2.0216150494        2.6043469825
 Ga         0.0106858013        0.0404419832        3.0041797791
  N         0.0114683691        0.0386630799        5.0599411466
 Ga         0.0222915706        1.8951136775        5.8114728488
  N         0.0203479477        1.9005186607        7.7819539687
 Ga         0.0144720664        0.0409266256        8.4023516408
  N         0.0105964473        0.0430303181       10.3845318286
 Ga         0.0220315455        1.9084580045       10.9912241600
  N         0.0196979358        1.8903337614       12.9667718548
 Ga         0.0144068950        0.0362237526       13.6768030256
  N         0.0133408019        0.0304069723       15.7797355101
 Ga         0.0142855337        2.0434851054       16.2254591431
 Ga        -0.0017128729        3.7739412712        1.6423433342
  N        -1.5020030910        4.6365885287        2.6140770880
 Ga        -1.6935169407        2.7672772219        3.2743945880
  N        -1.5967801301        2.8299797369        5.2464241285
 Ga        -1.6086599101        4.7047684189        5.8116107757
  N        -1.6063417547        4.7004674124        7.7831088600
 Ga        -1.5951960563        2.8319059903        8.3890674488
  N        -1.5875266491        2.8352437409       10.3669479902
 Ga        -1.5988053062        4.6989146892       10.9873406149
  N        -1.6132209266        4.7033406042       12.9640461603
 Ga        -1.6156934869        2.8193233175       13.5219855142
  N        -1.6404877052        2.8059697025       15.4666433889
 Ga        -1.4696168683        4.6191231286       16.2186221871
  N         0.0051119316        3.7650729117       17.3569024494
  N        -3.2203634594        7.6087956757        2.6048771790
 Ga        -3.2247798794        5.6220536210        3.0190386884
  N        -3.2178793312        5.6222099893        5.0624631786
 Ga        -3.2183262235        7.4779270413        5.8097079316
  N        -3.2186250416        7.4787945464        7.7814223397
 Ga        -3.2186713917        5.6212334510        8.4071710298
  N        -3.2150954972        5.6231255224       10.3803128657
 Ga        -3.2174430275        7.4868073122       10.9881557213
  N        -3.2197885033        7.4706845386       12.9652116192
 Ga        -3.2222644656        5.6177968392       13.6741350093
  N        -3.2173170498        5.6159785227       15.7604771285
 Ga        -3.2292273172        7.6314295606       16.2283974011
 Ga        -3.2424218232        9.3744290922        1.6442913266
  N        -4.7444624936       10.2232670162        2.6217550120
 Ga        -4.9331449374        8.3531970099        3.2752289264
  N        -4.8373714769        8.4128250878        5.2445776794
 Ga        -4.8533526440       10.2898352012        5.8050332636
  N        -4.8349276486       10.2813551093        7.7878928309
 Ga        -4.8350627906        8.4087845752        8.3905284572
  N        -4.8276045410        8.4140355527       10.3674118715
 Ga        -4.8363209459       10.2797478391       10.9849110665
  N        -4.8462607612       10.2873809255       12.9708978753
 Ga        -4.8545112580        8.4004697944       13.5256558047
  N        -4.8783667310        8.4006680105       15.4711412119
 Ga        -4.7189674640       10.2166469786       16.2145198915
  N        -3.2445208352        9.3615328732       17.3675379003
  N         3.2459079230        1.9011075178        2.5529913305
 Ga         3.2541205243        0.1545490863        3.2649926529
  N         3.2382055286        0.0391321430        5.2429083139
 Ga         3.2461115813        1.9034039346        5.8314554916
  N         3.2456970518        1.9053452417        7.7979774540
 Ga         3.2489328741        0.0404980512        8.3894175538
  N         3.2420899876        0.0339294573       10.3703512524
 Ga         3.2464539404        1.9062473514       10.9494296304
  N         3.2430688052        1.9073233622       12.8920802182
 Ga         3.2487988927        0.0630260702       13.5184514088
  N         3.2405309386        0.0937746276       15.4637887979
 Ga         3.2434335072        1.9020863944       15.9780737157
  N         1.5238036217        4.6351297762        2.6193063303
 Ga         1.7362279329        2.7657084198        3.2728986015
  N         1.6339290853        2.8274552474        5.2400557079
 Ga         1.6346207553        4.6964098205        5.8095160933
  N         1.6325723432        4.6965026917        7.7820946044
 Ga         1.6312445850        2.8311497444        8.3928269651
  N         1.6269474674        2.8321877750       10.3638755572
 Ga         1.6273165751        4.6918829072       10.9849848459
  N         1.6381427429        4.6989446430       12.9627503780
 Ga         1.6483552441        2.8192893295       13.5318246899
  N         1.6767505308        2.7954798401       15.4745267787
 Ga         1.4968799652        4.6220985917       16.2106764882
  N         0.0044974125        7.4879820246        2.5586610034
 Ga         0.0098716138        5.7446314873        3.2786038657
  N         0.0121164605        5.6242686379        5.2425443409
 Ga         0.0058860473        7.4838398072        5.8309056173
  N         0.0052672809        7.4840785473        7.7973331997
 Ga         0.0120488130        5.6205989591        8.3933558527
  N         0.0132311451        5.6152064527       10.3646253048
 Ga         0.0053082391        7.4830016901       10.9501641830
  N         0.0029383019        7.4860002362       12.8963108492
 Ga         0.0112553055        5.6432544234       13.5273212788
  N         0.0061543061        5.6831036814       15.4666500572
 Ga         0.0027222381        7.4894426824       15.9677574987
  N        -1.6994641666       10.2133536809        2.6104283077
 Ga        -1.5090697876        8.3525859564        3.2747140024
  N        -1.6046723718        8.4077728698        5.2385495564
 Ga        -1.5976958528       10.2764073929        5.8073989499
  N        -1.5946235819       10.2759605831        7.7886318363
 Ga        -1.6088953248        8.4079166920        8.3950626600
  N        -1.6121323058        8.4110409561       10.3641236934
 Ga        -1.6067297323       10.2712713205       10.9823635906
  N        -1.5856451024       10.2795126230       12.9684560193
 Ga        -1.5934007923        8.3997757199       13.5362165829
  N        -1.5692479995        8.3866599207       15.4805101831
 Ga        -1.7390714416       10.2053435776       16.2238079323
  N         6.4739753369        2.0128488061        2.6069091308
 Ga         6.4792801236        0.0370509162        3.0209853018
  N         6.4743635065        0.0320438938        5.0634120930
 Ga         6.4776103908        1.8855738753        5.8092951892
  N         6.4746092541        1.8898351715        7.7802464023
 Ga         6.4775628865        0.0355890112        8.4087677337
  N         6.4702273524        0.0343846698       10.3819303833
 Ga         6.4761522657        1.8963711236       10.9885815088
  N         6.4740658106        1.8824864852       12.9642617271
 Ga         6.4823535544        0.0345259170       13.6779371640
  N         6.4807295416        0.0256176370       15.7664682393
 Ga         6.4742784188        2.0335465282       16.2187882479
 Ga         6.4577312763        3.7636424936        1.6400393388
  N         4.9576168982        4.6259901348        2.6173031926
 Ga         4.7573487295        2.7574502634        3.2782808368
  N         4.8627575266        2.8213675577        5.2430187419
 Ga         4.8490661136        4.6905279301        5.8092693645
  N         4.8480805642        4.6890879530        7.7812007408
 Ga         4.8639760718        2.8243206216        8.3934600746
  N         4.8694810140        2.8254006464       10.3641554488
 Ga         4.8557147308        4.6849466753       10.9854907862
  N         4.8431609437        4.6910643634       12.9626829664
 Ga         4.8425835166        2.8112577864       13.5289198326
  N         4.8136560923        2.7914114064       15.4681406686
 Ga         4.9933002218        4.6058891903       16.2115967853
  N         6.4795125893        3.7583453878       17.3557531304
  N         3.2321701051        7.6004033445        2.6070431213
 Ga         3.2401659438        5.6176955192        3.0337579039
  N         3.2434674085        5.6148342975        5.0658337531
 Ga         3.2365629815        7.4681292194        5.8073553518
  N         3.2346977794        7.4685883828        7.7796584983
 Ga         3.2420098952        5.6145225690        8.4121196807
  N         3.2429257490        5.6138668274       10.3783195550
 Ga         3.2361843151        7.4747036018       10.9854444990
  N         3.2342389209        7.4629613995       12.9630245886
 Ga         3.2428704788        5.6143995532       13.6751130198
  N         3.2469487115        5.6103884494       15.7486878986
 Ga         3.2295561185        7.6195029242       16.2215948296
 Ga         3.2173776877        9.3643964895        1.6400587505
  N         1.7149606199       10.2122622462        2.6245298917
 Ga         1.5181301680        8.3436527113        3.2784441437
  N         1.6210373521        8.4031538665        5.2406064261
 Ga         1.6045861190       10.2742217085        5.8031571257
  N         1.6193208131       10.2694477610        7.7855094161
 Ga         1.6229826542        8.4011599788        8.3947206756
  N         1.6283443287        8.4038162195       10.3643761121
 Ga         1.6180653520       10.2648826982       10.9831838954
  N         1.6109373866       10.2744154313       12.9685166050
 Ga         1.6032150277        8.3925274812       13.5321925076
  N         1.5753392059        8.3853349037       15.4721860319
 Ga         1.7439668755       10.2026762453       16.2080071426
  N         3.2313608970        9.3542732961       17.3657623585
  N         9.6944764788        1.8855070163        2.5409790935
 Ga         9.7121422327        0.1390110168        3.2669218524
  N         9.6965544793        0.0286486652        5.2425796352
 Ga         9.7032787724        1.8944311591        5.8321045986
  N         9.7009611426        1.8948182923        7.8039367384
 Ga         9.7021226585        0.0248660910        8.3918182467
  N         9.6965629828        0.0219050975       10.3719491370
 Ga         9.7054819113        1.8983173407       10.9455572319
  N         9.6985784188        1.8960946698       12.8937990085
 Ga         9.7034313382        0.0499362010       13.5216038542
  N         9.7036854301        0.0819471174       15.4655651273
 Ga         9.6933627481        1.8882133214       15.9935325493
  N         7.9885058654        4.6284933337        2.6229570359
 Ga         8.1879733107        2.7545451486        3.2742656316
  N         8.0908150760        2.8189108799        5.2387950652
 Ga         8.1031351251        4.6945821074        5.8009838391
  N         8.0898695975        4.6869942350        7.7822014635
 Ga         8.0834318407        2.8186225259        8.3961517671
  N         8.0811827950        2.8222341066       10.3655109909
 Ga         8.0876763332        4.6854897809       10.9833677144
  N         8.0971465781        4.6911076601       12.9684414272
 Ga         8.1031299464        2.8065766798       13.5346859440
  N         8.1338467658        2.7905372777       15.4752220609
 Ga         7.9739696799        4.6245658692       16.2023769011
  N         6.4532389200        7.4727170507        2.5453147875
 Ga         6.4683489188        5.7304946496        3.2808108321
  N         6.4699649105        5.6143320636        5.2418497840
 Ga         6.4637249442        7.4755377027        5.8303598277
  N         6.4614459917        7.4739809417        7.8024900493
 Ga         6.4654730974        5.6058461252        8.3962201029
  N         6.4678602816        5.6039558946       10.3658379598
 Ga         6.4655562715        7.4756198778       10.9462287763
  N         6.4593784301        7.4757933173       12.8977131246
 Ga         6.4655946741        5.6314502916       13.5300759150
  N         6.4684914422        5.6719642329       15.4674170719
 Ga         6.4530653142        7.4759863625       15.9845064348
  N         4.7661803293       10.2072087826        2.6166885889
 Ga         4.9433521730        8.3414476233        3.2760311115
  N         4.8519232049        8.3992935039        5.2374552703
 Ga         4.8735799689       10.2763034369        5.7966584643
  N         4.8636891875       10.2674231546        7.7887375315
 Ga         4.8437171765        8.3957237680        8.3977847940
  N         4.8426718864        8.4008832988       10.3655558561
 Ga         4.8557004756       10.2662928570       10.9798337021
  N         4.8752473461       10.2726065666       12.9753141566
 Ga         4.8620233129        8.3874091828       13.5392233154
  N         4.8876871036        8.3820373772       15.4814475398
 Ga         4.7412757220       10.2105856435       16.2125648453
     200
 i =        3, E =     -8456.3986795361
  N         0.0258603913        2.0515527816        2.5760168991
 Ga         0.0154351535        0.0494600833        2.9212574945
  N         0.0169149432        0.0525353006        5.0158928528
 Ga         0.0285510947        1.8953844605        5.7945515336
  N         0.0269294333        1.9021457210        7.7699687944
 Ga         0.0208007819        0.0528533607        8.4022310320
  N         0.0168396940        0.0561715358       10.3754543200
 Ga         0.0283104024        1.9062160456       10.9941182113
  N         0.0244459472        1.8823339925       12.9731308075
 Ga         0.0218465354        0.0474232537       13.7284290543
  N         0.0178419631        0.0463385707       15.8786368040
 Ga         0.0175511964        2.0799055443       16.3128086281
 Ga         0.0092947810        3.7762217250        1.5362619012
  N        -1.4717031747        4.6267233791        2.5854823792
 Ga        -1.6938564455        2.7678647409        3.3001689656
  N        -1.5916745398        2.8328235424        5.2656394611
 Ga        -1.6087849927        4.7099926322        5.7945281522
  N        -1.6010513052        4.7041335931        7.7704404596
 Ga        -1.5772895985        2.8420223845        8.3860947931
  N        -1.5697416333        2.8460137513       10.3667269110
 Ga        -1.5977810057        4.7054634787       10.9904254164
  N        -1.6189829580        4.7120111482       12.9682408511
 Ga        -1.5991132386        2.8306696071       13.4932835000
  N        -1.6179151780        2.8212174223       15.4446288878
 Ga        -1.4394550937        4.6070188119       16.3037879487
  N         0.0235402965        3.7676831504       17.4356747765
  N        -3.2114523127        7.6284759171        2.5775801865
 Ga        -3.2125926275        5.6201470246        2.9375098506
  N        -3.2029135843        5.6231991801        5.0161333576
 Ga        -3.2075345910        7.4637232667        5.7944409803
  N        -3.2073284758        7.4691113329        7.7707783219
 Ga        -3.2048727605        5.6203199483        8.4051233945
  N        -3.2004816500        5.6231333507       10.3710135414
 Ga        -3.2064517674        7.4718147100       10.9925182981
  N        -3.2104660089        7.4495441160       12.9721958287
 Ga        -3.2067773850        5.6174561387       13.7298869160
  N        -3.2048986140        5.6172025957       15.8578912098
 Ga        -3.2234741808        7.6528094914       16.3135291234
 Ga        -3.2270307585        9.3634071734        1.5357537578
  N        -4.7036947882       10.2019195387        2.5961436689
 Ga        -4.9305868753        8.3390847117        3.3010358450
  N        -4.8266475471        8.4031533225        5.2655514131
 Ga        -4.8417753745       10.2832716461        5.7888141134
  N        -4.8212409542       10.2739516259        7.7740506450
 Ga        -4.8122699179        8.4091954255        8.3870750234
  N        -4.8045883687        8.4122058847       10.3675280740
 Ga        -4.8255110575       10.2739174756       10.9868767820
  N        -4.8396113305       10.2842555119       12.9731935835
 Ga        -4.8326876788        8.4003401114       13.4954245327
  N        -4.8557129561        8.4008506516       15.4480467437
 Ga        -4.6824339679       10.1931457226       16.2943559914
  N        -3.2238123668        9.3468358811       17.4458316604
  N         3.2454052880        1.9102138068        2.5799171126
 Ga         3.2526935185        0.1815255876        3.2948465439
  N         3.2361359355        0.0610156402        5.2659601018
 Ga         3.2449223840        1.9110567587        5.8660648350
  N         3.2447437827        1.9111726672        7.8256395456
 Ga         3.2450041091        0.0433055034        8.3864390357
  N         3.2393880391        0.0376860850       10.3688654379