 DBCSR| Multiplication driver                                               BLAS
 DBCSR| Multrec recursion limit                                              512
 DBCSR| Multiplication stack size                                           1000
 DBCSR| Maximum elements for images                                    UNLIMITED
 DBCSR| Multiplicative factor virtual images                                   1
 DBCSR| Multiplication size stacks                                             3
 DBCSR| Number of 3D layers                                               SINGLE
 DBCSR| Use MPI memory allocation                                              T
 DBCSR| Use RMA algorithm                                                      F
 DBCSR| Use Communication thread                                               T
 DBCSR| Communication thread load                                             87


  **** **** ******  **  PROGRAM STARTED AT               2019-06-23 21:16:49.897
 ***** ** ***  *** **   PROGRAM STARTED ON        blg9132.int.ets1.calculquebec.
 **    ****   ******    PROGRAM STARTED BY                                   rzk
 ***** **    ** ** **   PROGRAM PROCESS ID                                442892
  **** **  *******  **  PROGRAM STARTED IN /scratch/rzk/rzk/GaN-carbene/443-adat
                                           oms-both-2x2/00-Bulk-optimization

 CP2K| version string:                    CP2K version 7.0 (Development Version)
 CP2K| source code revision number:                                    svn:18619
 CP2K| cp2kflags: libint fftw3 libxc parallel mpi3 scalapack mkl                
 CP2K| is freely available from                            https://www.cp2k.org/
 CP2K| Program compiled at                          Sun Apr  7 00:48:11 EDT 2019
 CP2K| Program compiled on                      beluga2.int.ets1.calculquebec.ca
 CP2K| Program compiled for                    Beluga-Linux-x86-64-intel-openmpi
 CP2K| Data directory path    /home/rzk/projects/def-rzk/group/cp2k/cp2k-mcgill/
 CP2K| Input file name                                                 start.inp
 
 GLOBAL| Force Environment number                                              1
 GLOBAL| Basis set file name                                        BASIS_MOLOPT
 GLOBAL| Potential file name                                      GTH_POTENTIALS
 GLOBAL| MM Potential file name                                     MM_POTENTIAL
 GLOBAL| Coordinate file name                                      __STD_INPUT__
 GLOBAL| Method name                                                        CP2K
 GLOBAL| Project name                                                       TEST
 GLOBAL| Preferred FFT library                                             FFTW3
 GLOBAL| Preferred diagonalization lib.                                       SL
 GLOBAL| Run type                                                       CELL_OPT
 GLOBAL| All-to-all communication in single precision                          F
 GLOBAL| FFTs using library dependent lengths                                  F
 GLOBAL| Global print level                                               MEDIUM
 GLOBAL| MPI I/O enabled                                                       T
 GLOBAL| Total number of message passing processes                            80
 GLOBAL| Number of threads for this process                                    1
 GLOBAL| This output is from process                                           0
 GLOBAL| CPU model name :  Intel(R) Xeon(R) Gold 6148 CPU @ 2.40GHz

 MEMORY| system memory details [Kb]
 MEMORY|                        rank 0           min           max       average
 MEMORY| MemTotal            196614300     196614300     196614300     196614300
 MEMORY| MemFree             179530224     171766368     179533324     175663863
 MEMORY| Buffers                     0             0             0             0
 MEMORY| Cached                4289436       4289436       8961308       6625372
 MEMORY| Slab                  1796068       1796068       2223336       2009702
 MEMORY| SReclaimable           378416        166744        378416        272580
 MEMORY| MemLikelyFree       184198076     180894420     184201176     182561815


 *** Fundamental physical constants (SI units) ***

 *** Literature: B. J. Mohr and B. N. Taylor,
 ***             CODATA recommended values of the fundamental physical
 ***             constants: 2006, Web Version 5.1
 ***             http://physics.nist.gov/constants

 Speed of light in vacuum [m/s]                             2.99792458000000E+08
 Magnetic constant or permeability of vacuum [N/A**2]       1.25663706143592E-06
 Electric constant or permittivity of vacuum [F/m]          8.85418781762039E-12
 Planck constant (h) [J*s]                                  6.62606896000000E-34
 Planck constant (h-bar) [J*s]                              1.05457162825177E-34
 Elementary charge [C]                                      1.60217648700000E-19
 Electron mass [kg]                                         9.10938215000000E-31
 Electron g factor [ ]                                     -2.00231930436220E+00
 Proton mass [kg]                                           1.67262163700000E-27
 Fine-structure constant                                    7.29735253760000E-03
 Rydberg constant [1/m]                                     1.09737315685270E+07
 Avogadro constant [1/mol]                                  6.02214179000000E+23
 Boltzmann constant [J/K]                                   1.38065040000000E-23
 Atomic mass unit [kg]                                      1.66053878200000E-27
 Bohr radius [m]                                            5.29177208590000E-11

 *** Conversion factors ***

 [u] -> [a.u.]                                              1.82288848426455E+03
 [Angstrom] -> [Bohr] = [a.u.]                              1.88972613288564E+00
 [a.u.] = [Bohr] -> [Angstrom]                              5.29177208590000E-01
 [a.u.] -> [s]                                              2.41888432650478E-17
 [a.u.] -> [fs]                                             2.41888432650478E-02
 [a.u.] -> [J]                                              4.35974393937059E-18
 [a.u.] -> [N]                                              8.23872205491840E-08
 [a.u.] -> [K]                                              3.15774647902944E+05
 [a.u.] -> [kJ/mol]                                         2.62549961709828E+03
 [a.u.] -> [kcal/mol]                                       6.27509468713739E+02
 [a.u.] -> [Pa]                                             2.94210107994716E+13
 [a.u.] -> [bar]                                            2.94210107994716E+08
 [a.u.] -> [atm]                                            2.90362800883016E+08
 [a.u.] -> [eV]                                             2.72113838565563E+01
 [a.u.] -> [Hz]                                             6.57968392072181E+15
 [a.u.] -> [1/cm] (wave numbers)                            2.19474631370540E+05
 [a.u./Bohr**2] -> [1/cm]                                   5.14048714338585E+03
 

 CELL_TOP| Volume [angstrom^3]:                                         2270.865
 CELL_TOP| Vector a [angstrom    12.982     0.000     0.000    |a| =      12.982
 CELL_TOP| Vector b [angstrom    -6.491    11.243     0.000    |b| =      12.982
 CELL_TOP| Vector c [angstrom     0.000     0.000    15.558    |c| =      15.558
 CELL_TOP| Angle (b,c), alpha [degree]:                                   90.000
 CELL_TOP| Angle (a,c), beta  [degree]:                                   90.000
 CELL_TOP| Angle (a,b), gamma [degree]:                                  120.000
 CELL_TOP| Numerically orthorhombic:                                          NO
 
 GENERATE|  Preliminary Number of Bonds generated:                             0
 GENERATE|  Achieved consistency in connectivity generation.

 CELL| Volume [angstrom^3]:                                             2270.865
 CELL| Vector a [angstrom]:      12.982     0.000     0.000    |a| =      12.982
 CELL| Vector b [angstrom]:      -6.491    11.243     0.000    |b| =      12.982
 CELL| Vector c [angstrom]:       0.000     0.000    15.558    |c| =      15.558
 CELL| Angle (b,c), alpha [degree]:                                       90.000
 CELL| Angle (a,c), beta  [degree]:                                       90.000
 CELL| Angle (a,b), gamma [degree]:                                      120.000
 CELL| Numerically orthorhombic:                                              NO

 CELL_REF| Volume [angstrom^3]:                                         2270.865
 CELL_REF| Vector a [angstrom    12.982     0.000     0.000    |a| =      12.982
 CELL_REF| Vector b [angstrom    -6.491    11.243     0.000    |b| =      12.982
 CELL_REF| Vector c [angstrom     0.000     0.000    15.558    |c| =      15.558
 CELL_REF| Angle (b,c), alpha [degree]:                                   90.000
 CELL_REF| Angle (a,c), beta  [degree]:                                   90.000
 CELL_REF| Angle (a,b), gamma [degree]:                                  120.000
 CELL_REF| Numerically orthorhombic:                                          NO

 *******************************************************************************
 *******************************************************************************
 **                                                                           **
 **     #####                         ##              ##                      **
 **    ##   ##            ##          ##              ##                      **
 **   ##     ##                       ##            ######                    **
 **   ##     ##  ##   ##  ##   #####  ##  ##   ####   ##    #####    #####    **
 **   ##     ##  ##   ##  ##  ##      ## ##   ##      ##   ##   ##  ##   ##   **
 **   ##  ## ##  ##   ##  ##  ##      ####     ###    ##   ######   ######    **
 **    ##  ###   ##   ##  ##  ##      ## ##      ##   ##   ##       ##        **
 **     #######   #####   ##   #####  ##  ##  ####    ##    #####   ##        **
 **           ##                                                    ##        **
 **                                                                           **
 **                                                ... make the atoms dance   **
 **                                                                           **
 **            Copyright (C) by CP2K developers group (2000 - 2018)           **
 **                                                                           **
 *******************************************************************************

 DFT| Spin restricted Kohn-Sham (RKS) calculation                            RKS
 DFT| Multiplicity                                                             1
 DFT| Number of spin states                                                    1
 DFT| Charge                                                                   0
 DFT| Self-interaction correction (SIC)                                       NO
 DFT| Cutoffs: density                                              1.000000E-10
 DFT|          gradient                                             1.000000E-10
 DFT|          tau                                                  1.000000E-10
 DFT|          cutoff_smoothing_range                               0.000000E+00
 DFT| XC density smoothing                                                  NONE
 DFT| XC derivatives                                                          PW
 FUNCTIONAL| ROUTINE=NEW
 FUNCTIONAL| PBE:
 FUNCTIONAL| J.P.Perdew, K.Burke, M.Ernzerhof, Phys. Rev. Letter, vol. 77, n 18,
 FUNCTIONAL|  pp. 3865-3868, (1996){spin unpolarized}                           
 vdW POTENTIAL|                                                   Pair Potential
 vdW POTENTIAL|          DFT-D3 (Version 3.1)
 vdW POTENTIAL|          Potential Form: S. Grimme et al, JCP 132: 154104 (2010)
 vdW POTENTIAL|          Zero Damping
 vdW POTENTIAL|          Cutoff Radius [Bohr]:                             18.90
 vdW POTENTIAL|          s6 Scaling Factor:                               1.0000
 vdW POTENTIAL|          sr6 Scaling Factor:                              1.2170
 vdW POTENTIAL|          s8 Scaling Factor:                               0.7220
 vdW POTENTIAL|          Cutoff for CN calculation:                   0.1000E-05

 QS| Method:                                                                 GPW
 QS| Density plane wave grid type                        NON-SPHERICAL FULLSPACE
 QS| Number of grid levels:                                                    5
 QS| Density cutoff [a.u.]:                                                600.0
 QS| Multi grid cutoff [a.u.]: 1) grid level                               600.0
 QS|                           2) grid level                               200.0
 QS|                           3) grid level                                66.7
 QS|                           4) grid level                                22.2
 QS|                           5) grid level                                 7.4
 QS| Grid level progression factor:                                          3.0
 QS| Relative density cutoff [a.u.]:                                        20.0
 QS| Consistent realspace mapping and integration 
 QS| Interaction thresholds: eps_pgf_orb:                                1.0E-07
 QS|                         eps_filter_matrix:                          0.0E+00
 QS|                         eps_core_charge:                            1.0E-16
 QS|                         eps_rho_gspace:                             1.0E-14
 QS|                         eps_rho_rspace:                             1.0E-14
 QS|                         eps_gvg_rspace:                             1.0E-07
 QS|                         eps_ppl:                                    1.0E-02
 QS|                         eps_ppnl:                                   1.0E-09


 ATOMIC KIND INFORMATION

  1. Atomic kind: N                                     Number of atoms:      96

     Orbital Basis Set                                        DZVP-MOLOPT-SR-GTH

       Number of orbital shell sets:                                           1
       Number of orbital shells:                                               5
       Number of primitive Cartesian functions:                                5
       Number of Cartesian basis functions:                                   14
       Number of spherical basis functions:                                   13
       Norm type:                                                              2

       Normalised Cartesian orbitals:

                        Set   Shell   Orbital            Exponent    Coefficient

                          1       1    2s                7.341988       0.360561
                                                         2.542637       0.139177
                                                         0.888575      -0.289383
                                                         0.333802      -0.182244
                                                         0.112012      -0.019197

                          1       2    3s                7.341988       0.282000
                                                         2.542637       0.177875
                                                         0.888575      -0.278381
                                                         0.333802       0.008577
                                                         0.112012       0.154176

                          1       3    3px               7.341988      -1.188719
                                                         2.542637      -0.973969
                                                         0.888575      -0.501079
                                                         0.333802      -0.144894
                                                         0.112012      -0.013986
                          1       3    3py               7.341988      -1.188719
                                                         2.542637      -0.973969
                                                         0.888575      -0.501079
                                                         0.333802      -0.144894
                                                         0.112012      -0.013986
                          1       3    3pz               7.341988      -1.188719
                                                         2.542637      -0.973969
                                                         0.888575      -0.501079
                                                         0.333802      -0.144894
                                                         0.112012      -0.013986

                          1       4    4px               7.341988      -0.094798
                                                         2.542637       0.050069
                                                         0.888575      -0.114797
                                                         0.333802       0.144793
                                                         0.112012       0.066710
                          1       4    4py               7.341988      -0.094798
                                                         2.542637       0.050069
                                                         0.888575      -0.114797
                                                         0.333802       0.144793
                                                         0.112012       0.066710
                          1       4    4pz               7.341988      -0.094798
                                                         2.542637       0.050069
                                                         0.888575      -0.114797
                                                         0.333802       0.144793
                                                         0.112012       0.066710

                          1       5    4dx2              7.341988       1.354688
                                                         2.542637       0.690378
                                                         0.888575       0.855359
                                                         0.333802       0.091746
                                                         0.112012       0.001253
                          1       5    4dxy              7.341988       2.346389
                                                         2.542637       1.195770
                                                         0.888575       1.481524
                                                         0.333802       0.158910
                                                         0.112012       0.002169
                          1       5    4dxz              7.341988       2.346389
                                                         2.542637       1.195770
                                                         0.888575       1.481524
                                                         0.333802       0.158910
                                                         0.112012       0.002169
                          1       5    4dy2              7.341988       1.354688
                                                         2.542637       0.690378
                                                         0.888575       0.855359
                                                         0.333802       0.091746
                                                         0.112012       0.001253
                          1       5    4dyz              7.341988       2.346389
                                                         2.542637       1.195770
                                                         0.888575       1.481524
                                                         0.333802       0.158910
                                                         0.112012       0.002169
                          1       5    4dz2              7.341988       1.354688
                                                         2.542637       0.690378
                                                         0.888575       0.855359
                                                         0.333802       0.091746
                                                         0.112012       0.001253

     GTH Potential information for                                    GTH-PBE-q5

       Description:                       Goedecker-Teter-Hutter pseudopotential
                                           Goedecker et al., PRB 54, 1703 (1996)
                                          Hartwigsen et al., PRB 58, 3641 (1998)
                                                      Krack, TCA 114, 145 (2005)

       Gaussian exponent of the core charge distribution:               6.208322
       Electronic configuration (s p d ...):                               2   3

       Parameters of the local part of the GTH pseudopotential:

                          rloc        C1          C2          C3          C4
                        0.283791  -12.415226    1.868096

       Parameters of the non-local part of the GTH pseudopotential:

                   l      r(l)      h(i,j,l)

                   0    0.255405   13.630263
                   1    0.245495

  2. Atomic kind: Ga                                    Number of atoms:      96

     Orbital Basis Set                                        DZVP-MOLOPT-SR-GTH

       Number of orbital shell sets:                                           1
       Number of orbital shells:                                               7
       Number of primitive Cartesian functions:                                6
       Number of Cartesian basis functions:                                   30
       Number of spherical basis functions:                                   25
       Norm type:                                                              2

       Normalised Cartesian orbitals:

                        Set   Shell   Orbital            Exponent    Coefficient

                          1       1    2s                7.066654       0.013136
                                                         3.428369      -0.094392
                                                         1.430064       0.265435
                                                         0.571611       0.056465
                                                         0.232197      -0.192187
                                                         0.076562      -0.044987

                          1       2    3s                7.066654      -0.098564
                                                         3.428369       0.010390
                                                         1.430064       0.351249
                                                         0.571611       0.182615
                                                         0.232197      -0.425358
                                                         0.076562       0.190349

                          1       3    3px               7.066654       0.002364
                                                         3.428369       0.019222
                                                         1.430064       0.250132
                                                         0.571611      -0.058486
                                                         0.232197      -0.159451
                                                         0.076562      -0.020696
                          1       3    3py               7.066654       0.002364
                                                         3.428369       0.019222
                                                         1.430064       0.250132
                                                         0.571611      -0.058486
                                                         0.232197      -0.159451
                                                         0.076562      -0.020696
                          1       3    3pz               7.066654       0.002364
                                                         3.428369       0.019222
                                                         1.430064       0.250132
                                                         0.571611      -0.058486
                                                         0.232197      -0.159451
                                                         0.076562      -0.020696

                          1       4    4px               7.066654       0.492448
                                                         3.428369      -0.614736
                                                         1.430064      -0.191654
                                                         0.571611       0.037801
                                                         0.232197       0.302315
                                                         0.076562      -0.071336
                          1       4    4py               7.066654       0.492448
                                                         3.428369      -0.614736
                                                         1.430064      -0.191654
                                                         0.571611       0.037801
                                                         0.232197       0.302315
                                                         0.076562      -0.071336
                          1       4    4pz               7.066654       0.492448
                                                         3.428369      -0.614736
                                                         1.430064      -0.191654
                                                         0.571611       0.037801
                                                         0.232197       0.302315
                                                         0.076562      -0.071336

                          1       5    4dx2              7.066654     -15.264855
                                                         3.428369      -5.345726
                                                         1.430064      -1.022732
                                                         0.571611      -0.123148
                                                         0.232197      -0.006983
                                                         0.076562      -0.000022
                          1       5    4dxy              7.066654     -26.439504
                                                         3.428369      -9.259069
                                                         1.430064      -1.771423
                                                         0.571611      -0.213299
                                                         0.232197      -0.012094
                                                         0.076562      -0.000037
                          1       5    4dxz              7.066654     -26.439504
                                                         3.428369      -9.259069
                                                         1.430064      -1.771423
                                                         0.571611      -0.213299
                                                         0.232197      -0.012094
                                                         0.076562      -0.000037
                          1       5    4dy2              7.066654     -15.264855
                                                         3.428369      -5.345726
                                                         1.430064      -1.022732
                                                         0.571611      -0.123148
                                                         0.232197      -0.006983
                                                         0.076562      -0.000022
                          1       5    4dyz              7.066654     -26.439504
                                                         3.428369      -9.259069
                                                         1.430064      -1.771423
                                                         0.571611      -0.213299
                                                         0.232197      -0.012094
                                                         0.076562      -0.000037
                          1       5    4dz2              7.066654     -15.264855
                                                         3.428369      -5.345726
                                                         1.430064      -1.022732
                                                         0.571611      -0.123148
                                                         0.232197      -0.006983
                                                         0.076562      -0.000022

                          1       6    5dx2              7.066654      -5.739265
                                                         3.428369      -2.129289
                                                         1.430064      -0.700423
                                                         0.571611       0.161606
                                                         0.232197       0.043513
                                                         0.076562       0.011205
                          1       6    5dxy              7.066654      -9.940698
                                                         3.428369      -3.688037
                                                         1.430064      -1.213168
                                                         0.571611       0.279909
                                                         0.232197       0.075368
                                                         0.076562       0.019407
                          1       6    5dxz              7.066654      -9.940698
                                                         3.428369      -3.688037
                                                         1.430064      -1.213168
                                                         0.571611       0.279909
                                                         0.232197       0.075368
                                                         0.076562       0.019407
                          1       6    5dy2              7.066654      -5.739265
                                                         3.428369      -2.129289
                                                         1.430064      -0.700423
                                                         0.571611       0.161606
                                                         0.232197       0.043513
                                                         0.076562       0.011205
                          1       6    5dyz              7.066654      -9.940698
                                                         3.428369      -3.688037
                                                         1.430064      -1.213168
                                                         0.571611       0.279909
                                                         0.232197       0.075368
                                                         0.076562       0.019407
                          1       6    5dz2              7.066654      -5.739265
                                                         3.428369      -2.129289
                                                         1.430064      -0.700423
                                                         0.571611       0.161606
                                                         0.232197       0.043513
                                                         0.076562       0.011205

                          1       7    5fx3              7.066654       0.705879
                                                         3.428369      -0.273976
                                                         1.430064       0.113667
                                                         0.571611       0.132480
                                                         0.232197       0.012437
                                                         0.076562       0.003241
                          1       7    5fx2y             7.066654       1.578393
                                                         3.428369      -0.612629
                                                         1.430064       0.254167
                                                         0.571611       0.296234
                                                         0.232197       0.027811
                                                         0.076562       0.007246
                          1       7    5fx2z             7.066654       1.578393
                                                         3.428369      -0.612629
                                                         1.430064       0.254167
                                                         0.571611       0.296234
                                                         0.232197       0.027811
                                                         0.076562       0.007246
                          1       7    5fxy2             7.066654       1.578393
                                                         3.428369      -0.612629
                                                         1.430064       0.254167
                                                         0.571611       0.296234
                                                         0.232197       0.027811
                                                         0.076562       0.007246
                          1       7    5fxyz             7.066654       2.733856
                                                         3.428369      -1.061105
                                                         1.430064       0.440230
                                                         0.571611       0.513092
                                                         0.232197       0.048170
                                                         0.076562       0.012551
                          1       7    5fxz2             7.066654       1.578393
                                                         3.428369      -0.612629
                                                         1.430064       0.254167
                                                         0.571611       0.296234
                                                         0.232197       0.027811
                                                         0.076562       0.007246
                          1       7    5fy3              7.066654       0.705879
                                                         3.428369      -0.273976
                                                         1.430064       0.113667
                                                         0.571611       0.132480
                                                         0.232197       0.012437
                                                         0.076562       0.003241
                          1       7    5fy2z             7.066654       1.578393
                                                         3.428369      -0.612629
                                                         1.430064       0.254167
                                                         0.571611       0.296234
                                                         0.232197       0.027811
                                                         0.076562       0.007246
                          1       7    5fyz2             7.066654       1.578393
                                                         3.428369      -0.612629
                                                         1.430064       0.254167
                                                         0.571611       0.296234
                                                         0.232197       0.027811
                                                         0.076562       0.007246
                          1       7    5fz3              7.066654       0.705879
                                                         3.428369      -0.273976
                                                         1.430064       0.113667
                                                         0.571611       0.132480
                                                         0.232197       0.012437
                                                         0.076562       0.003241

     GTH Potential information for                                   GTH-PBE-q13

       Description:                       Goedecker-Teter-Hutter pseudopotential
                                           Goedecker et al., PRB 54, 1703 (1996)
                                          Hartwigsen et al., PRB 58, 3641 (1998)
                                                      Krack, TCA 114, 145 (2005)

       Gaussian exponent of the core charge distribution:               2.082466
       Electronic configuration (s p d ...):                           2   1  10

       Parameters of the local part of the GTH pseudopotential:

                          rloc        C1          C2          C3          C4
                        0.490000

       Parameters of the non-local part of the GTH pseudopotential:

                   l      r(l)      h(i,j,l)

                   0    0.416777   10.475690   -4.921768    0.870706
                                   -4.921768    7.770178   -2.248152
                                    0.870706   -2.248152    1.784415
                   1    0.569627    1.777985    0.195860
                                    0.195860   -0.231744
                   2    0.238126  -16.248680


 MOLECULE KIND INFORMATION


 All atoms are their own molecule, skipping detailed information


 TOTAL NUMBERS AND MAXIMUM NUMBERS

  Total number of            - Atomic kinds:                                   2
                             - Atoms:                                        192
                             - Shell sets:                                   192
                             - Shells:                                      1152
                             - Primitive Cartesian functions:               1056
                             - Cartesian basis functions:                   4224
                             - Spherical basis functions:                   3648

  Maximum angular momentum of- Orbital basis functions:                        3
                             - Local part of the GTH pseudopotential:          2
                             - Non-local part of the GTH pseudopotential:      4


 MODULE QUICKSTEP:  ATOMIC COORDINATES IN angstrom

  Atom  Kind  Element       X           Y           Z          Z(eff)       Mass

       1     1 N    7    0.000000    0.000000    0.000000      5.00      14.0067
       2     2 Ga  31    0.000000    1.873841    0.619431     13.00      69.7230
       3     1 N    7    0.000000    1.873841    2.593000      5.00      14.0067
       4     2 Ga  31    0.000000    0.000000    3.212431     13.00      69.7230
       5     1 N    7    0.000000    0.000000    5.186000      5.00      14.0067
       6     2 Ga  31    0.000000    1.873841    5.805431     13.00      69.7230
       7     1 N    7    0.000000    1.873841    7.779000      5.00      14.0067
       8     2 Ga  31    0.000000    0.000000    8.398431     13.00      69.7230
       9     1 N    7    0.000000    0.000000   10.372000      5.00      14.0067
      10     2 Ga  31    0.000000    1.873841   10.991431     13.00      69.7230
      11     1 N    7    0.000000    1.873841   12.965000      5.00      14.0067
      12     2 Ga  31    0.000000    0.000000   13.584431     13.00      69.7230
      13     1 N    7   -1.622794    2.810762    0.000000      5.00      14.0067
      14     2 Ga  31   -1.622794    4.684603    0.619431     13.00      69.7230
      15     1 N    7   -1.622794    4.684603    2.593000      5.00      14.0067
      16     2 Ga  31   -1.622794    2.810762    3.212431     13.00      69.7230
      17     1 N    7   -1.622794    2.810762    5.186000      5.00      14.0067
      18     2 Ga  31   -1.622794    4.684603    5.805431     13.00      69.7230
      19     1 N    7   -1.622794    4.684603    7.779000      5.00      14.0067
      20     2 Ga  31   -1.622794    2.810762    8.398431     13.00      69.7230
      21     1 N    7   -1.622794    2.810762   10.372000      5.00      14.0067
      22     2 Ga  31   -1.622794    4.684603   10.991431     13.00      69.7230
      23     1 N    7   -1.622794    4.684603   12.965000      5.00      14.0067
      24     2 Ga  31   -1.622794    2.810762   13.584431     13.00      69.7230
      25     1 N    7   -3.245588    5.621524    0.000000      5.00      14.0067
      26     2 Ga  31   -3.245588    7.495365    0.619431     13.00      69.7230
      27     1 N    7   -3.245588    7.495365    2.593000      5.00      14.0067
      28     2 Ga  31   -3.245588    5.621524    3.212431     13.00      69.7230
      29     1 N    7   -3.245588    5.621524    5.186000      5.00      14.0067
      30     2 Ga  31   -3.245588    7.495365    5.805431     13.00      69.7230
      31     1 N    7   -3.245588    7.495365    7.779000      5.00      14.0067
      32     2 Ga  31   -3.245588    5.621524    8.398431     13.00      69.7230
      33     1 N    7   -3.245588    5.621524   10.372000      5.00      14.0067
      34     2 Ga  31   -3.245588    7.495365   10.991431     13.00      69.7230
      35     1 N    7   -3.245588    7.495365   12.965000      5.00      14.0067
      36     2 Ga  31   -3.245588    5.621524   13.584431     13.00      69.7230
      37     1 N    7   -4.868383    8.432286    0.000000      5.00      14.0067
      38     2 Ga  31   -4.868383   10.306127    0.619431     13.00      69.7230
      39     1 N    7   -4.868383   10.306127    2.593000      5.00      14.0067
      40     2 Ga  31   -4.868383    8.432286    3.212431     13.00      69.7230
      41     1 N    7   -4.868383    8.432286    5.186000      5.00      14.0067
      42     2 Ga  31   -4.868383   10.306127    5.805431     13.00      69.7230
      43     1 N    7   -4.868383   10.306127    7.779000      5.00      14.0067
      44     2 Ga  31   -4.868383    8.432286    8.398431     13.00      69.7230
      45     1 N    7   -4.868383    8.432286   10.372000      5.00      14.0067
      46     2 Ga  31   -4.868383   10.306127   10.991431     13.00      69.7230
      47     1 N    7   -4.868383   10.306127   12.965000      5.00      14.0067
      48     2 Ga  31   -4.868383    8.432286   13.584431     13.00      69.7230
      49     1 N    7    3.245588    0.000000    0.000000      5.00      14.0067
      50     2 Ga  31    3.245588    1.873841    0.619431     13.00      69.7230
      51     1 N    7    3.245588    1.873841    2.593000      5.00      14.0067
      52     2 Ga  31    3.245588    0.000000    3.212431     13.00      69.7230
      53     1 N    7    3.245588    0.000000    5.186000      5.00      14.0067
      54     2 Ga  31    3.245588    1.873841    5.805431     13.00      69.7230
      55     1 N    7    3.245588    1.873841    7.779000      5.00      14.0067
      56     2 Ga  31    3.245588    0.000000    8.398431     13.00      69.7230
      57     1 N    7    3.245588    0.000000   10.372000      5.00      14.0067
      58     2 Ga  31    3.245588    1.873841   10.991431     13.00      69.7230
      59     1 N    7    3.245588    1.873841   12.965000      5.00      14.0067
      60     2 Ga  31    3.245588    0.000000   13.584431     13.00      69.7230
      61     1 N    7    1.622794    2.810762    0.000000      5.00      14.0067
      62     2 Ga  31    1.622794    4.684603    0.619431     13.00      69.7230
      63     1 N    7    1.622794    4.684603    2.593000      5.00      14.0067
      64     2 Ga  31    1.622794    2.810762    3.212431     13.00      69.7230
      65     1 N    7    1.622794    2.810762    5.186000      5.00      14.0067
      66     2 Ga  31    1.622794    4.684603    5.805431     13.00      69.7230
      67     1 N    7    1.622794    4.684603    7.779000      5.00      14.0067
      68     2 Ga  31    1.622794    2.810762    8.398431     13.00      69.7230
      69     1 N    7    1.622794    2.810762   10.372000      5.00      14.0067
      70     2 Ga  31    1.622794    4.684603   10.991431     13.00      69.7230
      71     1 N    7    1.622794    4.684603   12.965000      5.00      14.0067
      72     2 Ga  31    1.622794    2.810762   13.584431     13.00      69.7230
      73     1 N    7    0.000000    5.621524    0.000000      5.00      14.0067
      74     2 Ga  31    0.000000    7.495365    0.619431     13.00      69.7230
      75     1 N    7    0.000000    7.495365    2.593000      5.00      14.0067
      76     2 Ga  31    0.000000    5.621524    3.212431     13.00      69.7230
      77     1 N    7    0.000000    5.621524    5.186000      5.00      14.0067
      78     2 Ga  31    0.000000    7.495365    5.805431     13.00      69.7230
      79     1 N    7    0.000000    7.495365    7.779000      5.00      14.0067
      80     2 Ga  31    0.000000    5.621524    8.398431     13.00      69.7230
      81     1 N    7    0.000000    5.621524   10.372000      5.00      14.0067
      82     2 Ga  31    0.000000    7.495365   10.991431     13.00      69.7230
      83     1 N    7    0.000000    7.495365   12.965000      5.00      14.0067
      84     2 Ga  31    0.000000    5.621524   13.584431     13.00      69.7230
      85     1 N    7   -1.622794    8.432286    0.000000      5.00      14.0067
      86     2 Ga  31   -1.622794   10.306127    0.619431     13.00      69.7230
      87     1 N    7   -1.622794   10.306127    2.593000      5.00      14.0067
      88     2 Ga  31   -1.622794    8.432286    3.212431     13.00      69.7230
      89     1 N    7   -1.622794    8.432286    5.186000      5.00      14.0067
      90     2 Ga  31   -1.622794   10.306127    5.805431     13.00      69.7230
      91     1 N    7   -1.622794   10.306127    7.779000      5.00      14.0067
      92     2 Ga  31   -1.622794    8.432286    8.398431     13.00      69.7230
      93     1 N    7   -1.622794    8.432286   10.372000      5.00      14.0067
      94     2 Ga  31   -1.622794   10.306127   10.991431     13.00      69.7230
      95     1 N    7   -1.622794   10.306127   12.965000      5.00      14.0067
      96     2 Ga  31   -1.622794    8.432286   13.584431     13.00      69.7230
      97     1 N    7    6.491177    0.000000    0.000000      5.00      14.0067
      98     2 Ga  31    6.491177    1.873841    0.619431     13.00      69.7230
      99     1 N    7    6.491177    1.873841    2.593000      5.00      14.0067
     100     2 Ga  31    6.491177    0.000000    3.212431     13.00      69.7230
     101     1 N    7    6.491177    0.000000    5.186000      5.00      14.0067
     102     2 Ga  31    6.491177    1.873841    5.805431     13.00      69.7230
     103     1 N    7    6.491177    1.873841    7.779000      5.00      14.0067
     104     2 Ga  31    6.491177    0.000000    8.398431     13.00      69.7230
     105     1 N    7    6.491177    0.000000   10.372000      5.00      14.0067
     106     2 Ga  31    6.491177    1.873841   10.991431     13.00      69.7230
     107     1 N    7    6.491177    1.873841   12.965000      5.00      14.0067
     108     2 Ga  31    6.491177    0.000000   13.584431     13.00      69.7230
     109     1 N    7    4.868383    2.810762    0.000000      5.00      14.0067
     110     2 Ga  31    4.868383    4.684603    0.619431     13.00      69.7230
     111     1 N    7    4.868383    4.684603    2.593000      5.00      14.0067
     112     2 Ga  31    4.868383    2.810762    3.212431     13.00      69.7230
     113     1 N    7    4.868383    2.810762    5.186000      5.00      14.0067
     114     2 Ga  31    4.868383    4.684603    5.805431     13.00      69.7230
     115     1 N    7    4.868383    4.684603    7.779000      5.00      14.0067
     116     2 Ga  31    4.868383    2.810762    8.398431     13.00      69.7230
     117     1 N    7    4.868383    2.810762   10.372000      5.00      14.0067
     118     2 Ga  31    4.868383    4.684603   10.991431     13.00      69.7230
     119     1 N    7    4.868383    4.684603   12.965000      5.00      14.0067
     120     2 Ga  31    4.868383    2.810762   13.584431     13.00      69.7230
     121     1 N    7    3.245588    5.621524    0.000000      5.00      14.0067
     122     2 Ga  31    3.245588    7.495365    0.619431     13.00      69.7230
     123     1 N    7    3.245588    7.495365    2.593000      5.00      14.0067
     124     2 Ga  31    3.245588    5.621524    3.212431     13.00      69.7230
     125     1 N    7    3.245588    5.621524    5.186000      5.00      14.0067
     126     2 Ga  31    3.245588    7.495365    5.805431     13.00      69.7230
     127     1 N    7    3.245588    7.495365    7.779000      5.00      14.0067
     128     2 Ga  31    3.245588    5.621524    8.398431     13.00      69.7230
     129     1 N    7    3.245588    5.621524   10.372000      5.00      14.0067
     130     2 Ga  31    3.245588    7.495365   10.991431     13.00      69.7230
     131     1 N    7    3.245588    7.495365   12.965000      5.00      14.0067
     132     2 Ga  31    3.245588    5.621524   13.584431     13.00      69.7230
     133     1 N    7    1.622794    8.432286    0.000000      5.00      14.0067
     134     2 Ga  31    1.622794   10.306127    0.619431     13.00      69.7230
     135     1 N    7    1.622794   10.306127    2.593000      5.00      14.0067
     136     2 Ga  31    1.622794    8.432286    3.212431     13.00      69.7230
     137     1 N    7    1.622794    8.432286    5.186000      5.00      14.0067
     138     2 Ga  31    1.622794   10.306127    5.805431     13.00      69.7230
     139     1 N    7    1.622794   10.306127    7.779000      5.00      14.0067
     140     2 Ga  31    1.622794    8.432286    8.398431     13.00      69.7230
     141     1 N    7    1.622794    8.432286   10.372000      5.00      14.0067
     142     2 Ga  31    1.622794   10.306127   10.991431     13.00      69.7230
     143     1 N    7    1.622794   10.306127   12.965000      5.00      14.0067
     144     2 Ga  31    1.622794    8.432286   13.584431     13.00      69.7230
     145     1 N    7    9.736765    0.000000    0.000000      5.00      14.0067
     146     2 Ga  31    9.736765    1.873841    0.619431     13.00      69.7230
     147     1 N    7    9.736765    1.873841    2.593000      5.00      14.0067
     148     2 Ga  31    9.736765    0.000000    3.212431     13.00      69.7230
     149     1 N    7    9.736765    0.000000    5.186000      5.00      14.0067
     150     2 Ga  31    9.736765    1.873841    5.805431     13.00      69.7230
     151     1 N    7    9.736765    1.873841    7.779000      5.00      14.0067
     152     2 Ga  31    9.736765    0.000000    8.398431     13.00      69.7230
     153     1 N    7    9.736765    0.000000   10.372000      5.00      14.0067
     154     2 Ga  31    9.736765    1.873841   10.991431     13.00      69.7230
     155     1 N    7    9.736765    1.873841   12.965000      5.00      14.0067
     156     2 Ga  31    9.736765    0.000000   13.584431     13.00      69.7230
     157     1 N    7    8.113971    2.810762    0.000000      5.00      14.0067
     158     2 Ga  31    8.113971    4.684603    0.619431     13.00      69.7230
     159     1 N    7    8.113971    4.684603    2.593000      5.00      14.0067
     160     2 Ga  31    8.113971    2.810762    3.212431     13.00      69.7230
     161     1 N    7    8.113971    2.810762    5.186000      5.00      14.0067
     162     2 Ga  31    8.113971    4.684603    5.805431     13.00      69.7230
     163     1 N    7    8.113971    4.684603    7.779000      5.00      14.0067
     164     2 Ga  31    8.113971    2.810762    8.398431     13.00      69.7230
     165     1 N    7    8.113971    2.810762   10.372000      5.00      14.0067
     166     2 Ga  31    8.113971    4.684603   10.991431     13.00      69.7230
     167     1 N    7    8.113971    4.684603   12.965000      5.00      14.0067
     168     2 Ga  31    8.113971    2.810762   13.584431     13.00      69.7230
     169     1 N    7    6.491177    5.621524    0.000000      5.00      14.0067
     170     2 Ga  31    6.491177    7.495365    0.619431     13.00      69.7230
     171     1 N    7    6.491177    7.495365    2.593000      5.00      14.0067
     172     2 Ga  31    6.491177    5.621524    3.212431     13.00      69.7230
     173     1 N    7    6.491177    5.621524    5.186000      5.00      14.0067
     174     2 Ga  31    6.491177    7.495365    5.805431     13.00      69.7230
     175     1 N    7    6.491177    7.495365    7.779000      5.00      14.0067
     176     2 Ga  31    6.491177    5.621524    8.398431     13.00      69.7230
     177     1 N    7    6.491177    5.621524   10.372000      5.00      14.0067
     178     2 Ga  31    6.491177    7.495365   10.991431     13.00      69.7230
     179     1 N    7    6.491177    7.495365   12.965000      5.00      14.0067
     180     2 Ga  31    6.491177    5.621524   13.584431     13.00      69.7230
     181     1 N    7    4.868383    8.432286    0.000000      5.00      14.0067
     182     2 Ga  31    4.868383   10.306127    0.619431     13.00      69.7230
     183     1 N    7    4.868383   10.306127    2.593000      5.00      14.0067
     184     2 Ga  31    4.868383    8.432286    3.212431     13.00      69.7230
     185     1 N    7    4.868383    8.432286    5.186000      5.00      14.0067
     186     2 Ga  31    4.868383   10.306127    5.805431     13.00      69.7230
     187     1 N    7    4.868383   10.306127    7.779000      5.00      14.0067
     188     2 Ga  31    4.868383    8.432286    8.398431     13.00      69.7230
     189     1 N    7    4.868383    8.432286   10.372000      5.00      14.0067
     190     2 Ga  31    4.868383   10.306127   10.991431     13.00      69.7230
     191     1 N    7    4.868383   10.306127   12.965000      5.00      14.0067
     192     2 Ga  31    4.868383    8.432286   13.584431     13.00      69.7230




 SCF PARAMETERS         Density guess:                                    ATOMIC
                        --------------------------------------------------------
                        max_scf:                                             100
                        max_scf_history:                                       0
                        max_diis:                                              4
                        --------------------------------------------------------
                        eps_scf:                                        1.00E-07
                        eps_scf_history:                                0.00E+00
                        eps_diis:                                       1.00E-01
                        eps_eigval:                                     1.00E-05
                        --------------------------------------------------------
                        level_shift [a.u.]:                                 0.00
                        --------------------------------------------------------
                        Outer loop SCF in use 
                        No variables optimised in outer loop
                        eps_scf                                         1.00E-07
                        max_scf                                                4
                        No outer loop optimization
                        step_size                                       5.00E-01

 PW_GRID| Information for grid number                                          1
 PW_GRID| Grid distributed over                                    80 processors
 PW_GRID| Real space group dimensions                                    80    1
 PW_GRID| the grid is blocked:                                                NO
 PW_GRID| Cutoff [a.u.]                                                    600.0
 PW_GRID| spherical cutoff:                                                   NO
 PW_GRID|   Bounds   1           -144     143                Points:         288
 PW_GRID|   Bounds   2           -144     143                Points:         288
 PW_GRID|   Bounds   3           -180     179                Points:         360
 PW_GRID| Volume element (a.u.^3)  0.5132E-03     Volume (a.u.^3)     15324.5555
 PW_GRID| Grid span                                                    FULLSPACE
 PW_GRID|   Distribution                         Average         Max         Min
 PW_GRID|   G-Vectors                           373248.0      373248      373248
 PW_GRID|   G-Rays                                1296.0        1296        1296
 PW_GRID|   Real Space Points                   373248.0      414720      311040

 PW_GRID| Information for grid number                                          2
 PW_GRID| Grid distributed over                                    80 processors
 PW_GRID| Real space group dimensions                                    80    1
 PW_GRID| the grid is blocked:                                                NO
 PW_GRID| Cutoff [a.u.]                                                    200.0
 PW_GRID| spherical cutoff:                                                   NO
 PW_GRID|   Bounds   1            -80      79                Points:         160
 PW_GRID|   Bounds   2            -80      79                Points:         160
 PW_GRID|   Bounds   3            -96      95                Points:         192
 PW_GRID| Volume element (a.u.^3)  0.3118E-02     Volume (a.u.^3)     15324.5555
 PW_GRID| Grid span                                                    FULLSPACE
 PW_GRID|   Distribution                         Average         Max         Min
 PW_GRID|   G-Vectors                            61440.0       61600       61280
 PW_GRID|   G-Rays                                 384.0         385         383
 PW_GRID|   Real Space Points                    61440.0       61440       61440

 PW_GRID| Information for grid number                                          3
 PW_GRID| Grid distributed over                                    80 processors
 PW_GRID| Real space group dimensions                                    80    1
 PW_GRID| the grid is blocked:                                                NO
 PW_GRID| Cutoff [a.u.]                                                     66.7
 PW_GRID| spherical cutoff:                                                   NO
 PW_GRID|   Bounds   1            -48      47                Points:          96
 PW_GRID|   Bounds   2            -48      47                Points:          96
 PW_GRID|   Bounds   3            -60      59                Points:         120
 PW_GRID| Volume element (a.u.^3)  0.1386E-01     Volume (a.u.^3)     15324.5555
 PW_GRID| Grid span                                                    FULLSPACE
 PW_GRID|   Distribution                         Average         Max         Min
 PW_GRID|   G-Vectors                            13824.0       14112       13344
 PW_GRID|   G-Rays                                 144.0         147         139
 PW_GRID|   Real Space Points                    13824.0       23040       11520

 PW_GRID| Information for grid number                                          4
 PW_GRID| Grid distributed over                                    80 processors
 PW_GRID| Real space group dimensions                                     8   10
 PW_GRID| the grid is blocked:                                                NO
 PW_GRID| Cutoff [a.u.]                                                     22.2
 PW_GRID| spherical cutoff:                                                   NO
 PW_GRID|   Bounds   1            -27      26                Points:          54
 PW_GRID|   Bounds   2            -27      26                Points:          54
 PW_GRID|   Bounds   3            -32      31                Points:          64
 PW_GRID| Volume element (a.u.^3)  0.8211E-01     Volume (a.u.^3)     15324.5555
 PW_GRID| Grid span                                                    FULLSPACE
 PW_GRID|   Distribution                         Average         Max         Min
 PW_GRID|   G-Vectors                             2332.8        2430        2160
 PW_GRID|   G-Rays                                  43.2          45          40
 PW_GRID|   Real Space Points                     2332.8        2688        1920

 PW_GRID| Information for grid number                                          5
 PW_GRID| Grid distributed over                                    80 processors
 PW_GRID| Real space group dimensions                                     8   10
 PW_GRID| the grid is blocked:                                                NO
 PW_GRID| Cutoff [a.u.]                                                      7.4
 PW_GRID| spherical cutoff:                                                   NO
 PW_GRID|   Bounds   1            -16      15                Points:          32
 PW_GRID|   Bounds   2            -16      15                Points:          32
 PW_GRID|   Bounds   3            -20      19                Points:          40
 PW_GRID| Volume element (a.u.^3)  0.3741         Volume (a.u.^3)     15324.5555
 PW_GRID| Grid span                                                    FULLSPACE
 PW_GRID|   Distribution                         Average         Max         Min
 PW_GRID|   G-Vectors                              512.0         640         384
 PW_GRID|   G-Rays                                  16.0          20          12
 PW_GRID|   Real Space Points                      512.0         640         480

 POISSON| Solver                                                        PERIODIC
 POISSON| Periodicity                                                        XYZ

 RS_GRID| Information for grid number                                          1
 RS_GRID|   Bounds   1           -144     143                Points:         288
 RS_GRID|   Bounds   2           -144     143                Points:         288
 RS_GRID|   Bounds   3           -180     179                Points:         360
 RS_GRID| Real space distribution over                                  8 groups
 RS_GRID| Real space distribution along direction                              2
 RS_GRID| Border size                                                         79
 RS_GRID| Real space distribution over                                 10 groups
 RS_GRID| Real space distribution along direction                              3
 RS_GRID| Border size                                                         79
 RS_GRID|   Distribution                         Average         Max         Min
 RS_GRID|   Planes                                 194.0         194         194
 RS_GRID|   Distribution                         Average         Max         Min
 RS_GRID|   Planes                                 194.0         194         194

 RS_GRID| Information for grid number                                          2
 RS_GRID|   Bounds   1            -80      79                Points:         160
 RS_GRID|   Bounds   2            -80      79                Points:         160
 RS_GRID|   Bounds   3            -96      95                Points:         192
 RS_GRID| Real space distribution over                                  8 groups
 RS_GRID| Real space distribution along direction                              2
 RS_GRID| Border size                                                         45
 RS_GRID| Real space distribution over                                 10 groups
 RS_GRID| Real space distribution along direction                              3
 RS_GRID| Border size                                                         45
 RS_GRID|   Distribution                         Average         Max         Min
 RS_GRID|   Planes                                 110.0         110         110
 RS_GRID|   Distribution                         Average         Max         Min
 RS_GRID|   Planes                                 109.2         110         109

 RS_GRID| Information for grid number                                          3
 RS_GRID|   Bounds   1            -48      47                Points:          96
 RS_GRID|   Bounds   2            -48      47                Points:          96
 RS_GRID|   Bounds   3            -60      59                Points:         120
 RS_GRID| Real space fully replicated
 RS_GRID| Group size                                                           1

 RS_GRID| Information for grid number                                          4
 RS_GRID|   Bounds   1            -27      26                Points:          54
 RS_GRID|   Bounds   2            -27      26                Points:          54
 RS_GRID|   Bounds   3            -32      31                Points:          64
 RS_GRID| Real space fully replicated
 RS_GRID| Group size                                                           1

 RS_GRID| Information for grid number                                          5
 RS_GRID|   Bounds   1            -16      15                Points:          32
 RS_GRID|   Bounds   2            -16      15                Points:          32
 RS_GRID|   Bounds   3            -20      19                Points:          40
 RS_GRID| Real space fully replicated
 RS_GRID| Group size                                                           1

 CELL_OPT| Pressure tolerance [bar]:                                       500.0
 CELL_OPT| Keep angles between the cell vectors:                             YES
 CELL_OPT| Keep cell symmetry:                                               YES
 CELL_OPT| Constraint:                                                      NONE

 BFGS| Use rational function optimization for step estimation:                NO
 BFGS| Use model Hessian for initial guess:                                   NO
 BFGS| Restart Hessian:                                                       NO
 BFGS| Trust radius:                                                       0.472

 *******************************************************************************
 ***                     STARTING   CELL   OPTIMIZATION                      ***
 ***                                   BFGS                                  ***
 *******************************************************************************

 CELL| Volume [angstrom^3]:                                             2270.865
 CELL| Vector a [angstrom]:      12.982     0.000     0.000    |a| =      12.982
 CELL| Vector b [angstrom]:      -6.491    11.243     0.000    |b| =      12.982
 CELL| Vector c [angstrom]:       0.000     0.000    15.558    |c| =      15.558
 CELL| Angle (b,c), alpha [degree]:                                       90.000
 CELL| Angle (a,c), beta  [degree]:                                       90.000
 CELL| Angle (a,b), gamma [degree]:                                      120.000
 CELL| Numerically orthorhombic:                                              NO

 -------------------------------------------------------------------------------
 ----                             MULTIGRID INFO                            ----
 -------------------------------------------------------------------------------
 count for grid        1:         124800          cutoff [a.u.]          600.00
 count for grid        2:         814800          cutoff [a.u.]          200.00
 count for grid        3:         455600          cutoff [a.u.]           66.67
 count for grid        4:         292800          cutoff [a.u.]           22.22
 count for grid        5:         134400          cutoff [a.u.]            7.41
 total gridlevel count  :        1822400

 PW_GRID| Information for grid number                                          6
 PW_GRID| Grid distributed over                                    80 processors
 PW_GRID| Real space group dimensions                                    80    1
 PW_GRID| the grid is blocked:                                                NO
 PW_GRID| Cutoff [a.u.]                                                    600.0
 PW_GRID| spherical cutoff:                                                   NO
 PW_GRID|   Bounds   1           -144     143                Points:         288
 PW_GRID|   Bounds   2           -144     143                Points:         288
 PW_GRID|   Bounds   3           -180     179                Points:         360
 PW_GRID| Volume element (a.u.^3)  0.5132E-03     Volume (a.u.^3)     15324.5555
 PW_GRID| Grid span                                                    FULLSPACE
 PW_GRID|   Distribution                         Average         Max         Min
 PW_GRID|   G-Vectors                           373248.0      373248      373248
 PW_GRID|   G-Rays                                1296.0        1296        1296
 PW_GRID|   Real Space Points                   373248.0      414720      311040

 PW_GRID| Information for grid number                                          7
 PW_GRID| Grid distributed over                                    80 processors
 PW_GRID| Real space group dimensions                                    80    1
 PW_GRID| the grid is blocked:                                                NO
 PW_GRID| Cutoff [a.u.]                                                    200.0
 PW_GRID| spherical cutoff:                                                   NO
 PW_GRID|   Bounds   1            -80      79                Points:         160
 PW_GRID|   Bounds   2            -80      79                Points:         160
 PW_GRID|   Bounds   3            -96      95                Points:         192
 PW_GRID| Volume element (a.u.^3)  0.3118E-02     Volume (a.u.^3)     15324.5555
 PW_GRID| Grid span                                                    FULLSPACE
 PW_GRID|   Distribution                         Average         Max         Min
 PW_GRID|   G-Vectors                            61440.0       61600       61280
 PW_GRID|   G-Rays                                 384.0         385         383
 PW_GRID|   Real Space Points                    61440.0       61440       61440

 PW_GRID| Information for grid number                                          8
 PW_GRID| Grid distributed over                                    80 processors
 PW_GRID| Real space group dimensions                                    80    1
 PW_GRID| the grid is blocked:                                                NO
 PW_GRID| Cutoff [a.u.]                                                     66.7
 PW_GRID| spherical cutoff:                                                   NO
 PW_GRID|   Bounds   1            -48      47                Points:          96
 PW_GRID|   Bounds   2            -48      47                Points:          96
 PW_GRID|   Bounds   3            -60      59                Points:         120
 PW_GRID| Volume element (a.u.^3)  0.1386E-01     Volume (a.u.^3)     15324.5555
 PW_GRID| Grid span                                                    FULLSPACE
 PW_GRID|   Distribution                         Average         Max         Min
 PW_GRID|   G-Vectors                            13824.0       14112       13344
 PW_GRID|   G-Rays                                 144.0         147         139
 PW_GRID|   Real Space Points                    13824.0       23040       11520

 PW_GRID| Information for grid number                                          9
 PW_GRID| Grid distributed over                                    80 processors
 PW_GRID| Real space group dimensions                                     8   10
 PW_GRID| the grid is blocked:                                                NO
 PW_GRID| Cutoff [a.u.]                                                     22.2
 PW_GRID| spherical cutoff:                                                   NO
 PW_GRID|   Bounds   1            -27      26                Points:          54
 PW_GRID|   Bounds   2            -27      26                Points:          54
 PW_GRID|   Bounds   3            -32      31                Points:          64
 PW_GRID| Volume element (a.u.^3)  0.8211E-01     Volume (a.u.^3)     15324.5555
 PW_GRID| Grid span                                                    FULLSPACE
 PW_GRID|   Distribution                         Average         Max         Min
 PW_GRID|   G-Vectors                             2332.8        2430        2160
 PW_GRID|   G-Rays                                  43.2          45          40
 PW_GRID|   Real Space Points                     2332.8        2688        1920

 PW_GRID| Information for grid number                                         10
 PW_GRID| Grid distributed over                                    80 processors
 PW_GRID| Real space group dimensions                                     8   10
 PW_GRID| the grid is blocked:                                                NO
 PW_GRID| Cutoff [a.u.]                                                      7.4
 PW_GRID| spherical cutoff:                                                   NO
 PW_GRID|   Bounds   1            -16      15                Points:          32
 PW_GRID|   Bounds   2            -16      15                Points:          32
 PW_GRID|   Bounds   3            -20      19                Points:          40
 PW_GRID| Volume element (a.u.^3)  0.3741         Volume (a.u.^3)     15324.5555
 PW_GRID| Grid span                                                    FULLSPACE
 PW_GRID|   Distribution                         Average         Max         Min
 PW_GRID|   G-Vectors                              512.0         640         384
 PW_GRID|   G-Rays                                  16.0          20          12
 PW_GRID|   Real Space Points                      512.0         640         480

 POISSON| Solver                                                        PERIODIC
 POISSON| Periodicity                                                        XYZ

 RS_GRID| Information for grid number                                          6
 RS_GRID|   Bounds   1           -144     143                Points:         288
 RS_GRID|   Bounds   2           -144     143                Points:         288
 RS_GRID|   Bounds   3           -180     179                Points:         360
 RS_GRID| Real space distribution over                                  8 groups
 RS_GRID| Real space distribution along direction                              2
 RS_GRID| Border size                                                         79
 RS_GRID| Real space distribution over                                 10 groups
 RS_GRID| Real space distribution along direction                              3
 RS_GRID| Border size                                                         79
 RS_GRID|   Distribution                         Average         Max         Min
 RS_GRID|   Planes                                 194.0         194         194
 RS_GRID|   Distribution                         Average         Max         Min
 RS_GRID|   Planes                                 194.0         194         194

 RS_GRID| Information for grid number                                          7
 RS_GRID|   Bounds   1            -80      79                Points:         160
 RS_GRID|   Bounds   2            -80      79                Points:         160
 RS_GRID|   Bounds   3            -96      95                Points:         192
 RS_GRID| Real space distribution over                                  8 groups
 RS_GRID| Real space distribution along direction                              2
 RS_GRID| Border size                                                         45
 RS_GRID| Real space distribution over                                 10 groups
 RS_GRID| Real space distribution along direction                              3
 RS_GRID| Border size                                                         45
 RS_GRID|   Distribution                         Average         Max         Min
 RS_GRID|   Planes                                 110.0         110         110
 RS_GRID|   Distribution                         Average         Max         Min
 RS_GRID|   Planes                                 109.2         110         109

 RS_GRID| Information for grid number                                          8
 RS_GRID|   Bounds   1            -48      47                Points:          96
 RS_GRID|   Bounds   2            -48      47                Points:          96
 RS_GRID|   Bounds   3            -60      59                Points:         120
 RS_GRID| Real space fully replicated
 RS_GRID| Group size                                                           1

 RS_GRID| Information for grid number                                          9
 RS_GRID|   Bounds   1            -27      26                Points:          54
 RS_GRID|   Bounds   2            -27      26                Points:          54
 RS_GRID|   Bounds   3            -32      31                Points:          64
 RS_GRID| Real space fully replicated
 RS_GRID| Group size                                                           1

 RS_GRID| Information for grid number                                         10
 RS_GRID|   Bounds   1            -16      15                Points:          32
 RS_GRID|   Bounds   2            -16      15                Points:          32
 RS_GRID|   Bounds   3            -20      19                Points:          40
 RS_GRID| Real space fully replicated
 RS_GRID| Group size                                                           1

 Number of electrons:                                                       1728
 Number of occupied orbitals:                                                864
 Number of molecular orbitals:                                               864

 Number of orbital functions:                                               3648
 Number of independent orbital functions:                                   3648

 Extrapolation method: initial_guess

 Atomic guess: The first density matrix is obtained in terms of atomic orbitals
               and electronic configurations assigned to each atomic kind

 Guess for atomic kind: N

 Electronic structure
    Total number of core electrons                                          2.00
    Total number of valence electrons                                       5.00
    Total number of electrons                                               7.00
    Multiplicity                                                   not specified
    S   [  2.00] 2.00
    P      3.00
 

 *******************************************************************************
                  Iteration          Convergence                     Energy [au]
 *******************************************************************************
                          1        0.314603                      -9.513311037226
                          2        0.240982                      -9.524715106536
                          3        0.171660E-02                  -9.545365478140
                          4        0.189497E-03                  -9.545366407342
                          5        0.115171E-03                  -9.545366414563
                          6        0.842367E-04                  -9.545366416530
                          7        0.416372E-07                  -9.545366418792

[...]
 flops   887 x    64 x   129          45110123520     100.0%      0.0%      0.0%
 flops   911 x    64 x   129          46330690560     100.0%      0.0%      0.0%
 flops   924 x    64 x   129          46991831040     100.0%      0.0%      0.0%
 flops   926 x    64 x   129          47093544960     100.0%      0.0%      0.0%
 flops   192 x    32 x   202          48983261184     100.0%      0.0%      0.0%
 flops   887 x    32 x   153          49681082880     100.0%      0.0%      0.0%
 flops   911 x    32 x   153          51025328640     100.0%      0.0%      0.0%
 flops   924 x    32 x   153          51753461760     100.0%      0.0%      0.0%
 flops   926 x    32 x   153          51865482240     100.0%      0.0%      0.0%
 flops   192 x    64 x   202          52751204352     100.0%      0.0%      0.0%
 flops   887 x    64 x   153          53502704640     100.0%      0.0%      0.0%
 flops   911 x    64 x   153          54950353920     100.0%      0.0%      0.0%
 flops   924 x    64 x   153          55734497280     100.0%      0.0%      0.0%
 flops   926 x    64 x   153          55855134720     100.0%      0.0%      0.0%
 flops   192 x    32 x    32          57216466944     100.0%      0.0%      0.0%
 flops   192 x    32 x    64          61617733632     100.0%      0.0%      0.0%
 flops   192 x    64 x    32          61617733632     100.0%      0.0%      0.0%
 flops   192 x    64 x    64          66357559296     100.0%      0.0%      0.0%
 flops   224 x    32 x   129          72989908992     100.0%      0.0%      0.0%
 flops   224 x    64 x   129          78604517376     100.0%      0.0%      0.0%
 flops   224 x    32 x   153          86569426944     100.0%      0.0%      0.0%
 flops   224 x    64 x   153          93228613632     100.0%      0.0%      0.0%
 flops   887 x    32 x   202          98388026880     100.0%      0.0%      0.0%
 flops   911 x    32 x   202         101050160640     100.0%      0.0%      0.0%
 flops   924 x    32 x   202         102492149760     100.0%      0.0%      0.0%
 flops   926 x    32 x   202         102713994240     100.0%      0.0%      0.0%
 flops   887 x    64 x   202         105956336640     100.0%      0.0%      0.0%
 flops   911 x    64 x   202         108823249920     100.0%      0.0%      0.0%
 flops   924 x    64 x   202         110376161280     100.0%      0.0%      0.0%
 flops   926 x    64 x   202         110615070720     100.0%      0.0%      0.0%
 flops    13 x    13 x    32         136826207232     100.0%      0.0%      0.0%
 flops    13 x    13 x    64         147351300096     100.0%      0.0%      0.0%
 flops   224 x    32 x   202         171441414144     100.0%      0.0%      0.0%
 flops   224 x    64 x   202         184629215232     100.0%      0.0%      0.0%
 flops   224 x    32 x    32         200257634304     100.0%      0.0%      0.0%
 flops   887 x    32 x    32         212137928704     100.0%      0.0%      0.0%
 flops   224 x    64 x    32         215662067712     100.0%      0.0%      0.0%
 flops   224 x    32 x    64         215662067712     100.0%      0.0%      0.0%
 flops   911 x    32 x    32         217877850112     100.0%      0.0%      0.0%
 flops   924 x    32 x    32         220986974208     100.0%      0.0%      0.0%
 flops   926 x    32 x    32         221465300992     100.0%      0.0%      0.0%
 flops   887 x    32 x    64         228456230912     100.0%      0.0%      0.0%
 flops   887 x    64 x    32         228456230912     100.0%      0.0%      0.0%
 flops   224 x    64 x    64         232251457536     100.0%      0.0%      0.0%
 flops   911 x    64 x    32         234637684736     100.0%      0.0%      0.0%
 flops   911 x    32 x    64         234637684736     100.0%      0.0%      0.0%
 flops   924 x    32 x    64         237985972224     100.0%      0.0%      0.0%
 flops   924 x    64 x    32         237985972224     100.0%      0.0%      0.0%
 flops   926 x    32 x    64         238501093376     100.0%      0.0%      0.0%
 flops   926 x    64 x    32         238501093376     100.0%      0.0%      0.0%
 flops   887 x    64 x    64         246029787136     100.0%      0.0%      0.0%
 flops   911 x    64 x    64         252686737408     100.0%      0.0%      0.0%
 flops   924 x    64 x    64         256292585472     100.0%      0.0%      0.0%
 flops   926 x    64 x    64         256847331328     100.0%      0.0%      0.0%
 flops    13 x    25 x    32         257702016000     100.0%      0.0%      0.0%
 flops    25 x    13 x    32         263127321600     100.0%      0.0%      0.0%
 flops    13 x    25 x    64         277525248000     100.0%      0.0%      0.0%
 flops    25 x    13 x    64         283367884800     100.0%      0.0%      0.0%
 flops    25 x    25 x    32         506014080000     100.0%      0.0%      0.0%
 flops    25 x    25 x    64         544938240000     100.0%      0.0%      0.0%
 flops    13 x    32 x    13        1011953958912     100.0%      0.0%      0.0%
 flops    13 x    32 x    25        1946065305600     100.0%      0.0%      0.0%
 flops    25 x    32 x    13        1946065305600     100.0%      0.0%      0.0%
 flops    25 x    32 x    25        3742433280000     100.0%      0.0%      0.0%
 flops inhomo. stacks               6294011682816     100.0%      0.0%      0.0%
 flops total                        24.739791E+12     100.0%      0.0%      0.0%
 flops max/rank                    454.192205E+09     100.0%      0.0%      0.0%
 matmuls inhomo. stacks                    755040     100.0%      0.0%      0.0%
 matmuls total                          455381824     100.0%      0.0%      0.0%
 number of processed stacks               7390240     100.0%      0.0%      0.0%
 average stack size                                    61.6       0.0       0.0
 marketing flops                    26.239864E+12
 -------------------------------------------------------------------------------
 # multiplications                           2881
 max memory usage/rank               1.149202E+09
 # max total images/rank                        5
 # max 3D layers                                1
 # MPI messages exchanged                26274720
 MPI messages size (bytes):
  total size                         2.785442E+12
  min size                           0.000000E+00
  max size                           1.674208E+06
  average size                     106.012250E+03
 MPI breakdown and total messages size (bytes):
             size <=      128              147060                        0
       128 < size <=     8192             4985695              40842813440
      8192 < size <=    32768             6812925             135296401408
     32768 < size <=   131072            11272320             725775261696
    131072 < size <=  4194304             3056720            1883494268928
   4194304 < size <= 16777216                   0                        0
  16777216 < size                               0                        0
 -------------------------------------------------------------------------------

 *** WARNING in dbcsr/mm/dbcsr_mm.F:268 :: Using a non-square number of ***
 *** MPI ranks might lead to poor performance.                          ***
 *** Used ranks: 80                                                     ***
 *** Suggested: 81 169                                                  ***

 -------------------------------------------------------------------------------
 
 MEMORY| Estimated peak process memory [MiB]                                1099

 -------------------------------------------------------------------------------
 ----                             MULTIGRID INFO                            ----
 -------------------------------------------------------------------------------
 count for grid        1:         126336          cutoff [a.u.]          600.00
 count for grid        2:        1008144          cutoff [a.u.]          200.00
 count for grid        3:         646832          cutoff [a.u.]           66.67
 count for grid        4:         638784          cutoff [a.u.]           22.22
 count for grid        5:         511680          cutoff [a.u.]            7.41
 total gridlevel count  :        2931776

 -------------------------------------------------------------------------------
 -                                                                             -
 -                         MESSAGE PASSING PERFORMANCE                         -
 -                                                                             -
 -------------------------------------------------------------------------------

 ROUTINE             CALLS      AVE VOLUME [Bytes]
 MP_Group              275
 MP_Bcast             7200                  52494.
 MP_Allreduce        33875                    736.
 MP_Sync               173
 MP_Alltoall         15123                2994824.
 MP_SendRecv          2212                   6438.
 MP_ISendRecv        73470                  70315.
 MP_Wait            644975
 MP_comm_split         133
 MP_ISend           741512                 101186.
 MP_IRecv           741512                 100551.
 MP_Recv               114                 139680.
 MP_Memory          323812
 -------------------------------------------------------------------------------


 -------------------------------------------------------------------------------
 -                                                                             -
 -                           R E F E R E N C E S                               -
 -                                                                             -
 -------------------------------------------------------------------------------
 
 CP2K version 7.0 (Development Version), the CP2K developers group (2018).
 CP2K is freely available from https://www.cp2k.org/ .

 Schuett, Ole; Messmer, Peter; Hutter, Juerg; VandeVondele, Joost. 
 Electronic Structure Calculations on Graphics Processing Units, John Wiley & Sons, Ltd, 173-190 (2016). 
 GPU-Accelerated Sparse Matrix-Matrix Multiplication for Linear Scaling Density Functional Theory.
 http://dx.doi.org/10.1002/9781118670712.ch8


 Borstnik, U; VandeVondele, J; Weber, V; Hutter, J. 
 PARALLEL COMPUTING, 40 (5-6), 47-58 (2014). 
 Sparse matrix multiplication: The distributed block-compressed sparse
 row library.
 http://dx.doi.org/10.1016/j.parco.2014.03.012


 Hutter, J; Iannuzzi, M; Schiffmann, F; VandeVondele, J. 
 WILEY INTERDISCIPLINARY REVIEWS-COMPUTATIONAL MOLECULAR SCIENCE, 4 (1), 15-25 (2014). 
 CP2K: atomistic simulations of condensed matter systems.
 http://dx.doi.org/10.1002/wcms.1159


 Grimme, S; Ehrlich, S; Goerigk, L. 
 JOURNAL OF COMPUTATIONAL CHEMISTRY, 32, 1456 (2011). 
 Effect of the damping function in dispersion corrected density functional theory.
 http://dx.doi.org/10.1002/jcc.21759


 Grimme, S; Antony, J; Ehrlich, S; Krieg, H. 
 JOURNAL OF CHEMICAL PHYSICS, 132 (15), 154104 (2010). 
 A consistent and accurate ab initio parametrization of density
 functional dispersion correction (DFT-D) for the 94 elements H-Pu.
 http://dx.doi.org/10.1063/1.3382344


 VandeVondele, J; Hutter, J. 
 JOURNAL OF CHEMICAL PHYSICS, 127 (11), 114105 (2007). 
 Gaussian basis sets for accurate calculations on molecular systems in
 gas and condensed phases.
 http://dx.doi.org/10.1063/1.2770708


 Krack, M. 
 THEORETICAL CHEMISTRY ACCOUNTS, 114 (1-3), 145-152 (2005). 
 Pseudopotentials for H to Kr optimized for gradient-corrected
 exchange-correlation functionals.
 http://dx.doi.org/10.1007/s00214-005-0655-y


 VandeVondele, J; Krack, M; Mohamed, F; Parrinello, M; Chassaing, T;
 Hutter, J. COMPUTER PHYSICS COMMUNICATIONS, 167 (2), 103-128 (2005). 
 QUICKSTEP: Fast and accurate density functional calculations using a
 mixed Gaussian and plane waves approach.
 http://dx.doi.org/10.1016/j.cpc.2004.12.014


 Frigo, M; Johnson, SG. 
 PROCEEDINGS OF THE IEEE, 93 (2), 216-231 (2005). 
 The design and implementation of FFTW3.
 http://dx.doi.org/10.1109/JPROC.2004.840301


 Kolafa, J. 
 JOURNAL OF COMPUTATIONAL CHEMISTRY, 25 (3), 335-342 (2004). 
 Time-reversible always stable predictor-corrector method for molecular dynamics of polarizable molecules.
 http://dx.doi.org/10.1002/jcc.10385


 VandeVondele, J; Hutter, J. 
 JOURNAL OF CHEMICAL PHYSICS, 118 (10), 4365-4369 (2003). 
 An efficient orbital transformation method for electronic structure
 calculations.
 http://dx.doi.org/10.1063/1.1543154


 Hartwigsen, C; Goedecker, S; Hutter, J. 
 PHYSICAL REVIEW B, 58 (7), 3641-3662 (1998). 
 Relativistic separable dual-space Gaussian pseudopotentials from H to Rn.
 http://dx.doi.org/10.1103/PhysRevB.58.3641


 Lippert, G; Hutter, J; Parrinello, M. 
 MOLECULAR PHYSICS, 92 (3), 477-487 (1997). 
 A hybrid Gaussian and plane wave density functional scheme.
 http://dx.doi.org/10.1080/002689797170220


 Perdew, JP; Burke, K; Ernzerhof, M. 
 PHYSICAL REVIEW LETTERS, 77 (18), 3865-3868 (1996). 
 Generalized gradient approximation made simple.
 http://dx.doi.org/10.1103/PhysRevLett.77.3865


 Goedecker, S; Teter, M; Hutter, J. 
 PHYSICAL REVIEW B, 54 (3), 1703-1710 (1996). 
 Separable dual-space Gaussian pseudopotentials.
 http://dx.doi.org/10.1103/PhysRevB.54.1703


 -------------------------------------------------------------------------------
 -                                                                             -
 -                                T I M I N G                                  -
 -                                                                             -
 -------------------------------------------------------------------------------
 SUBROUTINE                       CALLS  ASD         SELF TIME        TOTAL TIME
                                MAXIMUM       AVERAGE  MAXIMUM  AVERAGE  MAXIMUM
 CP2K                                 1  1.0    0.037    0.055 1306.655 1306.690
 cp_cell_opt                          1  2.0    0.001    0.001 1305.632 1305.684
 geoopt_bfgs                          1  3.0    0.003    0.016 1305.632 1305.683
 cp_eval_at                           8  4.0    0.006    0.023 1302.666 1302.686
 qs_forces                            7  5.0    0.008    0.037 1227.383 1227.397
 qs_energies                          8  5.9    0.010    0.023 1215.628 1215.657
 scf_env_do_scf                       8  6.9    0.004    0.025 1151.610 1151.625
 scf_env_do_scf_inner_loop          194  7.9    0.013    0.023 1077.351 1077.365
 qs_rho_update_rho                  202  9.0    0.001    0.002  521.442  522.089
 calculate_rho_elec                 202 10.0  320.291  326.799  521.441  522.088
 rebuild_ks_matrix                  201  9.8    0.001    0.001  504.152  504.366
 qs_ks_build_kohn_sham_matrix       201 10.8    0.045    0.090  504.151  504.365
 qs_ks_update_qs_env                203  8.9    0.002    0.002  438.787  438.988
 sum_up_and_integrate               108 11.8    0.433    0.511  341.964  342.092
 integrate_v_rspace                 108 12.8  216.349  221.949  341.530  341.736
 rs_pw_transfer                    1581 12.9    0.018    0.021  226.659  233.007
 dbcsr_multiply_generic            2881 13.7    0.192    0.285  188.172  188.838
 density_rs2pw                      202 11.0    0.014    0.015  181.180  187.900
 qs_scf_new_mos                     194  8.9    0.002    0.004  172.659  173.002
 qs_scf_loop_do_ot                  194  9.9    0.006    0.054  172.657  173.000
 pw_transfer                       3305 13.3    0.335    0.374  168.299  168.763
 fft_wrap_pw1pw2                   2903 14.3    0.030    0.044  166.627  167.085
 mp_waitall_1                    585083 16.7  151.848  163.953  151.848  163.953
 ot_scf_mini                        194 10.9    0.015    0.050  157.904  158.215
 fft_wrap_pw1pw2_600               1663 15.6    9.176   10.362  154.027  154.502
 fft3d_ps                          2903 16.3   40.067   43.594  143.687  144.621
 multiply_cannon                   2881 14.7    0.906    0.966  139.187  142.902
 mp_waitany                       59892 14.8  120.147  135.784  120.147  135.784
 qs_vxc_create                      201 11.8    0.004    0.006  122.087  122.906
 rs_pw_transfer_RS2PW_600           218 12.9   29.824   31.948  105.479  115.088
 mp_alltoall_z22v                  2903 18.3   90.759   97.823   90.759   97.823
 multiply_cannon_metrocomm3       57620 15.7    0.160    0.200   80.471   90.760
 potential_pw2rs                    108 13.8    0.045    0.071   90.245   90.418
 xc_vxc_pw_create                   108 12.8    2.221    2.588   87.056   87.869
 ot_mini                            194 11.9    0.002    0.004   80.455   80.686
 init_scf_loop                        9  7.9    0.004    0.006   74.159   74.163
 xc_rho_set_and_dset_create         201 13.8    0.522    0.583   68.388   69.642
 qs_ks_update_qs_env_forces           7  6.0    0.000    0.000   66.276   66.307
 rs_pw_transfer_PW2RS_600           123 15.2   21.093   22.826   60.555   61.111
 x_to_yz                           1237 18.0    6.711    7.660   57.767   59.607
 qs_ot_get_derivative               101 12.9    0.001    0.002   50.509   50.754
 yz_to_x                           1046 16.8    4.591    4.958   44.209   47.866
 mp_alltoall_d11v                  2830 15.4   41.979   45.399   41.979   45.399
 rs_distribute_matrix               317 11.9    0.449    0.768   40.757   43.888
 multiply_cannon_metrocomm1       57620 15.7    0.177    0.194   29.348   40.682
 prepare_preconditioner               9  8.9    0.000    0.000   37.161   37.182
 xc_exc_calc                         93 12.9    0.246    0.307   35.027   35.061
 qs_ot_get_p                        203 11.9    0.006    0.029   32.657   33.128
 make_preconditioner                  9  9.9    0.002    0.003   32.719   32.734
 make_m2s                          5762 14.7    0.159    0.186   30.086   31.611
 apply_preconditioner_dbcsr         110 13.9    0.000    0.001   31.044   31.180
 apply_all                          110 14.9    0.011    0.021   31.044   31.180
 make_images                       5762 15.7    0.229    0.270   29.038   30.524
 init_scf_run                         8  6.9    0.002    0.002   29.795   29.797
 scf_env_initial_rho_setup            8  7.9    0.001    0.002   29.793   29.795
 make_full_all                        9 10.9    0.006    0.030   29.482   29.500
 ot_new_cg_direction                101 12.9    0.003    0.015   29.390   29.419
 rs_pw_transfer_RS2PW_200           202 13.0    5.239    6.000   22.526   29.008
 mp_sum_d                          5930 14.0   21.976   28.407   21.976   28.407
 cp_fm_syevd                        133 13.9    0.001    0.001   27.963   28.086
 cp_fm_redistribute_end             133 14.9   12.447   26.942   12.559   27.069
 wfi_extrapolate                      8  8.9    0.003    0.037   26.806   26.812
 -------------------------------------------------------------------------------

 The number of warnings for this run is : 1
 
 -------------------------------------------------------------------------------
  **** **** ******  **  PROGRAM ENDED AT                 2019-06-23 21:39:16.949
 ***** ** ***  *** **   PROGRAM RAN ON            blg9132.int.ets1.calculquebec.
 **    ****   ******    PROGRAM RAN BY                                       rzk
 ***** **    ** ** **   PROGRAM PROCESS ID                                442892
  **** **  *******  **  PROGRAM STOPPED IN /scratch/rzk/rzk/GaN-carbene/443-adat
                                           oms-both-2x2/00-Bulk-optimization
[1561340357.621595] [blg9132:442918:0]          mpool.c:38   UCX  WARN  object 0x5cd0f80 was not returned to mpool ucp_requests
[1561340357.619755] [blg9132:442898:0]          mpool.c:38   UCX  WARN  object 0x5349480 was not returned to mpool ucp_requests
[1561340357.628630] [blg9215:392458:0]          mpool.c:38   UCX  WARN  object 0x69cd540 was not returned to mpool ucp_requests
[1561340357.649660] [blg9215:392438:0]          mpool.c:38   UCX  WARN  object 0x6acb740 was not returned to mpool ucp_requests
