     192
 i =        1, E =     -8119.7385234767
  N        -0.0000000903       -0.0000001022       -0.0006811914
 Ga         0.0000046282        1.8690942294        0.6207792563
  N        -0.0000045496        1.8690997065        2.5949929712
 Ga         0.0000000912        0.0000001964        3.2164603813
  N        -0.0000000012        0.0000001421        5.1906807121
 Ga         0.0000048134        1.8690945014        5.8121405504
  N        -0.0000043284        1.8690996939        7.7863550841
 Ga        -0.0000000909        0.0000000090        8.4078219053
  N         0.0000001097       -0.0000000237       10.3820407325
 Ga         0.0000046133        1.8690941757       11.0035020051
  N        -0.0000042413        1.8690997137       12.9777168819
 Ga        -0.0000000405        0.0000000838       13.5991833385
  N        -1.6186856053        2.8036456778       -0.0006812873
 Ga        -1.6186808571        4.6727400339        0.6207792137
  N        -1.6186901394        4.6727454426        2.5949926965
 Ga        -1.6186854348        2.8036456680        3.2164604700
  N        -1.6186856535        2.8036457225        5.1906805223
 Ga        -1.6186808531        4.6727400079        5.8121403979
  N        -1.6186900378        4.6727453188        7.7863549821
 Ga        -1.6186855831        2.8036456388        8.4078218911
  N        -1.6186856347        2.8036457261       10.3820403335
 Ga        -1.6186808008        4.6727399055       11.0035022012
  N        -1.6186899571        4.6727453691       12.9777166081
 Ga        -1.6186855185        2.8036458915       13.5991830817
  N        -3.2373712314        5.6072914496       -0.0006809745
 Ga        -3.2373669308        7.4763858387        0.6207790835
  N        -3.2373757172        7.4763912136        2.5949929195
 Ga        -3.2373712672        5.6072912001        3.2164604942
  N        -3.2373712665        5.6072913726        5.1906807292
 Ga        -3.2373669763        7.4763855309        5.8121404401
  N        -3.2373754770        7.4763909625        7.7863553613
 Ga        -3.2373713752        5.6072913864        8.4078216988
  N        -3.2373712859        5.6072915063       10.3820406283
 Ga        -3.2373667624        7.4763857937       11.0035018932
  N        -3.2373755359        7.4763913506       12.9777168154
 Ga        -3.2373711598        5.6072910710       13.5991830047
  N        -4.8560567597        8.4109371971       -0.0006813121
 Ga        -4.8560522307       10.2800312240        0.6207790819
  N        -4.8560613801       10.2800367749        2.5949926928
 Ga        -4.8560570062        8.4109372465        3.2164605676
  N        -4.8560567414        8.4109371489        5.1906803675
 Ga        -4.8560521756       10.2800313105        5.8121404643
  N        -4.8560611558       10.2800369318        7.7863549721
 Ga        -4.8560570691        8.4109369788        8.4078216770
  N        -4.8560567059        8.4109370208       10.3820406929
 Ga        -4.8560522948       10.2800315975       11.0035019107
  N        -4.8560610059       10.2800366800       12.9777166768
 Ga        -4.8560569185        8.4109371681       13.5991833080
  N         3.2373712719       -0.0000001871       -0.0006813414
 Ga         3.2373758387        1.8690944315        0.6207791440
  N         3.2373668302        1.8690996071        2.5949931692
 Ga         3.2373708259        0.0000000410        3.2164604733
  N         3.2373711448        0.0000000629        5.1906805024
 Ga         3.2373757361        1.8690944320        5.8121405905
  N         3.2373669285        1.8690994864        7.7863555095
 Ga         3.2373709326        0.0000002309        8.4078217786
  N         3.2373713340       -0.0000000093       10.3820406019
 Ga         3.2373757130        1.8690941964       11.0035019861
  N         3.2373669158        1.8690995730       12.9777170415
 Ga         3.2373709237        0.0000000376       13.5991831051
  N         1.6186855503        2.8036457396       -0.0006815701
 Ga         1.6186902214        4.6727400316        0.6207791982
  N         1.6186810420        4.6727454819        2.5949928901
 Ga         1.6186852634        2.8036456088        3.2164605776
  N         1.6186854379        2.8036454792        5.1906802764
 Ga         1.6186902770        4.6727400974        5.8121404859
  N         1.6186811824        4.6727453009        7.7863553015
 Ga         1.6186854853        2.8036455947        8.4078216908
  N         1.6186857322        2.8036456666       10.3820402790
 Ga         1.6186901305        4.6727401883       11.0035018901
  N         1.6186812762        4.6727453883       12.9777169036
 Ga         1.6186853835        2.8036454872       13.5991831223
  N         0.0000000517        5.6072914082       -0.0006813087
 Ga         0.0000046790        7.4763855044        0.6207791858
  N        -0.0000044369        7.4763910423        2.5949931074
 Ga        -0.0000000850        5.6072912638        3.2164605501
  N        -0.0000001243        5.6072913158        5.1906804458
 Ga         0.0000049855        7.4763854600        5.8121403693
  N        -0.0000043418        7.4763908608        7.7863555483
 Ga         0.0000000600        5.6072913017        8.4078219165
  N         0.0000001482        5.6072914675       10.3820404629
 Ga         0.0000047168        7.4763854982       11.0035019635
  N        -0.0000041499        7.4763911081       12.9777171033
 Ga        -0.0000002143        5.6072911894       13.5991830705
  N        -1.6186856271        8.4109372461       -0.0006815912
 Ga        -1.6186810912       10.2800315486        0.6207789651
  N        -1.6186900916       10.2800367890        2.5949929003
 Ga        -1.6186856459        8.4109369368        3.2164603653
  N        -1.6186856421        8.4109371106        5.1906801767
 Ga        -1.6186810435       10.2800316892        5.8121404694
  N        -1.6186899709       10.2800368376        7.7863553177
 Ga        -1.6186857777        8.4109369362        8.4078217795
  N        -1.6186856112        8.4109371702       10.3820404581
 Ga        -1.6186811265       10.2800315853       11.0035018619
  N        -1.6186899245       10.2800365834       12.9777169601
 Ga        -1.6186856768        8.4109371664       13.5991830951
  N         6.4747424325       -0.0000001071       -0.0006811314
 Ga         6.4747472484        1.8690946038        0.6207791263
  N         6.4747379568        1.8690997573        2.5949930032
 Ga         6.4747424326        0.0000002028        3.2164603267
  N         6.4747423223        0.0000002681        5.1906806693
 Ga         6.4747470545        1.8690946075        5.8121404402
  N         6.4747380381        1.8690995351        7.7863550504
 Ga         6.4747424369       -0.0000000335        8.4078216871
  N         6.4747422138       -0.0000000132       10.3820407504
 Ga         6.4747471918        1.8690943887       11.0035021628
  N         6.4747381107        1.8690995223       12.9777168881
 Ga         6.4747423022        0.0000001518       13.5991830414
  N         4.8560569054        2.8036458156       -0.0006812798
 Ga         4.8560616016        4.6727400685        0.6207791132
  N         4.8560524347        4.6727454277        2.5949926616
 Ga         4.8560568001        2.8036457281        3.2164605229
  N         4.8560570214        2.8036455714        5.1906803997
 Ga         4.8560615677        4.6727402844        5.8121405767
  N         4.8560524110        4.6727453811        7.7863549985
 Ga         4.8560564392        2.8036458322        8.4078216185
  N         4.8560567116        2.8036456837       10.3820405337
 Ga         4.8560614909        4.6727402058       11.0035017891
  N         4.8560524267        4.6727454839       12.9777167618
 Ga         4.8560566774        2.8036455173       13.5991831667
  N         3.2373712503        5.6072914780       -0.0006812282
 Ga         3.2373762124        7.4763856715        0.6207791932
  N         3.2373666902        7.4763912161        2.5949927384
 Ga         3.2373710308        5.6072913718        3.2164607206
  N         3.2373712884        5.6072914396        5.1906805653
 Ga         3.2373762856        7.4763857629        5.8121403886
  N         3.2373669422        7.4763908954        7.7863553811
 Ga         3.2373712716        5.6072914700        8.4078217216
  N         3.2373711823        5.6072914577       10.3820406939
 Ga         3.2373759304        7.4763856383       11.0035021994
  N         3.2373667904        7.4763910789       12.9777168638
 Ga         3.2373710412        5.6072916322       13.5991831678
  N         1.6186856321        8.4109371889       -0.0006813931
 Ga         1.6186906534       10.2800317598        0.6207790889
  N         1.6186810989       10.2800368590        2.5949926094
 Ga         1.6186856887        8.4109369911        3.2164606577
  N         1.6186856509        8.4109370419        5.1906803041
 Ga         1.6186906696       10.2800314442        5.8121405906
  N         1.6186811126       10.2800368450        7.7863549591
 Ga         1.6186857539        8.4109370409        8.4078216616
  N         1.6186856673        8.4109369803       10.3820406846
 Ga         1.6186906610       10.2800316485       11.0035019142
  N         1.6186812281       10.2800365782       12.9777168371
 Ga         1.6186858014        8.4109369114       13.5991828754
  N         9.7121135657       -0.0000001588       -0.0006813332
 Ga         9.7121183573        1.8690943474        0.6207791815
  N         9.7121091339        1.8690996596        2.5949931312
 Ga         9.7121137412        0.0000001454        3.2164604697
  N         9.7121135486        0.0000001866        5.1906803903
 Ga         9.7121185894        1.8690943961        5.8121406133
  N         9.7121093328        1.8690997495        7.7863552930
 Ga         9.7121138170       -0.0000000113        8.4078218906
  N         9.7121136223        0.0000000358       10.3820405690
 Ga         9.7121184235        1.8690943358       11.0035018946
  N         9.7121093479        1.8690995299       12.9777170778
 Ga         9.7121137197        0.0000000560       13.5991833224
  N         8.0934279525        2.8036456878       -0.0006814508
 Ga         8.0934327681        4.6727400178        0.6207792393
  N         8.0934235020        4.6727454242        2.5949929924
 Ga         8.0934280047        2.8036458048        3.2164603802
  N         8.0934278862        2.8036457555        5.1906802053
 Ga         8.0934327809        4.6727402545        5.8121405401
  N         8.0934238465        4.6727452992        7.7863551628
 Ga         8.0934283008        2.8036458711        8.4078217519
  N         8.0934281311        2.8036457846       10.3820402541
 Ga         8.0934328211        4.6727400387       11.0035021369
  N         8.0934236403        4.6727454517       12.9777168093
 Ga         8.0934279906        2.8036457115       13.5991831461
  N         6.4747423129        5.6072913653       -0.0006812615
 Ga         6.4747474506        7.4763859245        0.6207792824
  N         6.4747380131        7.4763911044        2.5949930579
 Ga         6.4747425098        5.6072914528        3.2164605590
  N         6.4747424503        5.6072912243        5.1906803566
 Ga         6.4747470262        7.4763859884        5.8121406798
  N         6.4747381565        7.4763909647        7.7863555046
 Ga         6.4747422817        5.6072916746        8.4078215572
  N         6.4747424425        5.6072915249       10.3820405540
 Ga         6.4747473415        7.4763858038       11.0035020382
  N         6.4747382067        7.4763911008       12.9777170112
 Ga         6.4747425845        5.6072914295       13.5991830667
  N         4.8560567376        8.4109371644       -0.0006815115
 Ga         4.8560616685       10.2800316982        0.6207791399
  N         4.8560523275       10.2800367544        2.5949927829
 Ga         4.8560569636        8.4109371465        3.2164607919
  N         4.8560568417        8.4109370497        5.1906801363
 Ga         4.8560616575       10.2800311989        5.8121406275
  N         4.8560525544       10.2800367684        7.7863551855
 Ga         4.8560569884        8.4109370831        8.4078214213
  N         4.8560568510        8.4109370242       10.3820403933
 Ga         4.8560616515       10.2800317798       11.0035019109
  N         4.8560525019       10.2800366283       12.9777169327
 Ga         4.8560566993        8.4109371156       13.5991830681
     192
 i =        2, E =     -8119.7475118420
  N         0.0000015755       -0.0000010016       -0.0036733110
 Ga         0.0000183427        1.8578845502        0.6261463167
  N        -0.0000037315        1.8578977787        2.6013850834
 Ga        -0.0000018780        0.0000012426        3.2312117814
  N         0.0000015619       -0.0000009065        5.2064553639
 Ga         0.0000183465        1.8578847370        5.8362736788
  N        -0.0000035670        1.8578977281        7.8115143292
 Ga        -0.0000018450        0.0000011652        8.4413382656
  N         0.0000016427       -0.0000009358       10.4165783022
 Ga         0.0000183613        1.8578845702       11.0464003113
  N        -0.0000035694        1.8578977510       13.0216427035
 Ga        -0.0000018545        0.0000010615       13.6514660929
  N        -1.6089832873        2.7868424755       -0.0036734268
 Ga        -1.6089662201        4.6447278794        0.6261461728
  N        -1.6089884746        4.6447411377        2.6013849614
 Ga        -1.6089863316        2.7868441501        3.2312118198
  N        -1.6089832308        2.7868425282        5.2064552207
 Ga        -1.6089663342        4.6447277581        5.8362735400
  N        -1.6089883405        4.6447410824        7.8115142402
 Ga        -1.6089863290        2.7868441784        8.4413381641
  N        -1.6089832514        2.7868424670       10.4165781401
 Ga        -1.6089662075        4.6447278287       11.0464002220
  N        -1.6089883462        4.6447410732       13.0216425477
 Ga        -1.6089862482        2.7868442544       13.6514659375
  N        -3.2179679493        5.5736857297       -0.0036731116
 Ga        -3.2179516727        7.4315714288        0.6261461964
  N        -3.2179730949        7.4315843814        2.6013850962
 Ga        -3.2179715216        5.5736874556        3.2312117453
  N        -3.2179679616        5.5736857261        5.2064553674
 Ga        -3.2179516172        7.4315711688        5.8362735399
  N        -3.2179729584        7.4315842471        7.8115144442
 Ga        -3.2179713618        5.5736873672        8.4413381176
  N        -3.2179679087        5.5736857437       10.4165783569
 Ga        -3.2179516030        7.4315713461       11.0464002446
  N        -3.2179728387        7.4315844235       13.0216427477
 Ga        -3.2179714572        5.5736874503       13.6514657469
  N        -4.8269524875        8.3605290410       -0.0036733992
 Ga        -4.8269362836       10.2184146870        0.6261461695
  N        -4.8269578450       10.2184275447        2.6013848885
 Ga        -4.8269564591        8.3605312057        3.2312117515
  N        -4.8269526178        8.3605289470        5.2064551848
 Ga        -4.8269361819       10.2184148079        5.8362735754
  N        -4.8269576866       10.2184275930        7.8115142533
 Ga        -4.8269563881        8.3605310836        8.4413381621
  N        -4.8269524652        8.3605290005       10.4165782144
 Ga        -4.8269362508       10.2184148425       11.0464002900
  N        -4.8269575657       10.2184275442       13.0216426013
 Ga        -4.8269564425        8.3605311158       13.6514659351
  N         3.2179712322       -0.0000010496       -0.0036734538
 Ga         3.2179874823        1.8578849433        0.6261462658
  N         3.2179659130        1.8578976478        2.6013852478
 Ga         3.2179668133        0.0000010890        3.2312117513
  N         3.2179711211       -0.0000008739        5.2064552511
 Ga         3.2179874938        1.8578848883        5.8362736576
  N         3.2179659821        1.8578975788        7.8115145425
 Ga         3.2179669338        0.0000011931        8.4413381525
  N         3.2179712738       -0.0000009648       10.4165782480
 Ga         3.2179874034        1.8578848123       11.0464003438
  N         3.2179660234        1.8578974986       13.0216428421
 Ga         3.2179668810        0.0000010490       13.6514658413
  N         1.6089863595        2.7868424586       -0.0036735573
 Ga         1.6090031186        4.6447278887        0.6261461420
  N         1.6089809387        4.6447411166        2.6013851403
 Ga         1.6089823686        2.7868440530        3.2312117500
  N         1.6089863610        2.7868424361        5.2064551321
 Ga         1.6090030285        4.6447278321        5.8362735446
  N         1.6089811408        4.6447410318        7.8115144107
 Ga         1.6089825248        2.7868440021        8.4413380905
  N         1.6089864596        2.7868424495       10.4165780348
 Ga         1.6090030582        4.6447279053       11.0464002024
  N         1.6089810862        4.6447410568       13.0216427609
 Ga         1.6089825496        2.7868440897       13.6514658606
  N         0.0000015084        5.5736857958       -0.0036733233
 Ga         0.0000184904        7.4315710113        0.6261461722
  N        -0.0000036426        7.4315842969        2.6013852656
 Ga        -0.0000020710        5.5736871133        3.2312117660
  N         0.0000015330        5.5736857718        5.2064552165
 Ga         0.0000185594        7.4315709504        5.8362734491
  N        -0.0000035557        7.4315842268        7.8115145701
 Ga        -0.0000019663        5.5736870650        8.4413381778
  N         0.0000015742        5.5736858438       10.4165783016
 Ga         0.0000184167        7.4315710002       11.0464002986
  N        -0.0000035047        7.4315843252       13.0216428916
 Ga        -0.0000019294        5.5736870553       13.6514658134
  N        -1.6089831220        8.3605291380       -0.0036735650
 Ga        -1.6089667338       10.2184148793        0.6261460881
  N        -1.6089883443       10.2184275431        2.6013850328
 Ga        -1.6089869145        8.3605306966        3.2312116001
  N        -1.6089830897        8.3605290102        5.2064550938
 Ga        -1.6089666970       10.2184149845        5.8362734851
  N        -1.6089882834       10.2184275398        7.8115145055
 Ga        -1.6089869834        8.3605307166        8.4413380853
  N        -1.6089830372        8.3605291143       10.4165782019
 Ga        -1.6089667920       10.2184148929       11.0464002003
  N        -1.6089881960       10.2184274877       13.0216427642
 Ga        -1.6089868989        8.3605307306       13.6514657690
  N         6.4359404960       -0.0000008914       -0.0036732747
 Ga         6.4359575261        1.8578851861        0.6261462410
  N         6.4359351693        1.8578976508        2.6013850835
 Ga         6.4359370785        0.0000014067        3.2312116219
  N         6.4359404545       -0.0000007998        5.2064553511
 Ga         6.4359574842        1.8578852300        5.8362735651
  N         6.4359352473        1.8578975356        7.8115143244
 Ga         6.4359372288        0.0000012293        8.4413379948
  N         6.4359404072       -0.0000009407       10.4165784496
 Ga         6.4359574985        1.8578851433       11.0464002563
  N         6.4359353065        1.8578973719       13.0216428470
 Ga         6.4359372002        0.0000012021       13.6514657408
  N         4.8269559189        2.7868423655       -0.0036733206
 Ga         4.8269726909        4.6447284351        0.6261461311
  N         4.8269505077        4.6447409176        2.6013850969
 Ga         4.8269521999        2.7868445521        3.2312115747
  N         4.8269558412        2.7868424020        5.2064552973
 Ga         4.8269727818        4.6447283536        5.8362736127
  N         4.8269504733        4.6447409657        7.8115141856
 Ga         4.8269520481        2.7868445766        8.4413379634
  N         4.8269557786        2.7868423563       10.4165782582
 Ga         4.8269726950        4.6447284451       11.0464001405
  N         4.8269505369        4.6447408938       13.0216427724
 Ga         4.8269520783        2.7868445826       13.6514656850
  N         3.2179710075        5.5736856735       -0.0036732201
 Ga         3.2179885116        7.4315714586        0.6261461605
  N         3.2179655664        7.4315843467        2.6013851219
 Ga         3.2179676778        5.5736877231        3.2312116319
  N         3.2179710575        5.5736857129        5.2064554511
 Ga         3.2179884880        7.4315714487        5.8362735331
  N         3.2179657826        7.4315841665        7.8115143675
 Ga         3.2179677185        5.5736874782        8.4413381246
  N         3.2179709163        5.5736857713       10.4165784110
 Ga         3.2179884067        7.4315713107       11.0464004419
  N         3.2179656138        7.4315842494       13.0216427369
 Ga         3.2179676099        5.5736877743       13.6514657329
  N         1.6089861520        8.3605291496       -0.0036734571
 Ga         1.6090038331       10.2184149069        0.6261461109
  N         1.6089808105       10.2184275769        2.6013848932
 Ga         1.6089832886        8.3605308706        3.2312115857
  N         1.6089863425        8.3605290109        5.2064553263
 Ga         1.6090037594       10.2184149475        5.8362734500
  N         1.6089809300       10.2184274789        7.8115142789
 Ga         1.6089832905        8.3605309057        8.4413380047
  N         1.6089862103        8.3605290703       10.4165784006
 Ga         1.6090038248       10.2184148472       11.0464001786
  N         1.6089808821       10.2184274255       13.0216427085
 Ga         1.6089834551        8.3605307362       13.6514657322
  N         9.6539097065       -0.0000009768       -0.0036734253
 Ga         9.6539273175        1.8578848764        0.6261463416
  N         9.6539045093        1.8578976834        2.6013851755
 Ga         9.6539071792        0.0000013026        3.2312117168
  N         9.6539097573       -0.0000009373        5.2064552013
 Ga         9.6539273933        1.8578850057        5.8362737048
  N         9.6539047096        1.8578976036        7.8115144886
 Ga         9.6539072596        0.0000012568        8.4413381561
  N         9.6539097411       -0.0000009134       10.4165781981
 Ga         9.6539273372        1.8578849545       11.0464002634
  N         9.6539046631        1.8578975684       13.0216428562
 Ga         9.6539072789        0.0000010963       13.6514660175
  N         8.0449250721        2.7868423130       -0.0036735250
 Ga         8.0449422547        4.6447283575        0.6261462947
  N         8.0449198840        4.6447409704        2.6013851524
 Ga         8.0449221234        2.7868446021        3.2312116408
  N         8.0449250450        2.7868424348        5.2064550422
 Ga         8.0449423040        4.6447283338        5.8362737009
  N         8.0449200272        4.6447409302        7.8115143179
 Ga         8.0449223098        2.7868446411        8.4413379515
  N         8.0449251720        2.7868423452       10.4165780710
 Ga         8.0449423088        4.6447283960       11.0464003495
  N         8.0449200688        4.6447408624       13.0216427396
 Ga         8.0449221246        2.7868445708       13.6514657885
  N         6.4359404619        5.5736855882       -0.0036732689
 Ga         6.4359575485        7.4315717199        0.6261463365
  N         6.4359352468        7.4315842255        2.6013852681
 Ga         6.4359371847        5.5736879073        3.2312115294
  N         6.4359404102        5.5736856346        5.2064552924
 Ga         6.4359574793        7.4315716835        5.8362737840
  N         6.4359353053        7.4315841421        7.8115144548
 Ga         6.4359372105        5.5736879402        8.4413380006
  N         6.4359404541        5.5736856236       10.4165781747
 Ga         6.4359575537        7.4315716540       11.0464005619
  N         6.4359353998        7.4315842357       13.0216428489
 Ga         6.4359372296        5.5736879724       13.6514656343
  N         4.8269556605        8.3605290111       -0.0036735162
 Ga         4.8269731212       10.2184149694        0.6261462396
  N         4.8269503473       10.2184275175        2.6013850379
 Ga         4.8269527875        8.3605312230        3.2312116732
  N         4.8269556714        8.3605288395        5.2064550958
 Ga         4.8269731171       10.2184149219        5.8362736741
  N         4.8269504682       10.2184274387        7.8115143693
 Ga         4.8269528646        8.3605311632        8.4413380000
  N         4.8269556345        8.3605289232       10.4165780246
 Ga         4.8269731723       10.2184150106       11.0464003795
  N         4.8269504237       10.2184275086       13.0216427372
 Ga         4.8269526792        8.3605310408       13.6514657869
     192
 i =        3, E =     -8119.7491776626
  N         0.0000037704       -0.0000022620       -0.0052769082
 Ga         0.0000224325        1.8568468592        0.6286784061
  N        -0.0000043116        1.8568625792        2.6034290053
 Ga        -0.0000021809        0.0000014154        3.2373923069
  N         0.0000037711       -0.0000021242        5.2121489168
 Ga         0.0000224846        1.8568470633        5.8461029744
  N        -0.0000041215        1.8568625289        7.8208553825
 Ga        -0.0000021672        0.0000013277        8.4548153564
  N         0.0000038648       -0.0000021899       10.4295678643
 Ga         0.0000224522        1.8568468858       11.0635261594
  N        -0.0000040970        1.8568625419       13.0382809750
 Ga        -0.0000021497        0.0000012389       13.6722403128
  N        -1.6080842653        2.7852879824       -0.0052770175
 Ga        -1.6080654442        4.6421371503        0.6286782841
  N        -1.6080923372        4.6421527566        2.6034288962
 Ga        -1.6080900331        2.7852913309        3.2373923250
  N        -1.6080842310        2.7852880395        5.2121487660
 Ga        -1.6080655590        4.6421370795        5.8461027902
  N        -1.6080921978        4.6421526680        7.8208552909
 Ga        -1.6080900020        2.7852913144        8.4548152825
  N        -1.6080842352        2.7852879865       10.4295676505
 Ga        -1.6080654249        4.6421370565       11.0635261276
  N        -1.6080921783        4.6421526974       13.0382808167
 Ga        -1.6080899617        2.7852914399       13.6722401148
  N        -3.2161723258        5.5705781436       -0.0052766734
 Ga        -3.2161540459        7.4274274437        0.6286782585
  N        -3.2161803986        7.4274429565        2.6034290265
 Ga        -3.2161784455        5.5705814006        3.2373923005
  N        -3.2161723377        5.5705781052        5.2121489664
 Ga        -3.2161539978        7.4274271303        5.8461028361
  N        -3.2161802293        7.4274427798        7.8208555377
 Ga        -3.2161783016        5.5705813828        8.4548152196
  N        -3.2161722907        5.5705781566       10.4295679345
 Ga        -3.2161539351        7.4274273731       11.0635260867
  N        -3.2161801426        7.4274430031       13.0382810130
 Ga        -3.2161783357        5.5705813910       13.6722399587
  N        -4.8242602833        8.3558684152       -0.0052770053
 Ga        -4.8242418917       10.2127174595        0.6286782195
  N        -4.8242684560       10.2127330387        2.6034287847
 Ga        -4.8242665400        8.3558719573        3.2373923407
  N        -4.8242603765        8.3558683321        5.2121487238
 Ga        -4.8242418203       10.2127175863        5.8461028347
  N        -4.8242682577       10.2127330948        7.8208553010
 Ga        -4.8242664573        8.3558717705        8.4548152733
  N        -4.8242602468        8.3558683581       10.4295677962
 Ga        -4.8242418851       10.2127176499       11.0635261134
  N        -4.8242681489       10.2127330060       13.0382808467
 Ga        -4.8242664900        8.3558718410       13.6722402114
  N         3.2161798112       -0.0000023199       -0.0052770409
 Ga         3.2161983471        1.8568471486        0.6286783322
  N         3.2161718404        1.8568625332        2.6034292055
 Ga         3.2161733362        0.0000012309        3.2373923056
  N         3.2161797127       -0.0000021293        5.2121488086
 Ga         3.2161983236        1.8568471303        5.8461029512
  N         3.2161719327        1.8568624470        7.8208556451
 Ga         3.2161734819        0.0000013597        8.4548152811
  N         3.2161798639       -0.0000022253       10.4295678110
 Ga         3.2161982446        1.8568470214       11.0635262123
  N         3.2161719591        1.8568623908       13.0382811325
 Ga         3.2161734441        0.0000012102       13.6722400928
  N         1.6080917375        2.7852879650       -0.0052771814
 Ga         1.6081104825        4.6421371098        0.6286782594
  N         1.6080837093        4.6421527615        2.6034290822
 Ga         1.6080854688        2.7852912360        3.2373923070
  N         1.6080917255        2.7852879020        5.2121486546
 Ga         1.6081104457        4.6421370935        5.8461028180
  N         1.6080838993        4.6421526285        7.8208555085
 Ga         1.6080856443        2.7852911584        8.4548151767
  N         1.6080918566        2.7852879485       10.4295675608
 Ga         1.6081104217        4.6421371180       11.0635260558
  N         1.6080838952        4.6421526923       13.0382810583
 Ga         1.6080856844        2.7852912095       13.6722400595
  N         0.0000037177        5.5705780751       -0.0052769168
 Ga         0.0000225509        7.4274270784        0.6286782848
  N        -0.0000041641        7.4274427862        2.6034292227