     156
 i =        1, E =     -6136.1774437148
 Ga        -0.0031984804       -0.0157193200       -0.5331069007
  N        -0.0002939735        1.8585915328        0.6061653548
 Ga        -0.0003474970        1.8277979575        2.6379267675
  N        -0.0034356428       -0.0156360217        3.2694399688
 Ga        -0.0022035618       -0.0150495251        5.2602382992
  N         0.0008029981        1.8595584301        5.8482791632
 Ga         0.0021976836        1.8581590321        7.8481746183
  N         0.0007846353       -0.0150963562        8.4504114219
 Ga         0.0039398899       -0.0151644990       10.4496843689
  N         0.0041110990        1.8599251125       11.0449071448
 Ga         0.0092055775        1.8631484907       13.0370468798
  N         0.0160156744       -0.0106001359       13.6273318716
 Ga         0.0282096442       -0.0055311382       15.6173123923
  N         0.0116365272        1.8566498150       16.2262065360
 Ga         0.0441991271        1.8428601962       18.2894091717
  N         0.0528370260       -0.0341076972       18.7087049496
 Ga        -1.6232526185        2.7902070918        0.3243480671
  N        -1.6246615483        4.6598352482        0.6070193592
 Ga        -1.5957674618        4.6757302536        2.6367701327
  N        -1.6228741521        2.7898968659        3.2282056213
 Ga        -1.6217255235        2.7906120745        5.2398404528
  N        -1.6212943060        4.6609305406        5.8465850657
 Ga        -1.6191575397        4.6613561379        7.8452033795
  N        -1.6203697946        2.7917879442        8.4509160681
 Ga        -1.6188984723        2.7951763181       10.4470112670
  N        -1.6173608224        4.6667975459       11.0552842851
 Ga        -1.6177993374        4.6713184212       13.0522647030
  N        -1.6100413544        2.8010722951       13.6530391448
 Ga        -1.5937089794        2.8145909856       15.6551702900
  N        -1.5865976808        4.6815895388       16.3073108040
 Ga        -1.5132443508        4.6787566378       18.3834164263
  N        -1.4631931516        2.8270739131       19.0172612122
 Ga        -3.2435535790        5.5952146561        0.3242811680
  N        -3.2373168579        7.4660980272        0.6063701799
 Ga        -3.2644351897        7.4808485944        2.6380261951
  N        -3.2426883584        5.5953679610        3.2285311412
 Ga        -3.2418939459        5.5960235726        5.2399977204
  N        -3.2358602808        7.4662946670        5.8470262854
 Ga        -3.2359113084        7.4670507609        7.8460980979
  N        -3.2399014763        5.5961540463        8.4492261258
 Ga        -3.2386088038        5.5972135955       10.4445241224
  N        -3.2307657186        7.4657325077       11.0552981109
 Ga        -3.2221166742        7.4628868302       13.0529101121
  N        -3.2326277989        5.5992864871       13.6955261476
 Ga        -3.2216627468        5.5932381907       15.7313556026
  N        -3.2154817084        7.4820038759       16.2601220966
 Ga        -3.1804823939        7.4515542020       18.3193619607
  N        -3.1603894504        5.5893423800       18.8545221076
 Ga         3.2429157391       -0.0154074473        0.3246142686
  N         3.2410343639        1.8545840878        0.6064075245
 Ga         3.2694842624        1.8704067721        2.6370773101
  N         3.2425294690       -0.0154868889        3.2281799184
 Ga         3.2439675201       -0.0146799444        5.2398632981
  N         3.2445712691        1.8554805682        5.8475358880
 Ga         3.2469412844        1.8562139427        7.8469309900
  N         3.2449188989       -0.0147933687        8.4495461867
 Ga         3.2477609172       -0.0140530791       10.4449740514
  N         3.2511716226        1.8568033243       11.0509908789
 Ga         3.2575316282        1.8537290610       13.0480217288
  N         3.2565212861       -0.0169488387       13.6607392896
 Ga         3.2749948091       -0.0170197718       15.6663652432
  N         3.2808855031        1.8623393648       16.2192689690
 Ga         3.3154968175        1.8600215441       18.2444047946
  N         3.3140997651       -0.0293555011       18.7009061222
 Ga         1.6222905699        2.7909068998        0.3242456918
  N         1.6291176334        4.6604766057        0.6072950047
 Ga         1.6011687531        4.6758519825        2.6370822831
  N         1.6226170465        2.7900528046        3.2289417673
 Ga         1.6241766622        2.7909343684        5.2408318509
  N         1.6297012177        4.6611662665        5.8484633282
 Ga         1.6300214091        4.6614170446        7.8482145860
  N         1.6259965156        2.7902660364        8.4493563849
 Ga         1.6290463258        2.7914580639       10.4448303219
  N         1.6275838001        4.6622864370       11.0484555987
 Ga         1.6288365968        4.6628782704       13.0429119297
  N         1.6329154012        2.7879234476       13.6460965423
 Ga         1.6431996249        2.7771868388       15.6406161765
  N         1.6337030653        4.6647598188       16.1836304813
 Ga         1.6766875620        4.6405063871       18.1834786827
  N         1.6836274107        2.7770556234       18.6479393116
 Ga         0.0030977302        5.5957615803       -0.5478806394
  N         0.0059363389        7.4705944210        0.6069881092
 Ga         0.0060416444        7.4383459351        2.6368630649
  N         0.0029934771        5.5951907481        3.2695218097
 Ga         0.0046581888        5.5961872635        5.2597013276
  N         0.0074428551        7.4706950983        5.8477555259
 Ga         0.0087935054        7.4692832659        7.8471456394
  N         0.0049194157        5.5957426470        8.4470382094
 Ga         0.0063795331        5.5971415284       10.4440353711
  N         0.0116734981        7.4691783317       11.0461695261
 Ga         0.0139093194        7.4711216288       13.0387982493
  N         0.0068745488        5.6017155605       13.6478149918
 Ga         0.0035096364        5.6025440495       15.6429213831
  N         0.0338890709        7.4602133788       16.2779991765
 Ga         0.0837305691        7.4280980917       18.3617979015
  N         0.1403147324        5.5763080049       18.9086344885
 Ga         6.4869108267       -0.0149710461        0.3238412581
  N         6.4937267281        1.8550358280        0.6060498825
 Ga         6.4661717586        1.8702268304        2.6368574685
  N         6.4882751116       -0.0154344105        3.2287555224
 Ga         6.4897339792       -0.0147033216        5.2406889835
  N         6.4945131851        1.8558363538        5.8479566482
 Ga         6.4945392849        1.8569371991        7.8474828886
  N         6.4909322549       -0.0136853886        8.4509943149
 Ga         6.4942946330       -0.0113127609       10.4473797070
  N         6.4968122599        1.8609254224       11.0528367050
 Ga         6.5000360243        1.8660561694       13.0498321869
  N         6.4898909058       -0.0079766780       13.6403526172
 Ga         6.5037329327        0.0011561357       15.6435212380
  N         6.5232825893        1.8782756087       16.2345402894
 Ga         6.6565565277        1.9249015524       18.2961241950
  N         6.5633718008       -0.0011615411       18.6481329817
 Ga         4.8675509440        2.7916341203       -0.5418616349
  N         4.8709571915        4.6648569763        0.6069342519
 Ga         4.8707954662        4.6334001131        2.6373237336
  N         4.8682740795        2.7899427192        3.2691438382
 Ga         4.8695381805        2.7911074730        5.2594405025
  N         4.8721327292        4.6652246407        5.8481232641
 Ga         4.8728386368        4.6639417470        7.8477170328
  N         4.8708844368        2.7913822361        8.4503026056
 Ga         4.8736956162        2.7952200873       10.4497181042
  N         4.8797685525        4.6661540397       11.0584917041
 Ga         4.8835851290        4.6702999441       13.0610604865
  N         4.8745548160        2.7952464235       13.6513537609
 Ga         4.8856955230        2.8003726432       15.6637455334
  N         4.8667268686        4.6723868958       16.1753129641
 Ga         4.9288422258        4.6591246536       19.0947670306
  N         4.9545248366        2.7696912859       18.7384001386
 Ga         3.2486762431        5.5947173018        0.3238093574
  N         3.2479333655        7.4655046029        0.6058256920
 Ga         3.2756667845        7.4807128178        2.6375456013
  N         3.2485745006        5.5956093942        3.2289263581
 Ga         3.2499424012        5.5963776316        5.2405490312
  N         3.2504611792        7.4661626180        5.8493807879
 Ga         3.2531835437        7.4666923607        7.8496126515
  N         3.2513995556        5.5959677799        8.4547101013
 Ga         3.2549204315        5.5974444691       10.4535471784
  N         3.2566461571        7.4713041945       11.0517333952
 Ga         3.2586798030        7.4717286295       13.0488456381
  N         3.2487315376        5.5956680491       13.6326958203
 Ga         3.2607140561        5.6062577627       15.6389802108
  N         3.2811427415        7.4900797039       16.1552801547
 Ga         3.3269596036        7.4961068900       18.1708706195
  N         3.3565691680        5.5736880921       18.4711835897
  O         1.5524855136        5.0318054871       21.2542783104
  H         0.9929394188        5.3934234588       20.4866068264
  C         0.7596573077        3.9396373776       21.7964434016
  H         0.0321608662        3.5235805515       21.0074044522
  H         1.5321477116        3.2341358218       22.1792828067
  H         0.3368143802        4.3638407310       22.7400461050
  O         4.2312451417        4.7164166616       21.0756917810
  H         3.2214877009        4.8673339963       21.0753307997
  C         4.5516941858        3.5969113621       21.9428086061
  H         4.1180064184        2.6626075479       21.5597931693
  H         5.6437561809        3.5041485424       21.9649000646
  H         4.1788003943        3.8120552805       22.9522818258
     156
 i =        2, E =     -6136.4429782763
 Ga        -0.0031892600       -0.0157013206       -0.5342461091
  N        -0.0002745434        1.8586701812        0.6067446024
 Ga        -0.0003053321        1.8278245258        2.6379952194
  N        -0.0034105114       -0.0155954798        3.2695457146
 Ga        -0.0021602318       -0.0150547622        5.2600736889
  N         0.0008382384        1.8596150386        5.8483999199
 Ga         0.0021316497        1.8582207548        7.8483028250
  N         0.0008842302       -0.0151457816        8.4511410774
 Ga         0.0039931182       -0.0151474171       10.4506664518
  N         0.0041390333        1.8600795745       11.0446036921
 Ga         0.0097678929        1.8626291610       13.0363477533
  N         0.0161061040       -0.0101548947       13.6260242921
 Ga         0.0279051123       -0.0060626596       15.6162308402
  N         0.0122063873        1.8572527602       16.2380942679
 Ga         0.0626712393        1.8464882350       18.3059197378
  N         0.0504912692       -0.0369863630       18.6987647941
 Ga        -1.6230968575        2.7901868557        0.3237610908
  N        -1.6247966455        4.6597287549        0.6073287255
 Ga        -1.5958189029        4.6756949147        2.6368164800
  N        -1.6228867211        2.7897705825        3.2282429777
 Ga        -1.6217501528        2.7906088615        5.2396329054
  N        -1.6212917085        4.6608897044        5.8465316608
 Ga        -1.6191933998        4.6614244548        7.8450963733
  N        -1.6204315793        2.7919375622        8.4518070590
 Ga        -1.6188452970        2.7954421679       10.4479458949
  N        -1.6176251612        4.6670904755       11.0552887883
 Ga        -1.6166666754        4.6711220280       13.0516446510
  N        -1.6099820585        2.8005316526       13.6479985440
 Ga        -1.5879501102        2.8172847198       15.6462993506
  N        -1.5879243612        4.6780237347       16.3128351021
 Ga        -1.5034189106        4.6873033534       18.3862291304
  N        -1.3288550720        2.8903044094       19.2672612122
 Ga        -3.2434601674        5.5953165846        0.3237219593
  N        -3.2372086062        7.4660551135        0.6069748286
 Ga        -3.2644007293        7.4808063717        2.6381823070
  N        -3.2427700186        5.5953513758        3.2286524684
 Ga        -3.2419235886        5.5960273068        5.2398938771
  N        -3.2357930386        7.4663478657        5.8469892863
 Ga        -3.2358303023        7.4669633015        7.8459801972
  N        -3.2399044355        5.5961370017        8.4494532717
 Ga        -3.2383773935        5.5970991409       10.4443555974
  N        -3.2307110854        7.4651319295       11.0552195435
 Ga        -3.2221784303        7.4635558005       13.0530705252
  N        -3.2332902101        5.5974234812       13.6911815372
 Ga        -3.2176160754        5.5939476709       15.7271826100
  N        -3.2157339490        7.4813350078       16.2637576300
 Ga        -3.1777189175        7.4503127817       18.3202128029
  N        -3.1632880977        5.5852282245       18.8423029755
 Ga         3.2428875234       -0.0154987058        0.3240294435
  N         3.2410326139        1.8545902680        0.6066154738
 Ga         3.2695093425        1.8704182078        2.6371460502
  N         3.2424934843       -0.0153793512        3.2282050634
 Ga         3.2439814616       -0.0146138413        5.2396196191
  N         3.2445883932        1.8555060451        5.8474669378
 Ga         3.2471459059        1.8562571409        7.8467291273
  N         3.2448813514       -0.0146891725        8.4502420386
 Ga         3.2478491992       -0.0142578727       10.4458971221
  N         3.2519205748        1.8571505356       11.0508818959
 Ga         3.2579219234        1.8539068280       13.0481132844
  N         3.2563234409       -0.0163377948       13.6600720784
 Ga         3.2752443661       -0.0202456040       15.6670857064
  N         3.2764510837        1.8605208940       16.2220659691
 Ga         3.3391677988        1.8542391913       18.2478660511
  N         3.3111426081       -0.0278988634       18.7121569699
 Ga         1.6221697878        2.7908961433        0.3237025457
  N         1.6292761905        4.6603705701        0.6076032184
 Ga         1.6012686703        4.6757782421        2.6370919748
  N         1.6226858933        2.7899427491        3.2289837359
 Ga         1.6242457075        2.7908970772        5.2405758615
  N         1.6297791415        4.6611366005        5.8483374834
 Ga         1.6301347723        4.6615985057        7.8480929457
  N         1.6261714698        2.7903417022        8.4501399420
 Ga         1.6290610695        2.7917494043       10.4458739793
  N         1.6274044427        4.6627478401       11.0489890763
 Ga         1.6296513989        4.6633684703       13.0442561951
  N         1.6331691096        2.7877591375       13.6434932426
 Ga         1.6402290116        2.7810156048       15.6377770726
  N         1.6298976845        4.6640730322       16.1878642266
 Ga         1.6764248667        4.6447015713       18.1863604623
  N         1.7067014184        2.7805659014       18.6339026038
 Ga         0.0031600416        5.5957402886       -0.5485308456
  N         0.0059468979        7.4707581231        0.6073367548
 Ga         0.0060632728        7.4384255946        2.6369499264
  N         0.0030427393        5.5951753900        3.2695263922
 Ga         0.0046521568        5.5962102560        5.2595151489
  N         0.0074291429        7.4707628960        5.8477250849
 Ga         0.0088483964        7.4693069465        7.8471569802
  N         0.0048997553        5.5956690104        8.4475162888
 Ga         0.0060982937        5.5971263414       10.4446205363
  N         0.0119349877        7.4690571693       11.0460971975
 Ga         0.0142367576        7.4712293008       13.0392489430
  N         0.0061979550        5.6014107975       13.6451404464
 Ga         0.0017254784        5.6007041757       15.6410745035
  N         0.0373056009        7.4576066944       16.2801880729
 Ga         0.0882449521        7.4460835566       18.3633095580
  N         0.1455312846        5.5926325053       18.8994104812
 Ga         6.4869701333       -0.0150675035        0.3232741552
  N         6.4937420370        1.8550420537        0.6062487885
 Ga         6.4661702366        1.8702209366        2.6369284897
  N         6.4883501435       -0.0153428704        3.2288647202
 Ga         6.4897635780       -0.0146054810        5.2405812459
  N         6.4945630221        1.8559091942        5.8480044426
 Ga         6.4945364391        1.8569874075        7.8474542514
  N         6.4909620510       -0.0135809593        8.4512943774
 Ga         6.4941608323       -0.0111493409       10.4476294917
  N         6.4965542322        1.8611001165       11.0515826620
 Ga         6.5008617364        1.8653350211       13.0477728981
  N         6.4899702903       -0.0062704303       13.6429038537
 Ga         6.5040401079        0.0076492636       15.6496839291
  N         6.5388194600        1.8863372935       16.2676611762
 Ga         6.7619131785        1.9847984877       18.3565825171
  N         6.5725440109        0.0250772603       18.6460302017
 Ga         4.8675689138        2.7915699458       -0.5410190875
  N         4.8709796657        4.6648221041        0.6071499338
 Ga         4.8708106328        4.6333966796        2.6374364856
  N         4.8682827740        2.7899329358        3.2691762572
 Ga         4.8695888557        2.7911322444        5.2593224098
  N         4.8721681269        4.6652046719        5.8480829589
 Ga         4.8729042129        4.6639555701        7.8475359304
  N         4.8709280160        2.7914808554        8.4503255780
 Ga         4.8740384353        2.7953451177       10.4491500790
  N         4.8803280679        4.6658011828       11.0576119582
 Ga         4.8813906665        4.6706498585       13.0596263906
  N         4.8771177082        2.7958085508       13.6571804831
 Ga         4.8929363014        2.7961410308       15.6751802407
  N         4.8695636838        4.6740981153       16.1694162864
 Ga         4.9283703561        4.6576325237       19.1016680837
  N         4.9845110407        2.7717598347       18.7294262090
 Ga         3.2486170292        5.5947983069        0.3232645469
  N         3.2478521233        7.4654520852        0.6064558204
 Ga         3.2756737726        7.4806792177        2.6377188955
  N         3.2486711971        5.5955772167        3.2290088553
 Ga         3.2500830579        5.5963729747        5.2403755445
  N         3.2504994409        7.4661569240        5.8493573098
 Ga         3.2531388259        7.4666524830        7.8495874292
  N         3.2515748858        5.5959203796        8.4555260760
 Ga         3.2550417461        5.5974999612       10.4546824301
  N         3.2562603078        7.4715663852       11.0513820802
 Ga         3.2588356897        7.4720563907       13.0491207061
  N         3.2495632760        5.5968490262       13.6338705938
 Ga         3.2563641057        5.6073161981       15.6410516206
  N         3.2814100814        7.4906187523       16.1542519846
 Ga         3.3226026566        7.4937669746       18.1677181479
  N         3.3593634448        5.5723233947       18.4759550123
  O         1.5359308301        5.0193546156       21.2156169458
  H         0.9846393142        5.4167801509       20.4697807442
  C         0.7071921351        3.9105404241       21.7102266940
  H        -0.1017831740        3.4561212835       20.9498661866
  H         1.4484179576        3.1853188761       22.1086266175
  H         0.2561643159        4.3029539373       22.6503471115
  O         4.2280956241        4.7186130891       21.0751478450
  H         3.2177603167        4.8592744583       21.0795154624
  C         4.5510414086        3.5989057775       21.9419614681
  H         4.1178657915        2.6638607573       21.5605128828
  H         5.6428482559        3.5039540500       21.9649560796
  H         4.1787233668        3.8107639825       22.9521039472
     156
 i =        3, E =     -6136.5745662756
 Ga        -0.0031769348       -0.0156992354       -0.5304631937
  N        -0.0002579961        1.8588789060        0.6061006024
 Ga        -0.0002920249        1.8275581544        2.6375037795
  N        -0.0033469971       -0.0157501429        3.2697958488
 Ga        -0.0021041063       -0.0147481106        5.2600807878
  N         0.0009124511        1.8595296050        5.8492433687
 Ga         0.0023621173        1.8584314710        7.8484284414
  N         0.0008632038       -0.0146032973        8.4503394013
 Ga         0.0035382741       -0.0143044665       10.4481419857
  N         0.0043872336        1.8600362705       11.0420277641
 Ga         0.0117932172        1.8632766705       13.0305104860
  N         0.0172818781       -0.0057826508       13.6314733339
 Ga         0.0176467106        0.0011335919       15.6245271723
  N         0.0056688325        1.8684187201       16.2535925018
 Ga         0.1013870136        1.8613576221       18.3391739106
  N         0.0522151725       -0.0332101344       18.7055758201
 Ga        -1.6233907105        2.7905839547        0.3232265779
  N        -1.6243331393        4.6599632896        0.6078341275
 Ga        -1.5958306965        4.6756297703        2.6366130756
  N        -1.6223573949        2.7899019321        3.2288236643
 Ga        -1.6213450026        2.7906285814        5.2398349923
  N        -1.6211970964        4.6610552944        5.8473899100
 Ga        -1.6184271192        4.6608882652        7.8455658138
  N        -1.6198865034        2.7916748826        8.4506757877
 Ga        -1.6177592050        2.7944393242       10.4446929251
  N        -1.6161936785        4.6645205773       11.0509279073
 Ga        -1.6159330860        4.6717471048       13.0453043764
  N        -1.6098564838        2.7982683803       13.6402906822
 Ga        -1.5823331082        2.8193966711       15.6284925950
  N        -1.5866594431        4.6629508851       16.3347231363
 Ga        -1.4821507754        4.6765420723       18.4170787567
  N        -1.2085644005        2.9259884895       19.5172612122
 Ga        -3.2432106767        5.5947812120        0.3231742393
  N        -3.2369392474        7.4658472574        0.6061622471
 Ga        -3.2645592262        7.4808965305        2.6374223506
  N        -3.2424536570        5.5957558137        3.2288552011
 Ga        -3.2414297257        5.5962839614        5.2394811195
  N        -3.2358715235        7.4663862132        5.8477931510
 Ga        -3.2359137255        7.4678505673        7.8464071407
  N        -3.2394083346        5.5964252088        8.4504626458
 Ga        -3.2376229893        5.5973734938       10.4460631616
  N        -3.2313859103        7.4673867626       11.0537930535
 Ga        -3.2229320438        7.4622560386       13.0518549197
  N        -3.2288917509        5.5960883227       13.6972503884
 Ga        -3.2141646326        5.5905680242       15.7373038309
  N        -3.2246504364        7.4886939061       16.2517707160
 Ga        -3.1706995004        7.4613777660       18.3123860082
  N        -3.1549927865        5.5875228905       18.8198481031
 Ga         3.2434540267       -0.0154793924        0.3234984552
  N         3.2406940550        1.8543176579        0.6071335497
 Ga         3.2691196819        1.8701432656        2.6370648007
  N         3.2422645919       -0.0159321057        3.2286420924
 Ga         3.2440912369       -0.0147460777        5.2396102846
  N         3.2445852464        1.8555072852        5.8481396845
 Ga         3.2463652338        1.8562139799        7.8470967081
  N         3.2453229758       -0.0147459983        8.4498944192
 Ga         3.2481395634       -0.0138187044       10.4443717196
  N         3.2508274014        1.8571582632       11.0504777934
 Ga         3.2616392069        1.8572459402       13.0469968619
  N         3.2557645915       -0.0146155499       13.6624017623
 Ga         3.2794459336       -0.0305871951       15.6716629189
  N         3.2682657712        1.8541662036       16.2228567462
 Ga         3.3764743233        1.8450963755       18.2565656557
  N         3.3229737167       -0.0276397101       18.7145409115
 Ga         1.6225326795        2.7912666890        0.3231400234
  N         1.6289141980        4.6605728273        0.6081300335
 Ga         1.6013954648        4.6757363124        2.6369180987
  N         1.6222361013        2.7900441558        3.2295411460
 Ga         1.6239795315        2.7909457921        5.2408009661
  N         1.6298082152        4.6613166656        5.8493611784
 Ga         1.6297072718        4.6610749916        7.8488185898
  N         1.6258874206        2.7901549920        8.4499291936
 Ga         1.6288434369        2.7916057387       10.4442043286
  N         1.6269507009        4.6611128139       11.0491499808
 Ga         1.6295689477        4.6633544564       13.0456449732
  N         1.6336394297        2.7847793593       13.6459161769
 Ga         1.6340820240        2.7896680010       15.6440875071
  N         1.6291159939        4.6693821148       16.1886962041
 Ga         1.6804750740        4.6466813406       18.1887928486
  N         1.7582455213        2.7905603474       18.6408961665
 Ga         0.0032190679        5.5957658962       -0.5500252055
  N         0.0060020423        7.4702641519        0.6079540755
 Ga         0.0061382261        7.4385082185        2.6368723621
  N         0.0030644822        5.5951373706        3.2695868830
 Ga         0.0047369278        5.5962848884        5.2592189394
  N         0.0075452049        7.4707218518        5.8481710174
 Ga         0.0088187385        7.4693443619        7.8468989639
  N         0.0049817892        5.5962705704        8.4479527916
 Ga         0.0068585901        5.5974231173       10.4447608980
  N         0.0116454155        7.4698792047       11.0478579052
 Ga         0.0174139502        7.4723995961       13.0427705044
  N         0.0035369828        5.6015065865       13.6466945812
 Ga         0.0001813051        5.6057798262       15.6475921437
  N         0.0453537391        7.4621173532       16.2823674731
 Ga         0.1048809414        7.4877591365       18.3523002556
  N         0.1591800689        5.6345438763       18.8613663789
 Ga         6.4865011644       -0.0150397847        0.3227515111
  N         6.4941544120        1.8547717912        0.6067459733
 Ga         6.4667232526        1.8699497324        2.6367962710
  N         6.4886597808       -0.0158133039        3.2292752491
 Ga         6.4898106328       -0.0147346099        5.2404770850
  N         6.4947555014        1.8558337029        5.8486350758
 Ga         6.4954149856        1.8569419916        7.8477653667
  N         6.4906016686       -0.0137170027        8.4511967021
 Ga         6.4943181717       -0.0111041439       10.4469058804
  N         6.4987082793        1.8613121977       11.0491434613
 Ga         6.4981596990        1.8648019104       13.0432307106
  N         6.4884843520        0.0005671074       13.6592998660
 Ga         6.5087667735        0.0243616871       15.6727201281
  N         6.5746564388        1.9017492314       16.3365951373
 Ga         6.8264477308        2.0216898721       18.4563827977
  N         6.6051424327        0.0410913217       18.6393604157
 Ga         4.8676455245        2.7915749362       -0.5450223622
  N         4.8710317362        4.6652285961        0.6075857830
 Ga         4.8708832933        4.6338680086        2.6371606292
  N         4.8683932731        2.7899906820        3.2691927597
 Ga         4.8697031228        2.7909041418        5.2590720623
  N         4.8722845075        4.6654959860        5.8483840597
 Ga         4.8728909850        4.6640123117        7.8477352099
  N         4.8710305352        2.7910197378        8.4503951924
 Ga         4.8742953097        2.7937698270       10.4491777954
  N         4.8798510251        4.6645979749       11.0608365762
 Ga         4.8814584016        4.6643387362       13.0672866331
  N         4.8813923409        2.7863827976       13.6843214133
 Ga         4.9160229368        2.7875489321       15.7135002190
  N         4.8661789232        4.6748539553       16.1870432599
 Ga         4.9297764732        4.6713978042       19.1088203710
  N         5.0175201177        2.7951506593       18.7204195589
 Ga         3.2484624173        5.5942424104        0.3227533092
  N         3.2476632199        7.4652229805        0.6057077142
 Ga         3.2759086404        7.4808197161        2.6370058143
  N         3.2485299292        5.5960187392        3.2292921796
 Ga         3.2497434307        5.5966181729        5.2400982735
  N         3.2506673357        7.4662157547        5.8501461029
 Ga         3.2533853906        7.4673332262        7.8499898400
  N         3.2513433427        5.5962635713        8.4560667143
 Ga         3.2539344153        5.5984010806       10.4558740448
  N         3.2568419007        7.4735000689       11.0537084646
 Ga         3.2557628138        7.4748620929       13.0535594451
  N         3.2501042603        5.5987807175       13.6335536443
 Ga         3.2546064835        5.6099608082       15.6424065315
  N         3.2779513865        7.4894135706       16.1550547770
 Ga         3.3348400513        7.4927136106       18.1612139012
  N         3.3636826503        5.5759040795       18.4687135530
  O         1.4659430692        4.9344046669       21.1595989423
  H         0.9687608890        5.4549612440       20.4347415932
  C         0.6033298924        3.8382808995       21.6479353414