     156
 i =        1, E =     -6136.6523047281
 Ga        -0.0031973249       -0.0158329492       -0.5375936903
  N        -0.0002729819        1.8584781663        0.6069998949
 Ga        -0.0003340603        1.8280285746        2.6383719139
  N        -0.0033776983       -0.0156158886        3.2696775692
 Ga        -0.0021654470       -0.0150503642        5.2603961676
  N         0.0008177186        1.8596741598        5.8482853071
 Ga         0.0022943547        1.8581488654        7.8482522518
  N         0.0008329179       -0.0150041181        8.4505781271
 Ga         0.0037451955       -0.0157228769       10.4497916943
  N         0.0042785962        1.8600682380       11.0415983247
 Ga         0.0095867555        1.8622310788       13.0320727905
  N         0.0153231333       -0.0087424179       13.6325507665
 Ga         0.0303922053       -0.0177741551       15.6248362235
  N         0.0199647688        1.8574799943       16.2215998865
 Ga         0.0449154121        1.8471752034       18.2877152787
  N         0.0483769486       -0.0267978530       18.6986023718
 Ga        -1.6230535858        2.7898791328        0.3238567034
  N        -1.6248091424        4.6597399517        0.6067009538
 Ga        -1.5956871784        4.6757305513        2.6367572784
  N        -1.6231061466        2.7899847479        3.2283162489
 Ga        -1.6217674053        2.7906183180        5.2398640343
  N        -1.6212819436        4.6608903014        5.8464749602
 Ga        -1.6191121456        4.6615332758        7.8452124141
  N        -1.6203684089        2.7918363246        8.4511783343
 Ga        -1.6194687463        2.7953398033       10.4471823295
  N        -1.6174703083        4.6668714549       11.0552133230
 Ga        -1.6182048975        4.6713946129       13.0527877257
  N        -1.6072520009        2.7998085021       13.6583840005
 Ga        -1.6007212585        2.8162319390       15.6629079108
  N        -1.5864732107        4.6838211553       16.3113547252
 Ga        -1.5140854669        4.6812547445       18.3867561891
  N        -1.5542614132        2.7884375756       18.7560523412
 Ga        -3.2437384500        5.5955549197        0.3237751782
  N        -3.2373750312        7.4661485124        0.6072578276
 Ga        -3.2641814608        7.4807094704        2.6385109917
  N        -3.2426866587        5.5950413663        3.2286547627
 Ga        -3.2419167898        5.5960176477        5.2401122139
  N        -3.2357831108        7.4663009764        5.8469758391
 Ga        -3.2358781251        7.4670858787        7.8461474237
  N        -3.2398790965        5.5961824120        8.4494960309
 Ga        -3.2389609913        5.5972475576       10.4449690583
  N        -3.2308443204        7.4658288041       11.0556790677
 Ga        -3.2219374632        7.4629796748       13.0544848398
  N        -3.2356021650        5.5972972138       13.6928383733
 Ga        -3.2228335870        5.5920360867       15.7298950974
  N        -3.2086656980        7.4743333474       16.2703703144
 Ga        -3.1859741376        7.4477771118       18.3276575328
  N        -3.1594731917        5.5859983499       18.8509473015
 Ga         3.2425512691       -0.0154444816        0.3241623557
  N         3.2414640801        1.8548065892        0.6064015458
 Ga         3.2696605233        1.8704495797        2.6372705619
  N         3.2428082132       -0.0153017895        3.2283173902
 Ga         3.2440037337       -0.0146001314        5.2399898936
  N         3.2446612648        1.8555405484        5.8474777973
 Ga         3.2471211763        1.8563018746        7.8468935750
  N         3.2448896631       -0.0146522100        8.4498310873
 Ga         3.2477460889       -0.0140888728       10.4453954731
  N         3.2516249190        1.8569312989       11.0512813138
 Ga         3.2584320170        1.8540093509       13.0486442417
  N         3.2577882135       -0.0166378407       13.6599089618
 Ga         3.2696936539       -0.0186910973       15.6657498340
  N         3.2837227263        1.8547626746       16.2307236298
 Ga         3.3198527211        1.8604800285       18.2551143884
  N         3.3062462963       -0.0255474562       18.7102081945
 Ga         1.6221357035        2.7905839738        0.3237588810
  N         1.6293374189        4.6603704020        0.6070217929
 Ga         1.6011633292        4.6758753232        2.6371212039
  N         1.6229364616        2.7900955617        3.2290519411
 Ga         1.6243016346        2.7909479933        5.2409146510
  N         1.6297316342        4.6611462979        5.8483934900
 Ga         1.6302407163        4.6616178318        7.8483551637
  N         1.6261114833        2.7902908839        8.4496019917
 Ga         1.6296901493        2.7921003385       10.4450661891
  N         1.6277807512        4.6624076910       11.0491248758
 Ga         1.6291932245        4.6646778328       13.0447948193
  N         1.6312531112        2.7873464115       13.6464575040
 Ga         1.6546488435        2.7849008314       15.6410907235
  N         1.6292882323        4.6649391500       16.1842754089
 Ga         1.6785930368        4.6401898208       18.1815610308
  N         1.6849350809        2.7775310301       18.6348719056
 Ga         0.0031267099        5.5957808593       -0.5460659073
  N         0.0059631105        7.4707668014        0.6066877475
 Ga         0.0060798439        7.4382897282        2.6368377487
  N         0.0030123892        5.5951899789        3.2695659363
 Ga         0.0046923911        5.5962070569        5.2598059813
  N         0.0074733493        7.4707308604        5.8477443413
 Ga         0.0089326445        7.4693615494        7.8473740774
  N         0.0049623081        5.5956922125        8.4474762907
 Ga         0.0067266756        5.5972413570       10.4447647516
  N         0.0116956050        7.4694141959       11.0449920001
 Ga         0.0151600838        7.4714561782       13.0370983909
  N         0.0057211545        5.6027664903       13.6455612879
 Ga         0.0065541600        5.6014660405       15.6417899063
  N         0.0373076834        7.4660350111       16.2689855866
 Ga         0.0724602069        7.4319610937       18.3566425164
  N         0.1402066266        5.5807207769       18.9023093499
 Ga         6.4873193318       -0.0150112450        0.3233767997
  N         6.4933547187        1.8552431925        0.6060737720
 Ga         6.4660942456        1.8703010518        2.6370700718
  N         6.4880554703       -0.0152152013        3.2289309528
 Ga         6.4897978509       -0.0146100258        5.2408862738
  N         6.4945649658        1.8559331255        5.8479422325
 Ga         6.4944336516        1.8568653718        7.8474978860
  N         6.4910160953       -0.0135251658        8.4515648654
 Ga         6.4945825639       -0.0112807384       10.4481754558
  N         6.4964372410        1.8611463500       11.0529635704
 Ga         6.5008676096        1.8654488048       13.0501567368
  N         6.4899797719       -0.0070095110       13.6381418857
 Ga         6.5090766295       -0.0000548860       15.6389819786
  N         6.5163355448        1.8736529977       16.2289862298
 Ga         6.5723558536        1.8766609543       18.2701988779
  N         6.5610515592       -0.0215147937       18.6562537467
 Ga         4.8675978322        2.7916175723       -0.5407218521
  N         4.8709926284        4.6643843892        0.6069471846
 Ga         4.8708433038        4.6332330252        2.6375468548
  N         4.8683124033        2.7899033112        3.2693072863
 Ga         4.8696074114        2.7911733116        5.2595489487
  N         4.8722548284        4.6651826027        5.8481320448
 Ga         4.8727486674        4.6640313694        7.8478174854
  N         4.8709689526        2.7914535271        8.4504485471
 Ga         4.8737812493        2.7956346989       10.4497033398
  N         4.8796205201        4.6660269285       11.0584442614
 Ga         4.8809734466        4.6697695386       13.0609390222
  N         4.8759843645        2.7957676377       13.6539827649
 Ga         4.8829182330        2.8016629002       15.6676410816
  N         4.8619916465        4.6738908963       16.1683454478
 Ga         4.9322981381        4.6623731913       19.0946760551
  N         4.9399183026        2.7839960097       18.7400465865
 Ga         3.2489113631        5.5950409914        0.3233198306
  N         3.2480354745        7.4655300548        0.6067685341
 Ga         3.2754813428        7.4805719805        2.6380881928
  N         3.2486684890        5.5952812028        3.2291059407
 Ga         3.2500909490        5.5963527304        5.2407812866
  N         3.2504882521        7.4661954777        5.8494240174
 Ga         3.2531345570        7.4666199791        7.8498646005
  N         3.2515169474        5.5960004663        8.4551768154
 Ga         3.2549092372        5.5976566511       10.4543119053
  N         3.2566825654        7.4714418362       11.0507172123
 Ga         3.2573613220        7.4729162718       13.0479351179
  N         3.2491364515        5.5987146192       13.6294926238
 Ga         3.2565380665        5.6059298607       15.6352735628
  N         3.2799849761        7.4864987492       16.1586717342
 Ga         3.3270003387        7.4923403510       18.1719565162
  N         3.3629145556        5.5701265640       18.4642053355
  O         1.5923618483        5.0934872487       21.2296783748
  H         0.9871252045        5.4006404792       20.4749647651
  C         0.8336027957        3.9699091440       21.8919678652
  H         0.1115709889        3.5376728613       21.1830451010
  H         1.5549309249        3.1999494033       22.1923899731
  H         0.3124800876        4.3726444828       22.7730540513
  O         4.2356380830        4.7157807900       21.0726884728
  H         3.2275694141        4.8656564246       21.0754611625
  C         4.5511407566        3.5977061301       21.9424246257
  H         4.1181746616        2.6629907318       21.5601844711
  H         5.6428930852        3.5045944170       21.9648007508
  H         4.1787686897        3.8114844710       22.9523020559
     156
 i =        2, E =     -6136.6535990180
 Ga        -0.0031955335       -0.0158514753       -0.5422317303
  N        -0.0002299442        1.8587071509        0.6074153137
 Ga        -0.0002335643        1.8277413866        2.6380739230
  N        -0.0033232321       -0.0156323488        3.2701955485
 Ga        -0.0021248775       -0.0150372480        5.2604786820
  N         0.0009327859        1.8597716704        5.8486196272
 Ga         0.0025167794        1.8583238714        7.8485240628
  N         0.0010196290       -0.0150596188        8.4498414160
 Ga         0.0042199840       -0.0154097371       10.4487370365
  N         0.0043353850        1.8599203412       11.0451693442
 Ga         0.0108814673        1.8617882660       13.0366793994
  N         0.0167434369       -0.0090393381       13.6384296291
 Ga         0.0331489457       -0.0255956727       15.6316132921
  N         0.0256476450        1.8564998477       16.2186403845
 Ga         0.0470968848        1.8512928201       18.2826042849
  N         0.0432950989       -0.0206329305       18.6903268238
 Ga        -1.6226539735        2.7896881845        0.3240935036
  N        -1.6247426224        4.6597171382        0.6063614206
 Ga        -1.5958272750        4.6756401441        2.6366950675
  N        -1.6229866129        2.7898901747        3.2283416985
 Ga        -1.6217086204        2.7907317388        5.2398735884
  N        -1.6211437460        4.6610249844        5.8468018738
 Ga        -1.6190285195        4.6618690775        7.8454958128
  N        -1.6203782835        2.7920176981        8.4510018397
 Ga        -1.6191919004        2.7955194796       10.4468365501
  N        -1.6176611385        4.6666351320       11.0560866368
 Ga        -1.6189283134        4.6705683249       13.0539713600
  N        -1.6058474309        2.7993224494       13.6632079846
 Ga        -1.6019519844        2.8151967377       15.6679471903
  N        -1.5887789864        4.6803011153       16.3121358548
 Ga        -1.5143054796        4.6823429737       18.3886118099
  N        -1.5525886382        2.7869979188       18.7410005483
 Ga        -3.2436451166        5.5959236284        0.3240495238
  N        -3.2370732734        7.4660207921        0.6076780810
 Ga        -3.2643501980        7.4807991121        2.6382441393
  N        -3.2426768706        5.5950946447        3.2286731845
 Ga        -3.2418517416        5.5960065135        5.2400656717
  N        -3.2356330299        7.4663459395        5.8471224565
 Ga        -3.2356263807        7.4670353670        7.8461624622
  N        -3.2398345517        5.5963376695        8.4500498634
 Ga        -3.2390827937        5.5972783735       10.4457734151
  N        -3.2310350928        7.4661353806       11.0554556065
 Ga        -3.2224755325        7.4622991415       13.0542721575
  N        -3.2365960938        5.5968763125       13.6923200505
 Ga        -3.2240678030        5.5903494474       15.7298749004
  N        -3.2041117938        7.4662163387       16.2752987714
 Ga        -3.1918722282        7.4447112229       18.3316686733
  N        -3.1559238825        5.5857046274       18.8576649241
 Ga         3.2423154348       -0.0156456364        0.3244110709
  N         3.2416808949        1.8549035209        0.6060257858
 Ga         3.2696344979        1.8703904410        2.6373054793
  N         3.2427764195       -0.0153383369        3.2283295174
 Ga         3.2441988996       -0.0145652415        5.2399351383
  N         3.2447197633        1.8555612927        5.8477100972
 Ga         3.2472627639        1.8563016729        7.8469660499
  N         3.2448533740       -0.0145299923        8.4499671980
 Ga         3.2475338513       -0.0139019593       10.4454364409
  N         3.2519377312        1.8570969155       11.0514631729
 Ga         3.2594236604        1.8531926060       13.0485470451
  N         3.2560161671       -0.0165773813       13.6607842628
 Ga         3.2646205586       -0.0184010009       15.6669112695
  N         3.2843129608        1.8512845176       16.2368121678
 Ga         3.3232329650        1.8608791963       18.2628080913
  N         3.2999015068       -0.0235639020       18.7259564629
 Ga         1.6218402220        2.7904129283        0.3240731088
  N         1.6293522910        4.6603571153        0.6067319768
 Ga         1.6014746765        4.6757334626        2.6370773443
  N         1.6229521835        2.7900117861        3.2290875918
 Ga         1.6244205098        2.7910824446        5.2408636371
  N         1.6297755054        4.6612347634        5.8486391889
 Ga         1.6303110955        4.6618291672        7.8484893631
  N         1.6264518509        2.7905204061        8.4496748121
 Ga         1.6297012059        2.7921627459       10.4451102037
  N         1.6278173314        4.6625764401       11.0476801078
 Ga         1.6269147496        4.6653717945       13.0432452891
  N         1.6336496485        2.7883849045       13.6470405111
 Ga         1.6591382977        2.7877630201       15.6406897836
  N         1.6265351203        4.6639305815       16.1782612334
 Ga         1.6788043718        4.6423903040       18.1756108712
  N         1.6852885939        2.7811985588       18.6251435647
 Ga         0.0032221196        5.5957286106       -0.5443921484
  N         0.0060107667        7.4707345543        0.6064149991
 Ga         0.0061445793        7.4385184330        2.6368297129
  N         0.0031088199        5.5951807411        3.2691374963
 Ga         0.0048192858        5.5962724927        5.2596084522
  N         0.0075516903        7.4707063343        5.8482197900
 Ga         0.0088978273        7.4693747760        7.8478080605
  N         0.0050986575        5.5957184433        8.4476223971
 Ga         0.0064398604        5.5970452049       10.4449235263
  N         0.0116671931        7.4695572024       11.0442631300
 Ga         0.0145097473        7.4726331183       13.0364007042
  N         0.0042509851        5.6040668643       13.6447911027
 Ga         0.0064699760        5.5988715804       15.6421431400
  N         0.0396879602        7.4707890933       16.2604261670
 Ga         0.0626102244        7.4362106407       18.3501005300
  N         0.1405128517        5.5845329009       18.8987317348
 Ga         6.4876673170       -0.0152192094        0.3236618775
  N         6.4932366727        1.8553440695        0.6056954598
 Ga         6.4662091859        1.8701973123        2.6370915434
  N         6.4882005086       -0.0152551500        3.2289799346
 Ga         6.4897974312       -0.0146311581        5.2408480179
  N         6.4946496741        1.8559077331        5.8481832112
 Ga         6.4943859179        1.8569120488        7.8476269727
  N         6.4910360292       -0.0134322714        8.4512904168
 Ga         6.4946178164       -0.0106311289       10.4479083887
  N         6.4967047881        1.8617935665       11.0543367435
 Ga         6.5013346357        1.8670256844       13.0519617729
  N         6.4913186758       -0.0059661552       13.6342863478
 Ga         6.5109361752        0.0013648147       15.6339037606
  N         6.5164534630        1.8716002328       16.2343026195
 Ga         6.5709881122        1.8731055219       18.2763924129
  N         6.5577292159       -0.0250775157       18.6632239750
 Ga         4.8676581190        2.7915177127       -0.5383506858
  N         4.8710548756        4.6641503595        0.6065447560
 Ga         4.8708709642        4.6333359057        2.6375649027
  N         4.8683769120        2.7899130656        3.2691346927
 Ga         4.8696834557        2.7912412295        5.2595061837
  N         4.8723323477        4.6652537684        5.8484224746
 Ga         4.8728264465        4.6642367906        7.8480485826
  N         4.8709848227        2.7915834741        8.4504009823
 Ga         4.8739591501        2.7957146302       10.4495121260
  N         4.8791174568        4.6658563327       11.0583042422
 Ga         4.8804374938        4.6698953736       13.0613958203
  N         4.8753334734        2.7964901298       13.6573233143
 Ga         4.8825594203        2.7993373201       15.6730511956
  N         4.8561568747        4.6739360879       16.1586779379
 Ga         4.9377409207        4.6604439197       19.0965828155
  N         4.9418851937        2.7842547745       18.7443771535
 Ga         3.2489122683        5.5953749820        0.3236493882
  N         3.2478342065        7.4653710625        0.6072825349
 Ga         3.2757481625        7.4806393122        2.6378918300
  N         3.2487623646        5.5953362935        3.2291961718
 Ga         3.2501534509        5.5963539980        5.2407825510
  N         3.2504965848        7.4662098008        5.8496468406
 Ga         3.2531187318        7.4665756421        7.8500069446
  N         3.2515349433        5.5960497134        8.4548995075
 Ga         3.2548722753        5.5979411746       10.4540453068
  N         3.2571031911        7.4721876742       11.0492133056
 Ga         3.2584854846        7.4745277864       13.0464206266
  N         3.2469354036        5.6004228491       13.6237112071
 Ga         3.2550177374        5.6077177383       15.6292198087
  N         3.2778188512        7.4855487800       16.1593288137
 Ga         3.3233619900        7.4906329339       18.1726380137
  N         3.3723196758        5.5654451530       18.4506877868
  O         1.5999057300        5.1085437070       21.2308134524
  H         0.9925377769        5.4051046648       20.4721917134
  C         0.8247329584        3.9581418581       21.8993082911
  H         0.1106737451        3.5348043528       21.1797631827
  H         1.5567511826        3.1979398280       22.1927206489
  H         0.3093059079        4.3688198855       22.7763408999
  O         4.2330639222        4.7145383391       21.0728564867
  H         3.2252989449        4.8718503729       21.0721972410
  C         4.5541685515        3.5980856950       21.9419992034
  H         4.1188126088        2.6640713107       21.5602713004
  H         5.6452754772        3.5011072141       21.9675625674
  H         4.1789358504        3.8114233294       22.9510870506
     156
 i =        3, E =     -6136.6538373578
 Ga        -0.0031744788       -0.0158675950       -0.5440687924
  N        -0.0001881836        1.8588280591        0.6074147312
 Ga        -0.0001952322        1.8274484095        2.6378612739
  N        -0.0032462083       -0.0156496765        3.2704746742
 Ga        -0.0020101857       -0.0149386506        5.2606836835
  N         0.0009968975        1.8598620488        5.8483640543
 Ga         0.0026197034        1.8585553293        7.8481422697
  N         0.0012606297       -0.0146567907        8.4497193731
 Ga         0.0047217951       -0.0145562279       10.4485032900
  N         0.0044790456        1.8599106508       11.0479468911
 Ga         0.0116724566        1.8608045973       13.0404240866
  N         0.0176352658       -0.0101816733       13.6415078490
 Ga         0.0346536722       -0.0292413993       15.6351560766
  N         0.0290176025        1.8554016188       16.2168225243
 Ga         0.0480807142        1.8531745771       18.2785812553
  N         0.0400420468       -0.0181263816       18.6852148276
 Ga        -1.6223651553        2.7898067453        0.3242826524
  N        -1.6245015119        4.6598185920        0.6064723394
 Ga        -1.5958250594        4.6755709706        2.6369279329
  N        -1.6228013365        2.7897998629        3.2283696515
 Ga        -1.6215487344        2.7907929236        5.2400416855
  N        -1.6211184192        4.6610670423        5.8466883494
 Ga        -1.6190505677        4.6617981667        7.8455243999
  N        -1.6200858539        2.7919930834        8.4516708003
 Ga        -1.6186339625        2.7953572842       10.4475512243
  N        -1.6178652019        4.6661735552       11.0566472076
 Ga        -1.6195252644        4.6699171966       13.0546812364
  N        -1.6048254100        2.7991182096       13.6667632648
 Ga        -1.6018979573        2.8136783784       15.6718624424
  N        -1.5899773061        4.6775582603       16.3127331152
 Ga        -1.5146315594        4.6850203897       18.3904786804
  N        -1.5510163102        2.7874391415       18.7306654606
 Ga        -3.2433538191        5.5960592010        0.3242059353
  N        -3.2368671912        7.4659309029        0.6076349675
 Ga        -3.2645332550        7.4809353209        2.6379821463
  N        -3.2426197520        5.5952462601        3.2285969211
 Ga        -3.2417122384        5.5960933612        5.2401306056
  N        -3.2355638170        7.4663391025        5.8469926146
 Ga        -3.2355747418        7.4670564435        7.8460774458
  N        -3.2396747392        5.5964595187        8.4503825839
 Ga        -3.2390482384        5.5971244089       10.4464268768
  N        -3.2313653125        7.4661632533       11.0553056616
 Ga        -3.2227282379        7.4620976576       13.0542043069
  N        -3.2372311704        5.5965077954       13.6912947416
 Ga        -3.2240337445        5.5892000627       15.7291330670
  N        -3.2026551094        7.4612699371       16.2778869911
 Ga        -3.1956406320        7.4431200548       18.3343046265
  N        -3.1535480228        5.5863645041       18.8658970681
 Ga         3.2423719053       -0.0159213564        0.3245710784
  N         3.2416782924        1.8548607399        0.6057557932
 Ga         3.2696355110        1.8703348519        2.6375041070
  N         3.2427145695       -0.0154183667        3.2282974564
 Ga         3.2442011514       -0.0145873289        5.2400598837
  N         3.2448051537        1.8555873478        5.8475146442
 Ga         3.2472426870        1.8564626432        7.8469374447
  N         3.2447865870       -0.0143823881        8.4499897635
 Ga         3.2472732708       -0.0137710466       10.4456014009
  N         3.2523177130        1.8571533907       11.0515057623
 Ga         3.2597432067        1.8535657943       13.0485845208
  N         3.2548434679       -0.0158923561       13.6605512438
 Ga         3.2622358990       -0.0187271015       15.6670636478
  N         3.2848985449        1.8491329002       16.2406910376
 Ga         3.3236815912        1.8620361454       18.2682548618
  N         3.2971506385       -0.0228911614       18.7335524223
 Ga         1.6216436618        2.7905155297        0.3242450059
  N         1.6292309374        4.6604356374        0.6068844211
 Ga         1.6015855404        4.6756783011        2.6373441430
  N         1.6229042714        2.7898910400        3.2290595889
 Ga         1.6244194474        2.7910825805        5.2409939003
  N         1.6298189181        4.6612578723        5.8484912659
 Ga         1.6303136508        4.6617667728        7.8486150061
  N         1.6263865622        2.7904027692        8.4502288944
 Ga         1.6295750887        2.7918569184       10.4459006556
  N         1.6273592305        4.6625963046       11.0462564150
 Ga         1.6255939162        4.6658763985       13.0415217779
  N         1.6347177639        2.7893438709       13.6469789348
 Ga         1.6619343074        2.7880522624       15.6403836635
  N         1.6243207203        4.6640581882       16.1735868812
 Ga         1.6797955682        4.6449464324       18.1706606892
  N         1.6844170999        2.7848244298       18.6196566935
 Ga         0.0032934700        5.5956965438       -0.5444577783
  N         0.0060598883        7.4705054176        0.6065250015
 Ga         0.0062037797        7.4385717631        2.6370417330
  N         0.0031493400        5.5951899226        3.2691300072
 Ga         0.0048398319        5.5962880307        5.2597457733
  N         0.0076115038        7.4707574421        5.8480972931
 Ga         0.0089388665        7.4694726270        7.8479217956
  N         0.0049674241        5.5957386942        8.4476610192
 Ga         0.0058787648        5.5970959390       10.4451659323
  N         0.0115476823        7.4698498023       11.0442073165
 Ga         0.0137928781        7.4731245022       13.0366879923
  N         0.0032206995        5.6042062342       13.6439582670
 Ga         0.0054210757        5.5985696853       15.6416378338
  N         0.0397317022        7.4731568019       16.2589182679
 Ga         0.0566624847        7.4384261555       18.3474806779
  N         0.1424559344        5.5861825878       18.8950472252
 Ga         6.4877198316       -0.0155094268        0.3238334106
  N         6.4933445345        1.8552824185        0.6054349053
 Ga         6.4663651586        1.8701720511        2.6373011084
  N         6.4883629768       -0.0153124384        3.2289703109
 Ga         6.4899129308       -0.0146124209        5.2410091007
  N         6.4947659549        1.8559705938        5.8479200411
 Ga         6.4946537844        1.8571578324        7.8474665362
  N         6.4910611086       -0.0130898991        8.4515612136
 Ga         6.4947472832       -0.0098393608       10.4485309652
  N         6.4969132262        1.8627814285       11.0549194373
 Ga         6.5020632042        1.8683498861       13.0527265165
  N         6.4918699123       -0.0047353208       13.6324897412
 Ga         6.5101589595        0.0019638931       15.6315497137
  N         6.5169959415        1.8701887110       16.2373724651
 Ga         6.5705465435        1.8702222099       18.2807642142
  N         6.5561281249       -0.0285066398       18.6667243832
 Ga         4.8677309081        2.7914583169       -0.5364598355
  N         4.8711027830        4.6642039813        0.6062468011
 Ga         4.8709652427        4.6333873777        2.6377369194
  N         4.8684431856        2.7898989953        3.2691166521
 Ga         4.8697826215        2.7912989204        5.2597145040
  N         4.8724949879        4.6653327796        5.8482564028
 Ga         4.8729819952        4.6643327926        7.8481187123
  N         4.8711421669        2.7915392521        8.4504867701
 Ga         4.8740951572        2.7958945131       10.4497412437
  N         4.8788966105        4.6658526253       11.0582269489
 Ga         4.8797297750        4.6691640619       13.0618758668
  N         4.8754033442        2.7960247098       13.6594390042
 Ga         4.8824497799        2.7969305850       15.6768015275
  N         4.8523760410        4.6747059985       16.1521735132
 Ga         4.9415469282        4.6573212961       19.0968287730
  N         4.9436930326        2.7808583934       18.7516218906
 Ga         3.2487248521        5.5955081327        0.3238089286
  N         3.2477327744        7.4652696147        0.6073027884
 Ga         3.2760499921        7.4807898544        2.6376726328
  N         3.2488722469        5.5954722707        3.2291687577
 Ga         3.2502248334        5.5964345205        5.2409607510
  N         3.2506057766        7.4662910440        5.8494801802
 Ga         3.2532384104        7.4668173508        7.8499947308
  N         3.2515840975        5.5962120961        8.4547308423
 Ga         3.2547865465        5.5980751781       10.4542218151
  N         3.2578551587        7.4728740384       11.0476980871
 Ga         3.2588367927        7.4763288037       13.0446192117
  N         3.2453445270        5.6022244659       13.6190664899
 Ga         3.2538366338        5.6091949097       15.6243244767
  N         3.2755868481        7.4855752192       16.1591275813
 Ga         3.3207659565        7.4891217135       18.1724417994
  N         3.3802125825        5.5619026028       18.4385879917
  O         1.6035613319        5.1137236220       21.2334652639
  H         0.9975761428        5.4077556068       20.4725590209
  C         0.8239295539        3.9556691694       21.9007455585