 Entering Gaussian System, Link 0=g16
 Input=/Users/rustam/Documents/Projects/Collaborations/Li-Colab/Carbene/443-adatoms-both-2x2/00-SmallMolecules/01-GasMethanol/02-Standard/final.gjf
 Output=/Users/rustam/Documents/Projects/Collaborations/Li-Colab/Carbene/443-adatoms-both-2x2/00-SmallMolecules/01-GasMethanol/02-Standard/final.log
 Initial command:
 /Applications/G16/g16/l1.exe "/Users/rustam/G16-scratch/Gau-71733.inp" -scrdir="/Users/rustam/G16-scratch/"
 Entering Link 1 = /Applications/G16/g16/l1.exe PID=     71734.
  
 Copyright (c) 1988,1990,1992,1993,1995,1998,2003,2009,2016,
            Gaussian, Inc.  All Rights Reserved.
  
 This is part of the Gaussian(R) 16 program.  It is based on
 the Gaussian(R) 09 system (copyright 2009, Gaussian, Inc.),
 the Gaussian(R) 03 system (copyright 2003, Gaussian, Inc.),
 the Gaussian(R) 98 system (copyright 1998, Gaussian, Inc.),
 the Gaussian(R) 94 system (copyright 1995, Gaussian, Inc.),
 the Gaussian 92(TM) system (copyright 1992, Gaussian, Inc.),
 the Gaussian 90(TM) system (copyright 1990, Gaussian, Inc.),
 the Gaussian 88(TM) system (copyright 1988, Gaussian, Inc.),
 the Gaussian 86(TM) system (copyright 1986, Carnegie Mellon
 University), and the Gaussian 82(TM) system (copyright 1983,
 Carnegie Mellon University). Gaussian is a federally registered
 trademark of Gaussian, Inc.
  
 This software contains proprietary and confidential information,
 including trade secrets, belonging to Gaussian, Inc.
  
 This software is provided under written license and may be
 used, copied, transmitted, or stored only in accord with that
 written license.
  
 The following legend is applicable only to US Government
 contracts under FAR:
  
                    RESTRICTED RIGHTS LEGEND
  
 Use, reproduction and disclosure by the US Government is
 subject to restrictions as set forth in subparagraphs (a)
 and (c) of the Commercial Computer Software - Restricted
 Rights clause in FAR 52.227-19.
  
 Gaussian, Inc.
 340 Quinnipiac St., Bldg. 40, Wallingford CT 06492
  
  
 ---------------------------------------------------------------
 Warning -- This program may not be used in any manner that
 competes with the business of Gaussian, Inc. or will provide
 assistance to any competitor of Gaussian, Inc.  The licensee
 of this program is prohibited from giving any competitor of
 Gaussian, Inc. access to this program.  By using this program,
 the user acknowledges that Gaussian, Inc. is engaged in the
 business of creating and licensing software in the field of
 computational chemistry and represents and warrants to the
 licensee that it is not a competitor of Gaussian, Inc. and that
 it will not use this program in any manner prohibited above.
 ---------------------------------------------------------------
  

 Cite this work as:
 Gaussian 16, Revision A.03,
 M. J. Frisch, G. W. Trucks, H. B. Schlegel, G. E. Scuseria, 
 M. A. Robb, J. R. Cheeseman, G. Scalmani, V. Barone, 
 G. A. Petersson, H. Nakatsuji, X. Li, M. Caricato, A. V. Marenich, 
 J. Bloino, B. G. Janesko, R. Gomperts, B. Mennucci, H. P. Hratchian, 
 J. V. Ortiz, A. F. Izmaylov, J. L. Sonnenberg, D. Williams-Young, 
 F. Ding, F. Lipparini, F. Egidi, J. Goings, B. Peng, A. Petrone, 
 T. Henderson, D. Ranasinghe, V. G. Zakrzewski, J. Gao, N. Rega, 
 G. Zheng, W. Liang, M. Hada, M. Ehara, K. Toyota, R. Fukuda, 
 J. Hasegawa, M. Ishida, T. Nakajima, Y. Honda, O. Kitao, H. Nakai, 
 T. Vreven, K. Throssell, J. A. Montgomery, Jr., J. E. Peralta, 
 F. Ogliaro, M. J. Bearpark, J. J. Heyd, E. N. Brothers, K. N. Kudin, 
 V. N. Staroverov, T. A. Keith, R. Kobayashi, J. Normand, 
 K. Raghavachari, A. P. Rendell, J. C. Burant, S. S. Iyengar, 
 J. Tomasi, M. Cossi, J. M. Millam, M. Klene, C. Adamo, R. Cammi, 
 J. W. Ochterski, R. L. Martin, K. Morokuma, O. Farkas, 
 J. B. Foresman, and D. J. Fox, Gaussian, Inc., Wallingford CT, 2016.
 
 ******************************************
 Gaussian 16:  EM64M-G16RevA.03 25-Dec-2016
                22-Jul-2019 
 ******************************************
 -----------------------
 #p freq rpbepbe/cc-pvdz
 -----------------------
 1/10=4,30=1,38=1/1,3;
 2/12=2,17=6,18=5,40=1/2;
 3/5=16,11=2,25=1,30=1,71=2,74=1009,116=1,140=1/1,2,3;
 4//1;
 5/5=2,38=5,98=1/2;
 8/6=4,10=90,11=11/1;
 11/6=1,8=1,9=11,15=111,16=1/1,2,10;
 10/6=1/2;
 6/7=2,8=2,9=2,10=2,28=1/1;
 7/8=1,10=1,25=1/1,2,3,16;
 1/10=4,30=1/3;
 99//99;
 Leave Link    1 at Mon Jul 22 11:08:35 2019, MaxMem=           0 cpu:               0.0 elap:               0.1
 (Enter /Applications/G16/g16/l101.exe)
 --------------------------
 i = 12, E = -24.0810440354
 --------------------------
 Symbolic Z-matrix:
 Charge =  0 Multiplicity = 1
 O                    -0.19088   3.96336  -0.80913 
 H                    -0.32602   4.70442  -1.42023 
 C                     0.00985   2.77402  -1.5894 
 H                     0.9029    2.83869  -2.23033 
 H                     0.15805   1.95453  -0.87467 
 H                    -0.86233   2.53151  -2.21633 
 
 ITRead=  0  0  0  0  0  0
 MicOpt= -1 -1 -1 -1 -1 -1
 NAtoms=      6 NQM=        6 NQMF=       0 NMMI=      0 NMMIF=      0
                NMic=       0 NMicF=      0.
                    Isotopes and Nuclear Properties:
 (Nuclear quadrupole moments (NQMom) in fm**2, nuclear magnetic moments (NMagM)
  in nuclear magnetons)

  Atom         1           2           3           4           5           6
 IAtWgt=          16           1          12           1           1           1
 AtmWgt=  15.9949146   1.0078250  12.0000000   1.0078250   1.0078250   1.0078250
 NucSpn=           0           1           0           1           1           1
 AtZEff=  -0.0000000  -0.0000000  -0.0000000  -0.0000000  -0.0000000  -0.0000000
 NQMom=    0.0000000   0.0000000   0.0000000   0.0000000   0.0000000   0.0000000
 NMagM=    0.0000000   2.7928460   0.0000000   2.7928460   2.7928460   2.7928460
 AtZNuc=   8.0000000   1.0000000   6.0000000   1.0000000   1.0000000   1.0000000
 Leave Link  101 at Mon Jul 22 11:08:35 2019, MaxMem=   104857600 cpu:               0.1 elap:               0.2
 (Enter /Applications/G16/g16/l103.exe)

 GradGradGradGradGradGradGradGradGradGradGradGradGradGradGradGradGradGrad
 Berny optimization.
 Initialization pass.
 Trust Radius=3.00D-01 FncErr=1.00D-07 GrdErr=1.00D-07 EigMax=2.50D+02 EigMin=1.00D-04
 Number of steps in this run=      2 maximum allowed number of steps=      2.
 GradGradGradGradGradGradGradGradGradGradGradGradGradGradGradGradGradGrad

 Leave Link  103 at Mon Jul 22 11:08:36 2019, MaxMem=   104857600 cpu:               0.0 elap:               0.1
 (Enter /Applications/G16/g16/l202.exe)
                          Input orientation:                          
 ---------------------------------------------------------------------
 Center     Atomic      Atomic             Coordinates (Angstroms)
 Number     Number       Type             X           Y           Z
 ---------------------------------------------------------------------
      1          8           0       -0.190884    3.963357   -0.809126
      2          1           0       -0.326021    4.704417   -1.420230
      3          6           0        0.009853    2.774022   -1.589403
      4          1           0        0.902903    2.838692   -2.230326
      5          1           0        0.158046    1.954527   -0.874670
      6          1           0       -0.862328    2.531511   -2.216335
 ---------------------------------------------------------------------
                    Distance matrix (angstroms):
                    1          2          3          4          5
     1  O    0.000000
     2  H    0.969989   0.000000
     3  C    1.436539   1.966687   0.000000
     4  H    2.116849   2.376434   1.101136   0.000000
     5  H    2.039963   2.844970   1.097441   1.781674   0.000000
     6  H    2.116898   2.375485   1.101161   1.791814   1.781612
                    6
     6  H    0.000000
 Stoichiometry    CH4O
 Framework group  C1[X(CH4O)]
 Deg. of freedom    12
 Full point group                 C1      NOp   1
 Largest Abelian subgroup         C1      NOp   1
 Largest concise Abelian subgroup C1      NOp   1
                         Standard orientation:                         
 ---------------------------------------------------------------------
 Center     Atomic      Atomic             Coordinates (Angstroms)
 Number     Number       Type             X           Y           Z
 ---------------------------------------------------------------------
      1          8           0        0.756975    0.122754    0.000009
      2          1           0        1.148102   -0.764883   -0.000028
      3          6           0       -0.672377   -0.020765    0.000016
      4          1           0       -1.041450   -0.542711    0.896598
      5          1           0       -1.086933    0.995364   -0.001522
      6          1           0       -1.041262   -0.545210   -0.895214
 ---------------------------------------------------------------------
 Rotational constants (GHZ):         126.6295218          24.2701667          23.4206623
 Leave Link  202 at Mon Jul 22 11:08:36 2019, MaxMem=   104857600 cpu:               0.0 elap:               0.0
 (Enter /Applications/G16/g16/l301.exe)
 Standard basis: CC-pVDZ (5D, 7F)
 Ernie: Thresh=  0.10000D-02 Tol=  0.10000D-05 Strict=F.
 Ernie:  4 primitive shells out of 64 were deleted.
 There are    50 symmetry adapted cartesian basis functions of A   symmetry.
 There are    48 symmetry adapted basis functions of A   symmetry.
    48 basis functions,    94 primitive gaussians,    50 cartesian basis functions
     9 alpha electrons        9 beta electrons
       nuclear repulsion energy        39.9162659935 Hartrees.
 IExCor= 1009 DFT=T Ex=PBE Corr=PBE ExCW=0 ScaHFX=  0.000000
 ScaDFX=  1.000000  1.000000  1.000000  1.000000 ScalE2=  1.000000  1.000000
 IRadAn=      5 IRanWt=     -1 IRanGd=            0 ICorTp=0 IEmpDi=  4
 NAtoms=    6 NActive=    6 NUniq=    6 SFac= 1.00D+00 NAtFMM=   60 NAOKFM=F Big=F
 Integral buffers will be    131072 words long.
 Raffenetti 2 integral format.
 Two-electron integral symmetry is turned on.
 Leave Link  301 at Mon Jul 22 11:08:36 2019, MaxMem=   104857600 cpu:               0.0 elap:               0.1
 (Enter /Applications/G16/g16/l302.exe)
 NPDir=0 NMtPBC=     1 NCelOv=     1 NCel=       1 NClECP=     1 NCelD=      1
         NCelK=      1 NCelE2=     1 NClLst=     1 CellRange=     0.0.
 One-electron integrals computed using PRISM.
 One-electron integral symmetry used in STVInt
 NBasis=    48 RedAO= T EigKep=  1.72D-02  NBF=    48
 NBsUse=    48 1.00D-06 EigRej= -1.00D+00 NBFU=    48
 Precomputing XC quadrature grid using
 IXCGrd= 4 IRadAn=           5 IRanWt=          -1 IRanGd=           0 AccXCQ= 0.00D+00.
 Generated NRdTot=       0 NPtTot=           0 NUsed=           0 NTot=          32
 NSgBfM=    50    50    50    50    50 MxSgAt=     6 MxSgA2=     6.
 Leave Link  302 at Mon Jul 22 11:08:36 2019, MaxMem=   104857600 cpu:               0.2 elap:               0.2
 (Enter /Applications/G16/g16/l303.exe)
 DipDrv:  MaxL=1.
 Leave Link  303 at Mon Jul 22 11:08:36 2019, MaxMem=   104857600 cpu:               0.1 elap:               0.1
 (Enter /Applications/G16/g16/l401.exe)
 ExpMin= 1.22D-01 ExpMax= 1.17D+04 ExpMxC= 4.01D+02 IAcc=3 IRadAn=         5 AccDes= 0.00D+00
 Harris functional with IExCor= 1009 and IRadAn=       5 diagonalized for initial guess.
 HarFok:  IExCor= 1009 AccDes= 0.00D+00 IRadAn=         5 IDoV= 1 UseB2=F ITyADJ=14
 ICtDFT=  3500011 ScaDFX=  1.000000  1.000000  1.000000  1.000000
 FoFCou: FMM=F IPFlag=           0 FMFlag=      100000 FMFlg1=           0
         NFxFlg=           0 DoJE=T BraDBF=F KetDBF=T FulRan=T
         wScrn=  0.000000 ICntrl=       500 IOpCl=  0 I1Cent=   200000004 NGrid=           0
         NMat0=    1 NMatS0=      1 NMatT0=    0 NMatD0=    1 NMtDS0=    0 NMtDT0=    0
 Petite list used in FoFCou.
 Harris En= -115.639991139961    
 JPrj=0 DoOrth=F DoCkMO=F.
 Leave Link  401 at Mon Jul 22 11:08:37 2019, MaxMem=   104857600 cpu:               0.8 elap:               0.9
 (Enter /Applications/G16/g16/l502.exe)
 Keep J ints in memory in canonical form, NReq=1564111.
 FoFCou: FMM=F IPFlag=           0 FMFlag=           0 FMFlg1=           0
         NFxFlg=           0 DoJE=F BraDBF=F KetDBF=F FulRan=T
         wScrn=  0.000000 ICntrl=       600 IOpCl=  0 I1Cent=           0 NGrid=           0
         NMat0=    1 NMatS0=   1176 NMatT0=    0 NMatD0=    1 NMtDS0=    0 NMtDT0=    0
 Symmetry not used in FoFCou.
 Two-electron integral symmetry not used.
 Closed shell SCF:
 Using DIIS extrapolation, IDIIS=  1040.
 NGot=   104857600 LenX=   104159494 LenY=   104156553
 Requested convergence on RMS density matrix=1.00D-08 within 128 cycles.
 Requested convergence on MAX density matrix=1.00D-06.
 Requested convergence on             energy=1.00D-06.
 No special actions if energy rises.
 Integral accuracy reduced to 1.0D-05 until final iterations.

 Cycle   1  Pass 0  IDiag  1:
 E= -115.509331215565    
 DIIS: error= 3.14D-02 at cycle   1 NSaved=   1.
 NSaved= 1 IEnMin= 1 EnMin= -115.509331215565     IErMin= 1 ErrMin= 3.14D-02
 ErrMax= 3.14D-02  0.00D+00 EMaxC= 1.00D-01 BMatC= 7.17D-02 BMatP= 7.17D-02
 IDIUse=3 WtCom= 6.86D-01 WtEn= 3.14D-01
 Coeff-Com:  0.100D+01
 Coeff-En:   0.100D+01
 Coeff:      0.100D+01
 Gap=     0.177 Goal=   None    Shift=    0.000
 GapD=    0.177 DampG=1.000 DampE=0.500 DampFc=0.5000 IDamp=-1.
 Damping current iteration by 5.00D-01
 RMSDP=1.38D-02 MaxDP=1.43D-01              OVMax= 1.67D-01

 Cycle   2  Pass 0  IDiag  1:
 E= -115.526419887946     Delta-E=       -0.017088672381 Rises=F Damp=T
 DIIS: error= 1.18D-02 at cycle   2 NSaved=   2.
 NSaved= 2 IEnMin= 2 EnMin= -115.526419887946     IErMin= 2 ErrMin= 1.18D-02
 ErrMax= 1.18D-02  0.00D+00 EMaxC= 1.00D-01 BMatC= 1.00D-02 BMatP= 7.17D-02
 IDIUse=3 WtCom= 8.82D-01 WtEn= 1.18D-01
 Coeff-Com:  0.252D+00 0.748D+00
 Coeff-En:   0.373D+00 0.627D+00
 Coeff:      0.266D+00 0.734D+00
 Gap=     0.245 Goal=   None    Shift=    0.000
 RMSDP=2.33D-03 MaxDP=2.03D-02 DE=-1.71D-02 OVMax= 1.11D-01

 Cycle   3  Pass 0  IDiag  1:
 E= -115.575996722722     Delta-E=       -0.049576834776 Rises=F Damp=F
 DIIS: error= 6.14D-03 at cycle   3 NSaved=   3.
 NSaved= 3 IEnMin= 3 EnMin= -115.575996722722     IErMin= 3 ErrMin= 6.14D-03
 ErrMax= 6.14D-03  0.00D+00 EMaxC= 1.00D-01 BMatC= 1.90D-03 BMatP= 1.00D-02
 IDIUse=3 WtCom= 9.39D-01 WtEn= 6.14D-02
 Coeff-Com:  0.116D+00 0.367D+00 0.517D+00
 Coeff-En:   0.000D+00 0.000D+00 0.100D+01
 Coeff:      0.109D+00 0.344D+00 0.547D+00
 Gap=     0.242 Goal=   None    Shift=    0.000
 RMSDP=8.90D-04 MaxDP=1.40D-02 DE=-4.96D-02 OVMax= 1.72D-02

 Cycle   4  Pass 0  IDiag  1:
 E= -115.577446230602     Delta-E=       -0.001449507879 Rises=F Damp=F
 DIIS: error= 2.74D-03 at cycle   4 NSaved=   4.
 NSaved= 4 IEnMin= 4 EnMin= -115.577446230602     IErMin= 4 ErrMin= 2.74D-03
 ErrMax= 2.74D-03  0.00D+00 EMaxC= 1.00D-01 BMatC= 4.38D-04 BMatP= 1.90D-03
 IDIUse=3 WtCom= 9.73D-01 WtEn= 2.74D-02
 Coeff-Com:  0.386D-01 0.113D+00 0.329D+00 0.520D+00
 Coeff-En:   0.000D+00 0.000D+00 0.175D+00 0.825D+00
 Coeff:      0.375D-01 0.110D+00 0.324D+00 0.529D+00
 Gap=     0.242 Goal=   None    Shift=    0.000
 RMSDP=3.07D-04 MaxDP=4.25D-03 DE=-1.45D-03 OVMax= 5.77D-03

 Cycle   5  Pass 0  IDiag  1:
 E= -115.577817404721     Delta-E=       -0.000371174119 Rises=F Damp=F
 DIIS: error= 2.86D-04 at cycle   5 NSaved=   5.
 NSaved= 5 IEnMin= 5 EnMin= -115.577817404721     IErMin= 5 ErrMin= 2.86D-04
 ErrMax= 2.86D-04  0.00D+00 EMaxC= 1.00D-01 BMatC= 4.37D-06 BMatP= 4.38D-04
 IDIUse=3 WtCom= 9.97D-01 WtEn= 2.86D-03
 Coeff-Com:  0.314D-02 0.354D-02 0.519D-01 0.149D+00 0.793D+00
 Coeff-En:   0.000D+00 0.000D+00 0.000D+00 0.000D+00 0.100D+01
 Coeff:      0.313D-02 0.353D-02 0.518D-01 0.148D+00 0.793D+00
 Gap=     0.242 Goal=   None    Shift=    0.000
 RMSDP=3.17D-05 MaxDP=3.70D-04 DE=-3.71D-04 OVMax= 5.75D-04

 Cycle   6  Pass 0  IDiag  1:
 E= -115.577821289596     Delta-E=       -0.000003884875 Rises=F Damp=F
 DIIS: error= 2.11D-05 at cycle   6 NSaved=   6.
 NSaved= 6 IEnMin= 6 EnMin= -115.577821289596     IErMin= 6 ErrMin= 2.11D-05
 ErrMax= 2.11D-05  0.00D+00 EMaxC= 1.00D-01 BMatC= 2.23D-08 BMatP= 4.37D-06
 IDIUse=1 WtCom= 1.00D+00 WtEn= 0.00D+00
 Coeff-Com:  0.407D-03-0.539D-03 0.677D-02 0.209D-01 0.150D+00 0.822D+00
 Coeff:      0.407D-03-0.539D-03 0.677D-02 0.209D-01 0.150D+00 0.822D+00
 Gap=     0.242 Goal=   None    Shift=    0.000
 RMSDP=3.33D-06 MaxDP=3.83D-05 DE=-3.88D-06 OVMax= 4.48D-05

 Initial convergence to 1.0D-05 achieved.  Increase integral accuracy.
 Cycle   7  Pass 1  IDiag  1:
 E= -115.577822279622     Delta-E=       -0.000000990026 Rises=F Damp=F
 DIIS: error= 2.86D-06 at cycle   1 NSaved=   1.
 NSaved= 1 IEnMin= 1 EnMin= -115.577822279622     IErMin= 1 ErrMin= 2.86D-06
 ErrMax= 2.86D-06  0.00D+00 EMaxC= 1.00D-01 BMatC= 4.12D-10 BMatP= 4.12D-10
 IDIUse=1 WtCom= 1.00D+00 WtEn= 0.00D+00
 Coeff-Com:  0.100D+01
 Coeff:      0.100D+01
 Gap=     0.242 Goal=   None    Shift=    0.000
 RMSDP=3.33D-06 MaxDP=3.83D-05 DE=-9.90D-07 OVMax= 1.32D-05

 Cycle   8  Pass 1  IDiag  1:
 E= -115.577822279769     Delta-E=       -0.000000000147 Rises=F Damp=F
 DIIS: error= 2.05D-06 at cycle   2 NSaved=   2.
 NSaved= 2 IEnMin= 2 EnMin= -115.577822279769     IErMin= 2 ErrMin= 2.05D-06
 ErrMax= 2.05D-06  0.00D+00 EMaxC= 1.00D-01 BMatC= 3.88D-10 BMatP= 4.12D-10
 IDIUse=1 WtCom= 1.00D+00 WtEn= 0.00D+00
 Coeff-Com:  0.492D+00 0.508D+00
 Coeff:      0.492D+00 0.508D+00
 Gap=     0.242 Goal=   None    Shift=    0.000
 RMSDP=3.81D-07 MaxDP=5.62D-06 DE=-1.47D-10 OVMax= 6.50D-06

 Cycle   9  Pass 1  IDiag  1:
 E= -115.577822280056     Delta-E=       -0.000000000287 Rises=F Damp=F
 DIIS: error= 9.83D-07 at cycle   3 NSaved=   3.
 NSaved= 3 IEnMin= 3 EnMin= -115.577822280056     IErMin= 3 ErrMin= 9.83D-07
 ErrMax= 9.83D-07  0.00D+00 EMaxC= 1.00D-01 BMatC= 5.34D-11 BMatP= 3.88D-10
 IDIUse=1 WtCom= 1.00D+00 WtEn= 0.00D+00
 Coeff-Com:  0.192D+00 0.304D+00 0.504D+00
 Coeff:      0.192D+00 0.304D+00 0.504D+00
 Gap=     0.242 Goal=   None    Shift=    0.000
 RMSDP=1.34D-07 MaxDP=1.61D-06 DE=-2.87D-10 OVMax= 2.08D-06

 Cycle  10  Pass 1  IDiag  1:
 E= -115.577822280097     Delta-E=       -0.000000000041 Rises=F Damp=F
 DIIS: error= 1.62D-07 at cycle   4 NSaved=   4.
 NSaved= 4 IEnMin= 4 EnMin= -115.577822280097     IErMin= 4 ErrMin= 1.62D-07
 ErrMax= 1.62D-07  0.00D+00 EMaxC= 1.00D-01 BMatC= 1.95D-12 BMatP= 5.34D-11
 IDIUse=1 WtCom= 1.00D+00 WtEn= 0.00D+00
 Coeff-Com:  0.583D-01 0.105D+00 0.238D+00 0.598D+00
 Coeff:      0.583D-01 0.105D+00 0.238D+00 0.598D+00
 Gap=     0.242 Goal=   None    Shift=    0.000
 RMSDP=2.72D-08 MaxDP=3.98D-07 DE=-4.08D-11 OVMax= 5.84D-07

 Cycle  11  Pass 1  IDiag  1:
 E= -115.577822280098     Delta-E=       -0.000000000002 Rises=F Damp=F
 DIIS: error= 1.03D-07 at cycle   5 NSaved=   5.
 NSaved= 5 IEnMin= 5 EnMin= -115.577822280098     IErMin= 5 ErrMin= 1.03D-07
 ErrMax= 1.03D-07  0.00D+00 EMaxC= 1.00D-01 BMatC= 3.52D-13 BMatP= 1.95D-12
 IDIUse=1 WtCom= 1.00D+00 WtEn= 0.00D+00
 Coeff-Com:  0.406D-02 0.141D-01 0.621D-01 0.341D+00 0.579D+00
 Coeff:      0.406D-02 0.141D-01 0.621D-01 0.341D+00 0.579D+00
 Gap=     0.242 Goal=   None    Shift=    0.000
 RMSDP=1.05D-08 MaxDP=1.76D-07 DE=-1.62D-12 OVMax= 2.07D-07

 Cycle  12  Pass 1  IDiag  1:
 E= -115.577822280098     Delta-E=        0.000000000000 Rises=F Damp=F
 DIIS: error= 6.94D-09 at cycle   6 NSaved=   6.
 NSaved= 6 IEnMin= 5 EnMin= -115.577822280098     IErMin= 6 ErrMin= 6.94D-09
 ErrMax= 6.94D-09  0.00D+00 EMaxC= 1.00D-01 BMatC= 3.73D-15 BMatP= 3.52D-13
 IDIUse=1 WtCom= 1.00D+00 WtEn= 0.00D+00
 Coeff-Com: -0.239D-03 0.237D-02 0.152D-01 0.103D+00 0.208D+00 0.672D+00
 Coeff:     -0.239D-03 0.237D-02 0.152D-01 0.103D+00 0.208D+00 0.672D+00
 Gap=     0.242 Goal=   None    Shift=    0.000
 RMSDP=1.18D-09 MaxDP=1.99D-08 DE= 2.84D-14 OVMax= 1.99D-08

 SCF Done:  E(RPBE-PBE) =  -115.577822280     A.U. after   12 cycles
            NFock= 12  Conv=0.12D-08     -V/T= 2.0060
 KE= 1.148842836152D+02 PE=-3.511679842861D+02 EE= 8.078961239722D+01
 Leave Link  502 at Mon Jul 22 11:08:43 2019, MaxMem=   104857600 cpu:               6.0 elap:               6.3
 (Enter /Applications/G16/g16/l801.exe)
 DoSCS=F DFT=T ScalE2(SS,OS)=  1.000000  1.000000
 Range of M.O.s used for correlation:     1    48
 NBasis=    48 NAE=     9 NBE=     9 NFC=     0 NFV=     0
 NROrb=     48 NOA=     9 NOB=     9 NVA=    39 NVB=    39
 Leave Link  801 at Mon Jul 22 11:08:43 2019, MaxMem=   104857600 cpu:               0.0 elap:               0.1
 (Enter /Applications/G16/g16/l1101.exe)
 Using compressed storage, NAtomX=     6.
 Will process      7 centers per pass.
 Leave Link 1101 at Mon Jul 22 11:08:44 2019, MaxMem=   104857600 cpu:               0.1 elap:               0.2
 (Enter /Applications/G16/g16/l1102.exe)
 Symmetrizing basis deriv contribution to polar:
 IMax=3 JMax=2 DiffMx= 0.00D+00
 Leave Link 1102 at Mon Jul 22 11:08:44 2019, MaxMem=   104857600 cpu:               0.1 elap:               0.1
 (Enter /Applications/G16/g16/l1110.exe)
 Forming Gx(P) for the SCF density, NAtomX=     6.
 Integral derivatives from FoFJK, PRISM(SPDF).
 Do as many integral derivatives as possible in FoFJK.
 G2DrvN: MDV=     104857032.
 G2DrvN: will do     7 centers at a time, making    1 passes.
 Calling FoFCou, ICntrl=  3507 FMM=F I1Cent=   0 AccDes= 0.00D+00.
 FoFJK:  IHMeth= 1 ICntrl=    3507 DoSepK=F KAlg= 0 I1Cent=           0 FoldK=F
 IRaf=         0 NMat=       1 IRICut=       1 DoRegI=T DoRafI=F ISym2E= 0 IDoP0=0 IntGTp=1.
 FoFCou: FMM=F IPFlag=           0 FMFlag=      100000 FMFlg1=           0
         NFxFlg=           0 DoJE=F BraDBF=F KetDBF=F FulRan=T
         wScrn=  0.000000 ICntrl=      3507 IOpCl=  0 I1Cent=           0 NGrid=           0
         NMat0=    1 NMatS0=      1 NMatT0=    0 NMatD0=    1 NMtDS0=    0 NMtDT0=    0
 Symmetry not used in FoFCou.
 End of G2Drv F.D. properties file   721 does not exist.
 End of G2Drv F.D. properties file   722 does not exist.
 End of G2Drv F.D. properties file   788 does not exist.
 Leave Link 1110 at Mon Jul 22 11:08:52 2019, MaxMem=   104857600 cpu:               7.7 elap:               8.1
 (Enter /Applications/G16/g16/l1002.exe)
 Minotr:  Closed shell wavefunction.
          IDoAtm=111111
          Direct CPHF calculation.
          Differentiating once with respect to electric field.
                with respect to dipole field.
          Differentiating once with respect to nuclear coordinates.
          Requested convergence is 1.0D-08 RMS, and 1.0D-07 maximum.
          Secondary convergence is 1.0D-12 RMS, and 1.0D-12 maximum.
          NewPWx=T KeepS1=F KeepF1=F KeepIn=T MapXYZ=F SortEE=F KeepMc=T.
         1782 words used for storage of precomputed grid.
 Keep J ints in memory in canonical form, NReq=1566167.
 FoFCou: FMM=F IPFlag=           0 FMFlag=           0 FMFlg1=           0
         NFxFlg=           0 DoJE=F BraDBF=F KetDBF=F FulRan=T
         wScrn=  0.000000 ICntrl=       600 IOpCl=  0 I1Cent=           0 NGrid=           0
         NMat0=    1 NMatS0=   1176 NMatT0=    0 NMatD0=    1 NMtDS0=    0 NMtDT0=    0
 Symmetry not used in FoFCou.
 Two-electron integral symmetry not used.
          MDV=     104857600 using IRadAn=       1.
          Solving linear equations simultaneously, MaxMat=       0.
          There are    21 degrees of freedom in the 1st order CPHF.  IDoFFX=6 NUNeed=     3.
     18 vectors produced by pass  0 Test12= 1.67D-15 4.76D-09 XBig12= 1.35D+01 1.62D+00.
 AX will form    18 AO Fock derivatives at one time.
     18 vectors produced by pass  1 Test12= 1.67D-15 4.76D-09 XBig12= 1.54D+00 3.94D-01.
     18 vectors produced by pass  2 Test12= 1.67D-15 4.76D-09 XBig12= 6.99D-03 2.60D-02.
     18 vectors produced by pass  3 Test12= 1.67D-15 4.76D-09 XBig12= 2.10D-06 3.76D-04.
     11 vectors produced by pass  4 Test12= 1.67D-15 4.76D-09 XBig12= 2.47D-10 3.54D-06.
      2 vectors produced by pass  5 Test12= 1.67D-15 4.76D-09 XBig12= 1.28D-14 2.51D-08.
 InvSVY:  IOpt=1 It=  1 EMax= 8.88D-16
 Solved reduced A of dimension    85 with    21 vectors.
 FullF1:  Do perturbations      1 to       3.
 Isotropic polarizability for W=    0.000000       16.75 Bohr**3.
 End of Minotr F.D. properties file   721 does not exist.
 End of Minotr F.D. properties file   722 does not exist.
 End of Minotr F.D. properties file   788 does not exist.
 Leave Link 1002 at Mon Jul 22 11:08:59 2019, MaxMem=   104857600 cpu:               6.8 elap:               7.2
 (Enter /Applications/G16/g16/l601.exe)
 Copying SCF densities to generalized density rwf, IOpCl= 0 IROHF=0.

 **********************************************************************

            Population analysis using the SCF density.

 **********************************************************************

 Orbital symmetries:
       Occupied  (A) (A) (A) (A) (A) (A) (A) (A) (A)
       Virtual   (A) (A) (A) (A) (A) (A) (A) (A) (A) (A) (A) (A)
                 (A) (A) (A) (A) (A) (A) (A) (A) (A) (A) (A) (A)
                 (A) (A) (A) (A) (A) (A) (A) (A) (A) (A) (A) (A)
                 (A) (A) (A)
 The electronic state is 1-A.
 Alpha  occ. eigenvalues --  -18.74925  -9.93030  -0.91324  -0.60830  -0.44193
 Alpha  occ. eigenvalues --   -0.37713  -0.36440  -0.27525  -0.20735
 Alpha virt. eigenvalues --    0.03495   0.07239   0.11309   0.11672   0.15622
 Alpha virt. eigenvalues --    0.41168   0.42867   0.44305   0.53188   0.59158
 Alpha virt. eigenvalues --    0.60434   0.60941   0.81360   0.84206   0.91966
 Alpha virt. eigenvalues --    0.96316   1.00999   1.15513   1.29161   1.33266
 Alpha virt. eigenvalues --    1.35037   1.53506   1.54934   1.58298   1.59839
 Alpha virt. eigenvalues --    1.66846   1.78246   1.91357   2.00982   2.01702
 Alpha virt. eigenvalues --    2.09568   2.32851   2.34007   2.35136   2.83375
 Alpha virt. eigenvalues --    2.91102   2.94829   3.09427   3.57272
          Condensed to atoms (all electrons):
               1          2          3          4          5          6
     1  O    7.647538   0.339679   0.368970  -0.032086  -0.025614  -0.032050
     2  H    0.339679   0.574712  -0.045818  -0.006598   0.009216  -0.006646
     3  C    0.368970  -0.045818   4.460907   0.384440   0.398033   0.384444
     4  H   -0.032086  -0.006598   0.384440   0.719506  -0.035423  -0.049002
     5  H   -0.025614   0.009216   0.398033  -0.035423   0.645521  -0.035372
     6  H   -0.032050  -0.006646   0.384444  -0.049002  -0.035372   0.719472
 Mulliken charges:
               1
     1  O   -0.266437
     2  H    0.135455
     3  C    0.049025
     4  H    0.019163
     5  H    0.043639
     6  H    0.019154
 Sum of Mulliken charges =  -0.00000
 Mulliken charges with hydrogens summed into heavy atoms:
               1
     1  O   -0.130981
     3  C    0.130981
 APT charges:
               1
     1  O   -0.519201
     2  H    0.220474
     3  C    0.464330
     4  H   -0.075791
     5  H   -0.014069
     6  H   -0.075743
 Sum of APT charges =   0.00000
 APT charges with hydrogens summed into heavy atoms:
               1
     1  O   -0.298728
     3  C    0.298728
 Electronic spatial extent (au):  <R**2>=             84.9566
 Charge=             -0.0000 electrons
 Dipole moment (field-independent basis, Debye):
    X=             -0.6194    Y=             -1.3701    Z=             -0.0003  Tot=              1.5036
 Quadrupole moment (field-independent basis, Debye-Ang):
   XX=            -12.5185   YY=            -12.0443   ZZ=            -13.5228
   XY=             -2.0723   XZ=              0.0003   YZ=             -0.0002
 Traceless Quadrupole moment (field-independent basis, Debye-Ang):
   XX=              0.1767   YY=              0.6509   ZZ=             -0.8276
   XY=             -2.0723   XZ=              0.0003   YZ=             -0.0002
 Octapole moment (field-independent basis, Debye-Ang**2):
  XXX=              5.1113  YYY=             -0.3104  ZZZ=              0.0011  XYY=              2.0427
  XXY=             -2.0033  XXZ=             -0.0006  XZZ=              0.8357  YZZ=             -0.4063
  YYZ=             -0.0020  XYZ=              0.0004
 Hexadecapole moment (field-independent basis, Debye-Ang**3):
 XXXX=            -60.8838 YYYY=            -19.6435 ZZZZ=            -19.3561 XXXY=             -3.3287
 XXXZ=              0.0007 YYYX=             -2.5726 YYYZ=             -0.0006 ZZZX=             -0.0014
 ZZZY=             -0.0002 XXYY=            -12.3734 XXZZ=            -13.9502 YYZZ=             -6.6803
 XXYZ=             -0.0005 YYXZ=              0.0023 ZZXY=              0.1004
 N-N= 3.991626599354D+01 E-N=-3.511679844727D+02  KE= 1.148842836152D+02
  Exact polarizability:  18.699  -0.928  16.693  -0.001   0.000  14.867
 Approx polarizability:  27.295  -0.695  24.823  -0.001   0.000  20.608
 No NMR shielding tensors so no spin-rotation constants.
 Leave Link  601 at Mon Jul 22 11:08:59 2019, MaxMem=   104857600 cpu:               0.1 elap:               0.2
 (Enter /Applications/G16/g16/l701.exe)
 ... and contract with generalized density number  0.
 Compute integral second derivatives.
 Leave Link  701 at Mon Jul 22 11:09:00 2019, MaxMem=   104857600 cpu:               0.1 elap:               0.2
 (Enter /Applications/G16/g16/l702.exe)
 L702 exits ... SP integral derivatives will be done elsewhere.
 Leave Link  702 at Mon Jul 22 11:09:00 2019, MaxMem=   104857600 cpu:               0.0 elap:               0.0
 (Enter /Applications/G16/g16/l703.exe)
 Integral derivatives from FoFJK, PRISM(SPDF).
 Compute integral second derivatives, UseDBF=F ICtDFT=           0.
 Calling FoFJK, ICntrl=    100527 FMM=F ISym2X=0 I1Cent= 0 IOpClX= 0 NMat=1 NMatS=1 NMatT=0.
 FoFJK:  IHMeth= 1 ICntrl=  100527 DoSepK=F KAlg= 0 I1Cent=           0 FoldK=F
 IRaf=         0 NMat=       1 IRICut=       1 DoRegI=T DoRafI=F ISym2E= 0 IDoP0=0 IntGTp=1.
 FoFCou: FMM=F IPFlag=           0 FMFlag=      100000 FMFlg1=         800
         NFxFlg=           0 DoJE=F BraDBF=F KetDBF=F FulRan=T
         wScrn=  0.000000 ICntrl=    100527 IOpCl=  0 I1Cent=           0 NGrid=           0
         NMat0=    1 NMatS0=      1 NMatT0=    0 NMatD0=    1 NMtDS0=    0 NMtDT0=    0
 Symmetry not used in FoFCou.
 Leave Link  703 at Mon Jul 22 11:09:13 2019, MaxMem=   104857600 cpu:              12.3 elap:              12.8
 (Enter /Applications/G16/g16/l716.exe)
 Dipole        =-2.43683124D-01-5.39051640D-01-1.21441913D-04
 Polarizability= 1.86990579D+01-9.28004565D-01 1.66927154D+01
                -6.05357193D-04 3.24084094D-04 1.48669241D+01
 Full mass-weighted force constant matrix:
 Low frequencies --- -317.8067  -82.0039  -69.9536   -0.0010    0.0009    0.0014
 Low frequencies ---   46.5617  976.2523 1024.5048
 Diagonal vibrational polarizability:
        3.5057461       0.2419681    1693.1341179
 Harmonic frequencies (cm**-1), IR intensities (KM/Mole), Raman scattering
 activities (A**4/AMU), depolarization ratios for plane and unpolarized
 incident light, reduced masses (AMU), force constants (mDyne/A),
 and normal coordinates:
                      1                      2                      3
                      A                      A                      A
 Frequencies --     41.0854               976.1819              1024.3807
 Red. masses --      1.0710                 1.5842                 2.4731
 Frc consts  --      0.0011                 0.8895                 1.5290
 IR Inten    --    106.1878                93.4612                14.3897
  Atom  AN      X      Y      Z        X      Y      Z        X      Y      Z
     1   8    -0.00   0.00  -0.06    -0.15  -0.01   0.00    -0.20  -0.03  -0.00
     2   1     0.00  -0.00   0.88     0.53   0.30  -0.00    -0.52  -0.16   0.00
     3   6     0.00  -0.00   0.01     0.14  -0.06  -0.00     0.26   0.10   0.00
     4   1     0.06  -0.22  -0.11    -0.22   0.23   0.03     0.44  -0.17  -0.07
     5   1     0.00   0.00   0.29     0.60   0.14   0.00    -0.34  -0.14  -0.00
     6   1    -0.06   0.22  -0.11    -0.22   0.23  -0.03     0.44  -0.17   0.07
                      4                      5                      6
                      A                      A                      A
 Frequencies --   1074.8215              1301.2046              1379.9991
 Red. masses --      1.2693                 1.2819                 1.1276
 Frc consts  --      0.8639                 1.2788                 1.2652
 IR Inten    --      0.0418                20.3428                 6.8099
  Atom  AN      X      Y      Z        X      Y      Z        X      Y      Z
     1   8    -0.00  -0.00   0.06    -0.01  -0.08  -0.00    -0.02   0.00  -0.00
     2   1    -0.00  -0.00   0.01     0.77   0.28   0.00    -0.01   0.01  -0.00
     3   6     0.00   0.00  -0.14    -0.04   0.12  -0.00    -0.10  -0.00  -0.00
     4   1     0.63   0.12   0.19     0.12  -0.25  -0.15     0.50  -0.14   0.15
     5   1    -0.00   0.00   0.29    -0.34   0.00  -0.00     0.58   0.26   0.00
     6   1    -0.63  -0.12   0.19     0.13  -0.25   0.15     0.50  -0.14  -0.14
                      7                      8                      9
                      A                      A                      A
 Frequencies --   1397.8496              1414.7428              3026.9265
 Red. masses --      1.0446                 1.0340                 1.0328
 Frc consts  --      1.2025                 1.2194                 5.5753
 IR Inten    --      2.4116                 3.1349                60.2470
  Atom  AN      X      Y      Z        X      Y      Z        X      Y      Z
     1   8     0.00  -0.00  -0.01    -0.01  -0.03  -0.00    -0.00  -0.00  -0.00
     2   1     0.00   0.00  -0.01     0.18   0.06   0.00    -0.00   0.00   0.00
     3   6     0.00  -0.00  -0.06    -0.02  -0.03   0.00    -0.04  -0.02  -0.00
     4   1    -0.32   0.36   0.06     0.25   0.45   0.37     0.20   0.31  -0.54
     5   1    -0.00   0.00   0.72    -0.37  -0.15   0.00     0.13  -0.34   0.00
     6   1     0.32  -0.36   0.06     0.25   0.45  -0.37     0.20   0.31   0.54
                     10                     11                     12
                      A                      A                      A
 Frequencies --   3094.5931              3151.9696              3752.6818
 Red. masses --      1.1059                 1.1012                 1.0668
 Frc consts  --      6.2397                 6.4458                 8.8515
 IR Inten    --     69.9504                26.5283                14.8595
  Atom  AN      X      Y      Z        X      Y      Z        X      Y      Z
     1   8     0.00   0.00   0.00    -0.00   0.00  -0.00     0.03  -0.06  -0.00
     2   1     0.00  -0.00   0.01    -0.00  -0.02   0.00    -0.41   0.91   0.00
     3   6     0.00  -0.00  -0.09     0.02  -0.09   0.00    -0.00  -0.00   0.00
     4   1    -0.22  -0.35   0.57     0.08   0.10  -0.21    -0.00   0.00  -0.00
     5   1    -0.00   0.00  -0.03    -0.34   0.87  -0.00    -0.00   0.02  -0.00
     6   1     0.22   0.35   0.57     0.08   0.10   0.21    -0.00   0.00   0.00

 -------------------
 - Thermochemistry -
 -------------------
 Temperature   298.150 Kelvin.  Pressure   1.00000 Atm.
 Atom     1 has atomic number  8 and mass  15.99491
 Atom     2 has atomic number  1 and mass   1.00783
 Atom     3 has atomic number  6 and mass  12.00000
 Atom     4 has atomic number  1 and mass   1.00783
 Atom     5 has atomic number  1 and mass   1.00783
 Atom     6 has atomic number  1 and mass   1.00783
 Molecular mass:    32.02621 amu.
 Principal axes and moments of inertia in atomic units:
                           1         2         3
     Eigenvalues --    14.25214  74.36048  77.05765
           X            0.99896  -0.04562   0.00000
           Y            0.04562   0.99896  -0.00000
           Z           -0.00000   0.00000   1.00000
 This molecule is an asymmetric top.
 Rotational symmetry number  1.
 Rotational temperatures (Kelvin)      6.07726     1.16478     1.12401
 Rotational constants (GHZ):         126.62952    24.27017    23.42066
 Zero-point vibrational energy     129414.6 (Joules/Mol)
                                   30.93084 (Kcal/Mol)
 Warning -- explicit consideration of   1 degrees of freedom as
           vibrations may cause significant error
 Vibrational temperatures:     59.11  1404.51  1473.86  1546.43  1872.14
          (Kelvin)           1985.51  2011.19  2035.50  4355.07  4452.43
                             4534.98  5399.27
 
 Zero-point correction=                           0.049291 (Hartree/Particle)
 Thermal correction to Energy=                    0.053113
 Thermal correction to Enthalpy=                  0.054057
 Thermal correction to Gibbs Free Energy=         0.025117
 Sum of electronic and zero-point Energies=           -115.528531
 Sum of electronic and thermal Energies=              -115.524709
 Sum of electronic and thermal Enthalpies=            -115.523765
 Sum of electronic and thermal Free Energies=         -115.552705
 
                     E (Thermal)             CV                S
                      KCal/Mol        Cal/Mol-Kelvin    Cal/Mol-Kelvin
 Total                   33.329              9.468             60.910
 Electronic               0.000              0.000              0.000
 Translational            0.889              2.981             36.324
 Rotational               0.889              2.981             19.041
 Vibrational             31.551              3.507              5.545
 Vibration     1          0.594              1.981              5.206
                       Q            Log10(Q)             Ln(Q)
 Total Bot       0.279918D-11        -11.552969        -26.601694
 Total V=0       0.131672D+12         11.119495         25.603583
 Vib (Bot)       0.121466D-21        -21.915546        -50.462409
 Vib (Bot)    1  0.503550D+01          0.702042          1.616512
 Vib (V=0)       0.571371D+01          0.756918          1.742868
 Vib (V=0)    1  0.556026D+01          0.745095          1.715645
 Electronic      0.100000D+01          0.000000          0.000000
 Translational   0.712381D+07          6.852712         15.778953
 Rotational      0.323493D+04          3.509865          8.081762
 
                                                      i = 12, E = -24.0810440354
                                                             IR Spectrum
 
     3                    3 3 3                                                     111 1       1 1                                  
     7                    1 0 0                                                     433 3       0 09                                 
     5                    5 9 2                                                     198 0       7 27                               4 
     3                    2 5 7                                                     580 1       5 46                               1 
 
     X                    X X X                                                     XXX X         XX                               X 
     X                    X X X                                                         X         XX                               X 
     X                    X X X                                                         X         XX                               X 
                          X X X                                                         X          X                               X 
                          X X X                                                                    X                               X 
                            X X                                                                    X                               X 
                            X X                                                                    X                               X 
                            X X                                                                    X                               X 
                            X X                                                                    X                               X 
                            X X                                                                    X                               X 
                            X X                                                                    X                               X 
                            X                                                                      X                               X 
                            X                                                                      X                               X 
                                                                                                   X                               X 
                                                                                                   X                               X 
                                                                                                   X                               X 
                                                                                                   X                               X 
                                                                                                   X                               X 
                                                                                                                                   X 
                                                                                                                                   X 
 
 ***** Axes restored to original set *****
 -------------------------------------------------------------------
 Center     Atomic                   Forces (Hartrees/Bohr)
 Number     Number              X              Y              Z
 -------------------------------------------------------------------
      1        8           0.001874357   -0.010573654    0.004060652
      2        1          -0.000431155    0.002201690   -0.005864366
      3        6          -0.003004485    0.017562806    0.009406822
      4        1           0.007184682   -0.000883801   -0.005937687
      5        1           0.000917134   -0.005040206    0.004151834
      6        1          -0.006540532   -0.003266836   -0.005817256
 -------------------------------------------------------------------
 Cartesian Forces:  Max     0.017562806 RMS     0.006648419
 Z-matrix is all fixed cartesians, so copy forces.
 Force constants in Cartesian coordinates: 
                1             2             3             4             5 
      1  0.526926D-01
      2 -0.856224D-01  0.520469D+00
      3  0.252863D-01 -0.127336D+00  0.367516D+00
      4 -0.786927D-02  0.537644D-01 -0.365576D-01  0.992340D-02
      5  0.532482D-01 -0.292402D+00  0.196860D+00 -0.581357D-01  0.320522D+00
      6 -0.461359D-01  0.251678D+00 -0.231311D+00  0.402301D-01 -0.218353D+00
      7 -0.599076D-01  0.193667D-01  0.486457D-02 -0.398710D-02  0.447583D-02
      8  0.198153D-01 -0.171471D+00 -0.313913D-01  0.397950D-02 -0.275669D-01
      9  0.130801D-01 -0.783438D-01 -0.124457D+00 -0.433575D-02  0.253449D-01
     10  0.282724D-02  0.821319D-02  0.401482D-02  0.473187D-03  0.410282D-03
     11  0.254835D-01 -0.825830D-02 -0.258101D-01  0.633819D-03  0.227246D-02
     12  0.143286D-01 -0.111362D-01 -0.130286D-01 -0.140490D-02  0.765281D-03
     13  0.733831D-04  0.533993D-02 -0.216724D-02  0.425632D-03  0.849702D-03
     14  0.561404D-02 -0.305200D-01  0.130291D-01  0.854245D-03 -0.457442D-02
     15  0.351595D-02 -0.195850D-01  0.141231D-01  0.100710D-02 -0.582494D-02
     16  0.121837D-01 -0.106184D-02  0.455916D-02  0.103415D-02 -0.848334D-03
     17 -0.185387D-01 -0.178185D-01 -0.253518D-01 -0.109631D-02  0.174862D-02
     18 -0.100751D-01 -0.152769D-01 -0.128424D-01  0.106111D-02  0.120771D-02
                6             7             8             9            10 
      6  0.223815D+00
      7  0.504793D-02  0.554630D+00
      8 -0.283407D-01  0.128727D-01  0.478980D+00
      9  0.691943D-02  0.138126D-01 -0.801620D-01  0.541679D+00
     10  0.431964D-03 -0.222279D+00 -0.246866D-01  0.122582D+00  0.234605D+00
     11 -0.821944D-03 -0.254955D-01 -0.454295D-01  0.204098D-01  0.204722D-01
     12  0.402092D-03  0.121640D+00  0.175063D-01 -0.126259D+00 -0.137269D+00
     13  0.562091D-03 -0.467165D-01  0.259815D-01 -0.244615D-01  0.372316D-02
     14 -0.325854D-02  0.258862D-01 -0.184724D+00  0.134583D+00  0.273051D-03
     15 -0.219337D-03 -0.265622D-01  0.146630D+00 -0.175464D+00 -0.387779D-02
     16 -0.136168D-03 -0.221739D+00 -0.379624D-01 -0.120678D+00 -0.193497D-01
     17 -0.903550D-03 -0.371060D-01 -0.497884D-01 -0.218318D-01 -0.468213D-02
     18  0.393553D-03 -0.118802D+00 -0.242427D-01 -0.122418D+00  0.141174D-01
               11            12            13            14            15 
     11  0.505953D-01
     12 -0.896703D-02  0.138794D+00
     13 -0.183558D-01  0.169374D-01  0.452727D-01
     14 -0.583328D-03  0.260281D-02 -0.316098D-01  0.214721D+00
     15  0.110432D-01 -0.999531D-02  0.261055D-01 -0.143654D+00  0.181311D+00
     16 -0.273830D-02 -0.142318D-01 -0.277834D-02 -0.101772D-02 -0.188507D-03
     17  0.140340D-02 -0.771137D-03  0.177945D-01  0.568056D-02  0.113903D-01
     18  0.414609D-02  0.100873D-01 -0.169762D-01 -0.330223D-02 -0.975582D-02
               16            17            18 
     16  0.230649D+00
     17  0.436286D-01  0.587743D-01
     18  0.130675D+00  0.374680D-01  0.134536D+00
 Leave Link  716 at Mon Jul 22 11:09:13 2019, MaxMem=   104857600 cpu:               0.0 elap:               0.1
 (Enter /Applications/G16/g16/l103.exe)

 GradGradGradGradGradGradGradGradGradGradGradGradGradGradGradGradGradGrad
 Berny optimization.
 Search for a local minimum.
 Step number   1 out of a maximum of    2
 All quantities printed in internal units (Hartrees-Bohrs-Radians)
 Second derivative matrix not updated -- analytic derivatives used.
 The second derivative matrix:
                          X1        Y1        Z1        X2        Y2
           X1           0.05269
           Y1          -0.08562   0.52047
           Z1           0.02529  -0.12734   0.36752
           X2          -0.00787   0.05376  -0.03656   0.00992
           Y2           0.05325  -0.29240   0.19686  -0.05814   0.32052
           Z2          -0.04614   0.25168  -0.23131   0.04023  -0.21835
           X3          -0.05991   0.01937   0.00486  -0.00399   0.00448
           Y3           0.01982  -0.17147  -0.03139   0.00398  -0.02757
           Z3           0.01308  -0.07834  -0.12446  -0.00434   0.02534
           X4           0.00283   0.00821   0.00401   0.00047   0.00041
           Y4           0.02548  -0.00826  -0.02581   0.00063   0.00227
           Z4           0.01433  -0.01114  -0.01303  -0.00140   0.00077
           X5           0.00007   0.00534  -0.00217   0.00043   0.00085
           Y5           0.00561  -0.03052   0.01303   0.00085  -0.00457
           Z5           0.00352  -0.01959   0.01412   0.00101  -0.00582
           X6           0.01218  -0.00106   0.00456   0.00103  -0.00085
           Y6          -0.01854  -0.01782  -0.02535  -0.00110   0.00175
           Z6          -0.01008  -0.01528  -0.01284   0.00106   0.00121
                          Z2        X3        Y3        Z3        X4
           Z2           0.22382
           X3           0.00505   0.55463
           Y3          -0.02834   0.01287   0.47898
           Z3           0.00692   0.01381  -0.08016   0.54168
           X4           0.00043  -0.22228  -0.02469   0.12258   0.23461
           Y4          -0.00082  -0.02550  -0.04543   0.02041   0.02047
           Z4           0.00040   0.12164   0.01751  -0.12626  -0.13727
           X5           0.00056  -0.04672   0.02598  -0.02446   0.00372
           Y5          -0.00326   0.02589  -0.18472   0.13458   0.00027
           Z5          -0.00022  -0.02656   0.14663  -0.17546  -0.00388
           X6          -0.00014  -0.22174  -0.03796  -0.12068  -0.01935
           Y6          -0.00090  -0.03711  -0.04979  -0.02183  -0.00468
           Z6           0.00039  -0.11880  -0.02424  -0.12242   0.01412
                          Y4        Z4        X5        Y5        Z5
           Y4           0.05060
           Z4          -0.00897   0.13879
           X5          -0.01836   0.01694   0.04527
           Y5          -0.00058   0.00260  -0.03161   0.21472
           Z5           0.01104  -0.01000   0.02611  -0.14365   0.18131
           X6          -0.00274  -0.01423  -0.00278  -0.00102  -0.00019
           Y6           0.00140  -0.00077   0.01779   0.00568   0.01139
           Z6           0.00415   0.01009  -0.01698  -0.00330  -0.00976
                          X6        Y6        Z6
           X6           0.23065
           Y6           0.04363   0.05877
           Z6           0.13068   0.03747   0.13454
 ITU=  0
     Eigenvalues ---   -0.00013   0.04418   0.07714   0.08416   0.10958
     Eigenvalues ---    0.10961   0.15814   0.32720   0.59690   0.72909
     Eigenvalues ---    0.76142   0.92074
 Eigenvalue     1 is  -1.27D-04 should be greater than     0.000000 Eigenvector:
                          X2        X1        X5        Y6        Y4
   1                    0.81604  -0.28233   0.26948  -0.25478   0.22268
                          Y2        X4        Z6        Z4        X6
   1                    0.14264  -0.13488   0.09995  -0.09851  -0.05029
 Angle between quadratic step and forces=  63.94 degrees.
 Linear search not attempted -- first point.
 B after Tr=    -0.006314   -0.003809   -0.007174
         Rot=    0.999996   -0.001149    0.002040   -0.001234 Ang=  -0.30 deg.
 Variable       Old X    -DE/DX   Delta X   Delta X   Delta X     New X
                                 (Linear)    (Quad)   (Total)
    X1       -0.36072   0.00187   0.00000  -0.02338  -0.04198  -0.40270
    Y1        7.48966  -0.01057   0.00000  -0.01306  -0.01436   7.47530
    Z1       -1.52903   0.00406   0.00000   0.00915   0.01758  -1.51145
    X2       -0.61609  -0.00043   0.00000   0.07585   0.05865  -0.55744
    Y2        8.89006   0.00220   0.00000  -0.01018  -0.00912   8.88094
    Z2       -2.68384  -0.00586   0.00000  -0.02726  -0.01624  -2.70009
    X3        0.01862  -0.00300   0.00000  -0.00842  -0.01557   0.00305
    Y3        5.24214   0.01756   0.00000   0.02718   0.03026   5.27240
    Z3       -3.00354   0.00941   0.00000   0.01350   0.01849  -2.98505
    X4        1.70624   0.00718   0.00000   0.00058  -0.00176   1.70447
    Y4        5.36435  -0.00088   0.00000   0.01519   0.02533   5.38968
    Z4       -4.21470  -0.00594   0.00000  -0.02605  -0.01387  -4.22858
    X5        0.29866   0.00092   0.00000   0.02528   0.01657   0.31524
    Y5        3.69352  -0.00504   0.00000  -0.00382  -0.00305   3.69047
    Z5       -1.65289   0.00415   0.00000   0.00265   0.00528  -1.64761
    X6       -1.62956  -0.00654   0.00000  -0.01497  -0.01591  -1.64547
    Y6        4.78386  -0.00327   0.00000  -0.03083  -0.02905   4.75481
    Z6       -4.18827  -0.00582   0.00000  -0.00829  -0.01123  -4.19949
         Item               Value     Threshold  Converged?
 Maximum Force            0.017563     0.000450     NO 
 RMS     Force            0.006648     0.000300     NO 
 Maximum Displacement     0.058646     0.001800     NO 
 RMS     Displacement     0.023494     0.001200     NO 
 Predicted change in Energy=-6.579081D-04
 GradGradGradGradGradGradGradGradGradGradGradGradGradGradGradGradGradGrad

 Leave Link  103 at Mon Jul 22 11:09:13 2019, MaxMem=   104857600 cpu:               0.0 elap:               0.0
 (Enter /Applications/G16/g16/l9999.exe)

 ----------------------------------------------------------------------

 Electric dipole moment (input orientation):
 (Debye = 10**-18 statcoulomb cm , SI units = C m)
                  (au)            (Debye)         (10**-30 SI)
   Tot        0.591573D+00      0.150363D+01      0.501556D+01
   x         -0.104069D-01     -0.264518D-01     -0.882336D-01
   y          0.279495D-01      0.710405D-01      0.236966D+00
   z         -0.590820D+00     -0.150172D+01     -0.500918D+01

 Dipole polarizability, Alpha (input orientation).
 (esu units = cm**3 , SI units = C**2 m**2 J**-1)
 Alpha(0;0):
               (au)            (10**-24 esu)      (10**-40 SI)
   iso        0.167529D+02      0.248252D+01      0.276218D+01
   aniso      0.368859D+01      0.546592D+00      0.608166D+00
   xx         0.149900D+02      0.222128D+01      0.247151D+01
   yx        -0.705124D+00     -0.104489D+00     -0.116259D+00
   yy         0.189118D+02      0.280244D+01      0.311814D+01
   zx        -0.339347D-01     -0.502861D-02     -0.559508D-02
   zy         0.272143D+00      0.403274D-01      0.448703D-01
   zz         0.163569D+02      0.242385D+01      0.269689D+01

 ----------------------------------------------------------------------

 Dipole orientation:
     8         -0.33064932         -7.40890456          1.88728514
     1         -0.56508390         -8.75307414          3.11129069
     6          0.07363518         -5.09439000          3.24706017
     1          1.78235015         -5.15994016          4.43277359
     1          0.32923116         -3.61142724          1.82003491
     1         -1.55364312         -4.57996378          4.43762546

 Electric dipole moment (dipole orientation):
 (Debye = 10**-18 statcoulomb cm , SI units = C m)
                  (au)            (Debye)         (10**-30 SI)
   Tot        0.591573D+00      0.150363D+01      0.501556D+01
   x          0.000000D+00      0.000000D+00      0.000000D+00
   y          0.000000D+00      0.000000D+00      0.000000D+00
   z          0.591573D+00      0.150363D+01      0.501556D+01

 Dipole polarizability, Alpha (dipole orientation).
 (esu units = cm**3 , SI units = C**2 m**2 J**-1)
 Alpha(0;0):
               (au)            (10**-24 esu)      (10**-40 SI)
   iso        0.167529D+02      0.248252D+01      0.276218D+01
   aniso      0.368859D+01      0.546592D+00      0.608166D+00
   xx         0.149910D+02      0.222144D+01      0.247168D+01
   yx         0.710114D+00      0.105228D+00      0.117082D+00
   yy         0.189312D+02      0.280532D+01      0.312133D+01
   zx         0.243264D-01      0.360480D-02      0.401088D-02
   zy         0.137883D+00      0.204322D-01      0.227339D-01
   zz         0.163365D+02      0.242082D+01      0.269352D+01

 ----------------------------------------------------------------------
 1\1\GINC-RUSTAMS-AIR\Freq\RPBEPBE\CC-pVDZ\C1H4O1\RUSTAM\22-Jul-2019\0\
 \#p freq rpbepbe/cc-pvdz\\i = 12, E = -24.0810440354\\0,1\O,-0.1908838
 9,3.96335717,-0.80912607\H,-0.32602093,4.70441714,-1.42022951\C,0.0098
 533,2.77402211,-1.58940305\H,0.90290261,2.83869171,-2.23032571\H,0.158
 04616,1.95452683,-0.87466987\H,-0.86232846,2.53151139,-2.21633459\\Ver
 sion=EM64M-G16RevA.03\State=1-A\HF=-115.5778223\RMSD=1.180e-09\RMSF=6.
 648e-03\ZeroPoint=0.0492914\Thermal=0.0531128\Dipole=-0.0104069,0.0279
 495,-0.5908203\DipoleDeriv=-0.4978449,0.0320437,0.0555174,0.0315708,-0
 .68881,-0.3120159,0.0446999,-0.2489783,-0.3709495,0.330059,0.0259175,-
 0.0112842,0.0257621,0.1899535,0.0549915,-0.0148111,0.0747732,0.1414081
 ,0.3655635,-0.046711,-0.0483652,-0.0465216,0.6371647,0.278498,-0.04293
 31,0.2470503,0.3902627,-0.1364972,0.0156456,0.1319429,-0.0121386,-0.02
 49049,-0.0170526,0.127413,-0.0621875,-0.0659701,0.0646883,0.0256685,-0
 .0104849,0.0254293,-0.0742647,0.0558948,-0.0164819,0.0901983,-0.032630
 1,-0.1259686,-0.0525644,-0.117326,-0.0241019,-0.0391386,-0.0603158,-0.
 0978868,-0.100856,-0.0621211\Polar=14.9899685,-0.7051238,18.9118094,-0
 .0339347,0.272143,16.3569195\Quadrupole=-0.55081,1.3920618,-0.8412519,
 -0.3599527,0.177263,-1.0263283\PG=C01 [X(C1H4O1)]\NImag=0\\0.05269261,
 -0.08562240,0.52046917,0.02528629,-0.12733570,0.36751608,-0.00786927,0
 .05376441,-0.03655761,0.00992340,0.05324819,-0.29240152,0.19685991,-0.
 05813567,0.32052176,-0.04613587,0.25167760,-0.23131090,0.04023006,-0.2
 1835288,0.22381516,-0.05990763,0.01936670,0.00486457,-0.00398710,0.004
 47583,0.00504793,0.55462971,0.01981534,-0.17147094,-0.03139133,0.00397
 950,-0.02756690,-0.02834068,0.01287271,0.47897972,0.01308009,-0.078343
 77,-0.12445730,-0.00433575,0.02534492,0.00691943,0.01381262,-0.0801619
 7,0.54167896,0.00282724,0.00821319,0.00401482,0.00047319,0.00041028,0.
 00043196,-0.22227931,-0.02468662,0.12258240,0.23460541,0.02548351,-0.0
 0825830,-0.02581013,0.00063382,0.00227246,-0.00082194,-0.02549547,-0.0
 4542950,0.02040978,0.02047222,0.05059526,0.01432859,-0.01113623,-0.013
 02861,-0.00140490,0.00076528,0.00040209,0.12163953,0.01750630,-0.12625
 912,-0.13726881,-0.00896703,0.13879365,0.00007338,0.00533993,-0.002167
 24,0.00042563,0.00084970,0.00056209,-0.04671654,0.02598150,-0.02446151
 ,0.00372316,-0.01835578,0.01693742,0.04527270,0.00561404,-0.03051997,0
 .01302907,0.00085425,-0.00457442,-0.00325854,0.02588623,-0.18472396,0.
 13458284,0.00027305,-0.00058333,0.00260281,-0.03160985,0.21472113,0.00
 351595,-0.01958501,0.01412314,0.00100710,-0.00582494,-0.00021934,-0.02
 656222,0.14663035,-0.17546353,-0.00387779,0.01104323,-0.00999531,0.026
 10547,-0.14365395,0.18131086,0.01218366,-0.00106184,0.00455916,0.00103
 415,-0.00084833,-0.00013617,-0.22173913,-0.03796243,-0.12067785,-0.019
 34969,-0.00273830,-0.01423182,-0.00277834,-0.00101772,-0.00018851,0.23
 064934,-0.01853869,-0.01781845,-0.02535183,-0.00109631,0.00174862,-0.0
 0090355,-0.03710600,-0.04978842,-0.02183180,-0.00468213,0.00140340,-0.
 00077114,0.01779450,0.00568056,0.01139032,0.04362862,0.05877429,-0.010
 07506,-0.01527688,-0.01284241,0.00106111,0.00120771,0.00039355,-0.1188
 0242,-0.02424268,-0.12241844,0.01411742,0.00414609,0.01008730,-0.01697
 623,-0.00330223,-0.00975582,0.13067519,0.03746799,0.13453582\\-0.00187
 436,0.01057365,-0.00406065,0.00043116,-0.00220169,0.00586437,0.0030044
 9,-0.01756281,-0.00940682,-0.00718468,0.00088380,0.00593769,-0.0009171
 3,0.00504021,-0.00415183,0.00654053,0.00326684,0.00581726\\\@


 ERROR IS A HARDY PLANT... IT FLOURISHETH IN EVERY SOIL.
            MARTIN FARQUHAR TUPPER
 Job cpu time:       0 days  0 hours  0 minutes 35.0 seconds.
 Elapsed time:       0 days  0 hours  0 minutes 37.0 seconds.
 File lengths (MBytes):  RWF=      6 Int=      0 D2E=      0 Chk=      1 Scr=      1
 Normal termination of Gaussian 16 at Mon Jul 22 11:09:13 2019.
