 DBCSR| Multiplication driver                                               BLAS
 DBCSR| Multrec recursion limit                                              512
 DBCSR| Multiplication stack size                                           1000
 DBCSR| Maximum elements for images                                    UNLIMITED
 DBCSR| Multiplicative factor virtual images                                   1
 DBCSR| Multiplication size stacks                                             3
 DBCSR| Number of 3D layers                                               SINGLE
 DBCSR| Use MPI memory allocation                                              T
 DBCSR| Use RMA algorithm                                                      F
 DBCSR| Use Communication thread                                               T
 DBCSR| Communication thread load                                             87


  **** **** ******  **  PROGRAM STARTED AT               2019-06-24 14:06:27.815
 ***** ** ***  *** **   PROGRAM STARTED ON        blg4518.int.ets1.calculquebec.
 **    ****   ******    PROGRAM STARTED BY                                   rzk
 ***** **    ** ** **   PROGRAM PROCESS ID                                 35897
  **** **  *******  **  PROGRAM STARTED IN /scratch/rzk/rzk/GaN-carbene/443-adat
                                           oms-both-2x2/02-Methanol/01-O-GaTop

 CP2K| version string:                    CP2K version 7.0 (Development Version)
 CP2K| source code revision number:                                    svn:18619
 CP2K| cp2kflags: libint fftw3 libxc parallel mpi3 scalapack mkl                
 CP2K| is freely available from                            https://www.cp2k.org/
 CP2K| Program compiled at                          Sun Apr  7 00:48:11 EDT 2019
 CP2K| Program compiled on                      beluga2.int.ets1.calculquebec.ca
 CP2K| Program compiled for                    Beluga-Linux-x86-64-intel-openmpi
 CP2K| Data directory path    /home/rzk/projects/def-rzk/group/cp2k/cp2k-mcgill/
 CP2K| Input file name                                              start-01.inp
 
 GLOBAL| Force Environment number                                              1
 GLOBAL| Basis set file name                                        BASIS_MOLOPT
 GLOBAL| Potential file name                                      GTH_POTENTIALS
 GLOBAL| MM Potential file name                                     MM_POTENTIAL
 GLOBAL| Coordinate file name                                      __STD_INPUT__
 GLOBAL| Method name                                                        CP2K
 GLOBAL| Project name                                                       TEST
 GLOBAL| Preferred FFT library                                             FFTW3
 GLOBAL| Preferred diagonalization lib.                                       SL
 GLOBAL| Run type                                                        GEO_OPT
 GLOBAL| All-to-all communication in single precision                          F
 GLOBAL| FFTs using library dependent lengths                                  F
 GLOBAL| Global print level                                               MEDIUM
 GLOBAL| MPI I/O enabled                                                       T
 GLOBAL| Total number of message passing processes                            80
 GLOBAL| Number of threads for this process                                    1
 GLOBAL| This output is from process                                           0
 GLOBAL| CPU model name :  Intel(R) Xeon(R) Gold 6148 CPU @ 2.40GHz

 MEMORY| system memory details [Kb]
 MEMORY|                        rank 0           min           max       average
 MEMORY| MemTotal            196614300     196614300     196614300     196614300
 MEMORY| MemFree             148743536     148740436     152955616     150827838
 MEMORY| Buffers                    76             0            76            38
 MEMORY| Cached               25697840      24902272      25697840      25300056
 MEMORY| Slab                  4840092       4217728       4840092       4528910
 MEMORY| SReclaimable           484672        477008        484672        480840
 MEMORY| MemLikelyFree       174926124     174923024     178334896     176608772


 *** Fundamental physical constants (SI units) ***

 *** Literature: B. J. Mohr and B. N. Taylor,
 ***             CODATA recommended values of the fundamental physical
 ***             constants: 2006, Web Version 5.1
 ***             http://physics.nist.gov/constants

 Speed of light in vacuum [m/s]                             2.99792458000000E+08
 Magnetic constant or permeability of vacuum [N/A**2]       1.25663706143592E-06
 Electric constant or permittivity of vacuum [F/m]          8.85418781762039E-12
 Planck constant (h) [J*s]                                  6.62606896000000E-34
 Planck constant (h-bar) [J*s]                              1.05457162825177E-34
 Elementary charge [C]                                      1.60217648700000E-19
 Electron mass [kg]                                         9.10938215000000E-31
 Electron g factor [ ]                                     -2.00231930436220E+00
 Proton mass [kg]                                           1.67262163700000E-27
 Fine-structure constant                                    7.29735253760000E-03
 Rydberg constant [1/m]                                     1.09737315685270E+07
 Avogadro constant [1/mol]                                  6.02214179000000E+23
 Boltzmann constant [J/K]                                   1.38065040000000E-23
 Atomic mass unit [kg]                                      1.66053878200000E-27
 Bohr radius [m]                                            5.29177208590000E-11

 *** Conversion factors ***

 [u] -> [a.u.]                                              1.82288848426455E+03
 [Angstrom] -> [Bohr] = [a.u.]                              1.88972613288564E+00
 [a.u.] = [Bohr] -> [Angstrom]                              5.29177208590000E-01
 [a.u.] -> [s]                                              2.41888432650478E-17
 [a.u.] -> [fs]                                             2.41888432650478E-02
 [a.u.] -> [J]                                              4.35974393937059E-18
 [a.u.] -> [N]                                              8.23872205491840E-08
 [a.u.] -> [K]                                              3.15774647902944E+05
 [a.u.] -> [kJ/mol]                                         2.62549961709828E+03
 [a.u.] -> [kcal/mol]                                       6.27509468713739E+02
 [a.u.] -> [Pa]                                             2.94210107994716E+13
 [a.u.] -> [bar]                                            2.94210107994716E+08
 [a.u.] -> [atm]                                            2.90362800883016E+08
 [a.u.] -> [eV]                                             2.72113838565563E+01
 [a.u.] -> [Hz]                                             6.57968392072181E+15
 [a.u.] -> [1/cm] (wave numbers)                            2.19474631370540E+05
 [a.u./Bohr**2] -> [1/cm]                                   5.14048714338585E+03
 

 CELL_TOP| Volume [angstrom^3]:                                         4586.323
 CELL_TOP| Vector a [angstrom    12.864     0.000     0.000    |a| =      12.864
 CELL_TOP| Vector b [angstrom    -6.432    11.141     0.000    |b| =      12.864
 CELL_TOP| Vector c [angstrom     0.000     0.000    32.000    |c| =      32.000
 CELL_TOP| Angle (b,c), alpha [degree]:                                   90.000
 CELL_TOP| Angle (a,c), beta  [degree]:                                   90.000
 CELL_TOP| Angle (a,b), gamma [degree]:                                  120.000
 CELL_TOP| Numerically orthorhombic:                                          NO
 
 GENERATE|  Preliminary Number of Bonds generated:                             0
 GENERATE|  Achieved consistency in connectivity generation.

 CELL| Volume [angstrom^3]:                                             4586.323
 CELL| Vector a [angstrom]:      12.864     0.000     0.000    |a| =      12.864
 CELL| Vector b [angstrom]:      -6.432    11.141     0.000    |b| =      12.864
 CELL| Vector c [angstrom]:       0.000     0.000    32.000    |c| =      32.000
 CELL| Angle (b,c), alpha [degree]:                                       90.000
 CELL| Angle (a,c), beta  [degree]:                                       90.000
 CELL| Angle (a,b), gamma [degree]:                                      120.000
 CELL| Numerically orthorhombic:                                              NO

 CELL_REF| Volume [angstrom^3]:                                         4670.759
 CELL_REF| Vector a [angstrom    12.982     0.000     0.000    |a| =      12.982
 CELL_REF| Vector b [angstrom    -6.491    11.243     0.000    |b| =      12.982
 CELL_REF| Vector c [angstrom     0.000     0.000    32.000    |c| =      32.000
 CELL_REF| Angle (b,c), alpha [degree]:                                   90.000
 CELL_REF| Angle (a,c), beta  [degree]:                                   90.000
 CELL_REF| Angle (a,b), gamma [degree]:                                  120.000
 CELL_REF| Numerically orthorhombic:                                          NO

 *******************************************************************************
 *******************************************************************************
 **                                                                           **
 **     #####                         ##              ##                      **
 **    ##   ##            ##          ##              ##                      **
 **   ##     ##                       ##            ######                    **
 **   ##     ##  ##   ##  ##   #####  ##  ##   ####   ##    #####    #####    **
 **   ##     ##  ##   ##  ##  ##      ## ##   ##      ##   ##   ##  ##   ##   **
 **   ##  ## ##  ##   ##  ##  ##      ####     ###    ##   ######   ######    **
 **    ##  ###   ##   ##  ##  ##      ## ##      ##   ##   ##       ##        **
 **     #######   #####   ##   #####  ##  ##  ####    ##    #####   ##        **
 **           ##                                                    ##        **
 **                                                                           **
 **                                                ... make the atoms dance   **
 **                                                                           **
 **            Copyright (C) by CP2K developers group (2000 - 2018)           **
 **                                                                           **
 *******************************************************************************

 DFT| Spin unrestricted (spin-polarized) Kohn-Sham calculation               UKS
 DFT| Multiplicity                                                             1
 DFT| Number of spin states                                                    2
 DFT| Charge                                                                   0
 DFT| Self-interaction correction (SIC)                                       NO
 DFT| Cutoffs: density                                              1.000000E-10
 DFT|          gradient                                             1.000000E-10
 DFT|          tau                                                  1.000000E-10
 DFT|          cutoff_smoothing_range                               0.000000E+00
 DFT| XC density smoothing                                                  NONE
 DFT| XC derivatives                                                          PW
 FUNCTIONAL| ROUTINE=NEW
 FUNCTIONAL| PBE:
 FUNCTIONAL| J.P.Perdew, K.Burke, M.Ernzerhof, Phys. Rev. Letter, vol. 77, n 18,
 FUNCTIONAL|  pp. 3865-3868, (1996){spin polarized}                             
 vdW POTENTIAL|                                                   Pair Potential
 vdW POTENTIAL|          DFT-D3 (Version 3.1)
 vdW POTENTIAL|          Potential Form: S. Grimme et al, JCP 132: 154104 (2010)
 vdW POTENTIAL|          Zero Damping
 vdW POTENTIAL|          Cutoff Radius [Bohr]:                             18.90
 vdW POTENTIAL|          s6 Scaling Factor:                               1.0000
 vdW POTENTIAL|          sr6 Scaling Factor:                              1.2170
 vdW POTENTIAL|          s8 Scaling Factor:                               0.7220
 vdW POTENTIAL|          Cutoff for CN calculation:                   0.1000E-05

 QS| Method:                                                                 GPW
 QS| Density plane wave grid type                        NON-SPHERICAL FULLSPACE
 QS| Number of grid levels:                                                    5
 QS| Density cutoff [a.u.]:                                                600.0
 QS| Multi grid cutoff [a.u.]: 1) grid level                               600.0
 QS|                           2) grid level                               200.0
 QS|                           3) grid level                                66.7
 QS|                           4) grid level                                22.2
 QS|                           5) grid level                                 7.4
 QS| Grid level progression factor:                                          3.0
 QS| Relative density cutoff [a.u.]:                                        20.0
 QS| Consistent realspace mapping and integration 
 QS| Interaction thresholds: eps_pgf_orb:                                1.0E-07
 QS|                         eps_filter_matrix:                          0.0E+00
 QS|                         eps_core_charge:                            1.0E-16
 QS|                         eps_rho_gspace:                             1.0E-14
 QS|                         eps_rho_rspace:                             1.0E-14
 QS|                         eps_gvg_rspace:                             1.0E-07
 QS|                         eps_ppl:                                    1.0E-02
 QS|                         eps_ppnl:                                   1.0E-09


 ATOMIC KIND INFORMATION

  1. Atomic kind: N                                     Number of atoms:     100

     Orbital Basis Set                                        DZVP-MOLOPT-SR-GTH

       Number of orbital shell sets:                                           1
       Number of orbital shells:                                               5
       Number of primitive Cartesian functions:                                5
       Number of Cartesian basis functions:                                   14
       Number of spherical basis functions:                                   13
       Norm type:                                                              2

       Normalised Cartesian orbitals:

                        Set   Shell   Orbital            Exponent    Coefficient

                          1       1    2s                7.341988       0.360561
                                                         2.542637       0.139177
                                                         0.888575      -0.289383
                                                         0.333802      -0.182244
                                                         0.112012      -0.019197

                          1       2    3s                7.341988       0.282000
                                                         2.542637       0.177875
                                                         0.888575      -0.278381
                                                         0.333802       0.008577
                                                         0.112012       0.154176

                          1       3    3px               7.341988      -1.188719
                                                         2.542637      -0.973969
                                                         0.888575      -0.501079
                                                         0.333802      -0.144894
                                                         0.112012      -0.013986
                          1       3    3py               7.341988      -1.188719
                                                         2.542637      -0.973969
                                                         0.888575      -0.501079
                                                         0.333802      -0.144894
                                                         0.112012      -0.013986
                          1       3    3pz               7.341988      -1.188719
                                                         2.542637      -0.973969
                                                         0.888575      -0.501079
                                                         0.333802      -0.144894
                                                         0.112012      -0.013986

                          1       4    4px               7.341988      -0.094798
                                                         2.542637       0.050069
                                                         0.888575      -0.114797
                                                         0.333802       0.144793
                                                         0.112012       0.066710
                          1       4    4py               7.341988      -0.094798
                                                         2.542637       0.050069
                                                         0.888575      -0.114797
                                                         0.333802       0.144793
                                                         0.112012       0.066710
                          1       4    4pz               7.341988      -0.094798
                                                         2.542637       0.050069
                                                         0.888575      -0.114797
                                                         0.333802       0.144793
                                                         0.112012       0.066710

                          1       5    4dx2              7.341988       1.354688
                                                         2.542637       0.690378
                                                         0.888575       0.855359
                                                         0.333802       0.091746
                                                         0.112012       0.001253
                          1       5    4dxy              7.341988       2.346389
                                                         2.542637       1.195770
                                                         0.888575       1.481524
                                                         0.333802       0.158910
                                                         0.112012       0.002169
                          1       5    4dxz              7.341988       2.346389
                                                         2.542637       1.195770
                                                         0.888575       1.481524
                                                         0.333802       0.158910
                                                         0.112012       0.002169
                          1       5    4dy2              7.341988       1.354688
                                                         2.542637       0.690378
                                                         0.888575       0.855359
                                                         0.333802       0.091746
                                                         0.112012       0.001253
                          1       5    4dyz              7.341988       2.346389
                                                         2.542637       1.195770
                                                         0.888575       1.481524
                                                         0.333802       0.158910
                                                         0.112012       0.002169
                          1       5    4dz2              7.341988       1.354688
                                                         2.542637       0.690378
                                                         0.888575       0.855359
                                                         0.333802       0.091746
                                                         0.112012       0.001253

     GTH Potential information for                                    GTH-PBE-q5

       Description:                       Goedecker-Teter-Hutter pseudopotential
                                           Goedecker et al., PRB 54, 1703 (1996)
                                          Hartwigsen et al., PRB 58, 3641 (1998)
                                                      Krack, TCA 114, 145 (2005)

       Gaussian exponent of the core charge distribution:               6.208322
       Electronic configuration (s p d ...):                               2   3

       Parameters of the local part of the GTH pseudopotential:

                          rloc        C1          C2          C3          C4
                        0.283791  -12.415226    1.868096

       Parameters of the non-local part of the GTH pseudopotential:

                   l      r(l)      h(i,j,l)

                   0    0.255405   13.630263
                   1    0.245495

  2. Atomic kind: Ga                                    Number of atoms:     100

     Orbital Basis Set                                        DZVP-MOLOPT-SR-GTH

       Number of orbital shell sets:                                           1
       Number of orbital shells:                                               7
       Number of primitive Cartesian functions:                                6
       Number of Cartesian basis functions:                                   30
       Number of spherical basis functions:                                   25
       Norm type:                                                              2

       Normalised Cartesian orbitals:

                        Set   Shell   Orbital            Exponent    Coefficient

                          1       1    2s                7.066654       0.013136
                                                         3.428369      -0.094392
                                                         1.430064       0.265435
                                                         0.571611       0.056465
                                                         0.232197      -0.192187
                                                         0.076562      -0.044987

                          1       2    3s                7.066654      -0.098564
                                                         3.428369       0.010390
                                                         1.430064       0.351249
                                                         0.571611       0.182615
                                                         0.232197      -0.425358
                                                         0.076562       0.190349

                          1       3    3px               7.066654       0.002364
                                                         3.428369       0.019222
                                                         1.430064       0.250132
                                                         0.571611      -0.058486
                                                         0.232197      -0.159451
                                                         0.076562      -0.020696
                          1       3    3py               7.066654       0.002364
                                                         3.428369       0.019222
                                                         1.430064       0.250132
                                                         0.571611      -0.058486
                                                         0.232197      -0.159451
                                                         0.076562      -0.020696
                          1       3    3pz               7.066654       0.002364
                                                         3.428369       0.019222
                                                         1.430064       0.250132
                                                         0.571611      -0.058486
                                                         0.232197      -0.159451
                                                         0.076562      -0.020696

                          1       4    4px               7.066654       0.492448
                                                         3.428369      -0.614736
                                                         1.430064      -0.191654
                                                         0.571611       0.037801
                                                         0.232197       0.302315
                                                         0.076562      -0.071336
                          1       4    4py               7.066654       0.492448
                                                         3.428369      -0.614736
                                                         1.430064      -0.191654
                                                         0.571611       0.037801
                                                         0.232197       0.302315
                                                         0.076562      -0.071336
                          1       4    4pz               7.066654       0.492448
                                                         3.428369      -0.614736
                                                         1.430064      -0.191654
                                                         0.571611       0.037801
                                                         0.232197       0.302315
                                                         0.076562      -0.071336

                          1       5    4dx2              7.066654     -15.264855
                                                         3.428369      -5.345726
                                                         1.430064      -1.022732
                                                         0.571611      -0.123148
                                                         0.232197      -0.006983
                                                         0.076562      -0.000022
                          1       5    4dxy              7.066654     -26.439504
                                                         3.428369      -9.259069
                                                         1.430064      -1.771423
                                                         0.571611      -0.213299
                                                         0.232197      -0.012094
                                                         0.076562      -0.000037
                          1       5    4dxz              7.066654     -26.439504
                                                         3.428369      -9.259069
                                                         1.430064      -1.771423
                                                         0.571611      -0.213299
                                                         0.232197      -0.012094
                                                         0.076562      -0.000037
                          1       5    4dy2              7.066654     -15.264855
                                                         3.428369      -5.345726
                                                         1.430064      -1.022732
                                                         0.571611      -0.123148
                                                         0.232197      -0.006983
                                                         0.076562      -0.000022
                          1       5    4dyz              7.066654     -26.439504
                                                         3.428369      -9.259069
                                                         1.430064      -1.771423
                                                         0.571611      -0.213299
                                                         0.232197      -0.012094
                                                         0.076562      -0.000037
                          1       5    4dz2              7.066654     -15.264855
                                                         3.428369      -5.345726
                                                         1.430064      -1.022732
                                                         0.571611      -0.123148
                                                         0.232197      -0.006983
                                                         0.076562      -0.000022

                          1       6    5dx2              7.066654      -5.739265
                                                         3.428369      -2.129289
                                                         1.430064      -0.700423
                                                         0.571611       0.161606
                                                         0.232197       0.043513
                                                         0.076562       0.011205
                          1       6    5dxy              7.066654      -9.940698
                                                         3.428369      -3.688037
                                                         1.430064      -1.213168
                                                         0.571611       0.279909
                                                         0.232197       0.075368
                                                         0.076562       0.019407
                          1       6    5dxz              7.066654      -9.940698
                                                         3.428369      -3.688037
                                                         1.430064      -1.213168
                                                         0.571611       0.279909
                                                         0.232197       0.075368
                                                         0.076562       0.019407
                          1       6    5dy2              7.066654      -5.739265
                                                         3.428369      -2.129289
                                                         1.430064      -0.700423
                                                         0.571611       0.161606
                                                         0.232197       0.043513
                                                         0.076562       0.011205
                          1       6    5dyz              7.066654      -9.940698
                                                         3.428369      -3.688037
                                                         1.430064      -1.213168
                                                         0.571611       0.279909
                                                         0.232197       0.075368
                                                         0.076562       0.019407
                          1       6    5dz2              7.066654      -5.739265
                                                         3.428369      -2.129289
                                                         1.430064      -0.700423
                                                         0.571611       0.161606
                                                         0.232197       0.043513
                                                         0.076562       0.011205

                          1       7    5fx3              7.066654       0.705879
                                                         3.428369      -0.273976
                                                         1.430064       0.113667
                                                         0.571611       0.132480
                                                         0.232197       0.012437
                                                         0.076562       0.003241
                          1       7    5fx2y             7.066654       1.578393
                                                         3.428369      -0.612629
                                                         1.430064       0.254167
                                                         0.571611       0.296234
                                                         0.232197       0.027811
                                                         0.076562       0.007246
                          1       7    5fx2z             7.066654       1.578393
                                                         3.428369      -0.612629
                                                         1.430064       0.254167
                                                         0.571611       0.296234
                                                         0.232197       0.027811
                                                         0.076562       0.007246
                          1       7    5fxy2             7.066654       1.578393
                                                         3.428369      -0.612629
                                                         1.430064       0.254167
                                                         0.571611       0.296234
                                                         0.232197       0.027811
                                                         0.076562       0.007246
                          1       7    5fxyz             7.066654       2.733856
                                                         3.428369      -1.061105
                                                         1.430064       0.440230
                                                         0.571611       0.513092
                                                         0.232197       0.048170
                                                         0.076562       0.012551
                          1       7    5fxz2             7.066654       1.578393
                                                         3.428369      -0.612629
                                                         1.430064       0.254167
                                                         0.571611       0.296234
                                                         0.232197       0.027811
                                                         0.076562       0.007246
                          1       7    5fy3              7.066654       0.705879
                                                         3.428369      -0.273976
                                                         1.430064       0.113667
                                                         0.571611       0.132480
                                                         0.232197       0.012437
                                                         0.076562       0.003241
                          1       7    5fy2z             7.066654       1.578393
                                                         3.428369      -0.612629
                                                         1.430064       0.254167
                                                         0.571611       0.296234
                                                         0.232197       0.027811
                                                         0.076562       0.007246
                          1       7    5fyz2             7.066654       1.578393
                                                         3.428369      -0.612629
                                                         1.430064       0.254167
                                                         0.571611       0.296234
                                                         0.232197       0.027811
                                                         0.076562       0.007246
                          1       7    5fz3              7.066654       0.705879
                                                         3.428369      -0.273976
                                                         1.430064       0.113667
                                                         0.571611       0.132480
                                                         0.232197       0.012437
                                                         0.076562       0.003241

     GTH Potential information for                                   GTH-PBE-q13

       Description:                       Goedecker-Teter-Hutter pseudopotential
                                           Goedecker et al., PRB 54, 1703 (1996)
                                          Hartwigsen et al., PRB 58, 3641 (1998)
                                                      Krack, TCA 114, 145 (2005)

       Gaussian exponent of the core charge distribution:               2.082466
       Electronic configuration (s p d ...):                           2   1  10

       Parameters of the local part of the GTH pseudopotential:

                          rloc        C1          C2          C3          C4
                        0.490000

       Parameters of the non-local part of the GTH pseudopotential:

                   l      r(l)      h(i,j,l)

                   0    0.416777   10.475690   -4.921768    0.870706
                                   -4.921768    7.770178   -2.248152
                                    0.870706   -2.248152    1.784415
                   1    0.569627    1.777985    0.195860
                                    0.195860   -0.231744
                   2    0.238126  -16.248680

  3. Atomic kind: O                                     Number of atoms:       1

     Orbital Basis Set                                     DZVP-MOLOPT-SR-GTH-q6

       Number of orbital shell sets:                                           1
       Number of orbital shells:                                               5
       Number of primitive Cartesian functions:                                5
       Number of Cartesian basis functions:                                   14
       Number of spherical basis functions:                                   13
       Norm type:                                                              2

       Normalised Cartesian orbitals:

                        Set   Shell   Orbital            Exponent    Coefficient

                          1       1    2s               10.389228       0.396646
                                                         3.849621       0.208811
                                                         1.388401      -0.301641
                                                         0.496955      -0.274061
                                                         0.162492      -0.033677

                          1       2    3s               10.389228       0.303673
                                                         3.849621       0.240943
                                                         1.388401      -0.313066
                                                         0.496955      -0.043055
                                                         0.162492       0.213991

                          1       3    3px              10.389228      -1.530415
                                                         3.849621      -1.371928
                                                         1.388401      -0.761951
                                                         0.496955      -0.253695
                                                         0.162492      -0.035541
                          1       3    3py              10.389228      -1.530415
                                                         3.849621      -1.371928
                                                         1.388401      -0.761951
                                                         0.496955      -0.253695
                                                         0.162492      -0.035541
                          1       3    3pz              10.389228      -1.530415
                                                         3.849621      -1.371928
                                                         1.388401      -0.761951
                                                         0.496955      -0.253695
                                                         0.162492      -0.035541

                          1       4    4px              10.389228      -0.565392
                                                         3.849621      -0.038231
                                                         1.388401      -0.382373
                                                         0.496955       0.179070
                                                         0.162492       0.122714
                          1       4    4py              10.389228      -0.565392
                                                         3.849621      -0.038231
                                                         1.388401      -0.382373
                                                         0.496955       0.179070
                                                         0.162492       0.122714
                          1       4    4pz              10.389228      -0.565392
                                                         3.849621      -0.038231
                                                         1.388401      -0.382373
                                                         0.496955       0.179070
                                                         0.162492       0.122714

                          1       5    4dx2             10.389228       1.867377
                                                         3.849621       0.670994
                                                         1.388401       1.353441
                                                         0.496955       0.273538
                                                         0.162492       0.006620
                          1       5    4dxy             10.389228       3.234392
                                                         3.849621       1.162195
                                                         1.388401       2.344229
                                                         0.496955       0.473781
                                                         0.162492       0.011466
                          1       5    4dxz             10.389228       3.234392
                                                         3.849621       1.162195
                                                         1.388401       2.344229
                                                         0.496955       0.473781
                                                         0.162492       0.011466
                          1       5    4dy2             10.389228       1.867377
                                                         3.849621       0.670994
                                                         1.388401       1.353441
                                                         0.496955       0.273538
                                                         0.162492       0.006620
                          1       5    4dyz             10.389228       3.234392
                                                         3.849621       1.162195
                                                         1.388401       2.344229
                                                         0.496955       0.473781
                                                         0.162492       0.011466
                          1       5    4dz2             10.389228       1.867377
                                                         3.849621       0.670994
                                                         1.388401       1.353441
                                                         0.496955       0.273538
                                                         0.162492       0.006620

     GTH Potential information for                                    GTH-PBE-q6

       Description:                       Goedecker-Teter-Hutter pseudopotential
                                           Goedecker et al., PRB 54, 1703 (1996)
                                          Hartwigsen et al., PRB 58, 3641 (1998)
                                                      Krack, TCA 114, 145 (2005)

       Gaussian exponent of the core charge distribution:               8.360253
       Electronic configuration (s p d ...):                               2   4

       Parameters of the local part of the GTH pseudopotential:

                          rloc        C1          C2          C3          C4
                        0.244554  -16.667215    2.487311

       Parameters of the non-local part of the GTH pseudopotential:

                   l      r(l)      h(i,j,l)

                   0    0.220956   18.337458
                   1    0.211332

  4. Atomic kind: H                                     Number of atoms:       4

     Orbital Basis Set                                     DZVP-MOLOPT-SR-GTH-q1

       Number of orbital shell sets:                                           1
       Number of orbital shells:                                               3
       Number of primitive Cartesian functions:                                5
       Number of Cartesian basis functions:                                    5
       Number of spherical basis functions:                                    5
       Norm type:                                                              2

       Normalised Cartesian orbitals:

                        Set   Shell   Orbital            Exponent    Coefficient

                          1       1    2s               10.068468      -0.133023
                                                         2.680223      -0.177618
                                                         0.791502      -0.258419
                                                         0.239116      -0.107525
                                                         0.082193      -0.014019

                          1       2    3s               10.068468       0.344673
                                                         2.680223       1.819821
                                                         0.791502      -0.999069
                                                         0.239116       0.017430
                                                         0.082193       0.082660

                          1       3    3px              10.068468       0.155326
                                                         2.680223       0.367157
                                                         0.791502       0.311480
                                                         0.239116       0.080105
                                                         0.082193       0.033440
                          1       3    3py              10.068468       0.155326
                                                         2.680223       0.367157
                                                         0.791502       0.311480
                                                         0.239116       0.080105
                                                         0.082193       0.033440
                          1       3    3pz              10.068468       0.155326
                                                         2.680223       0.367157
                                                         0.791502       0.311480
                                                         0.239116       0.080105
                                                         0.082193       0.033440

     GTH Potential information for                                    GTH-PBE-q1

       Description:                       Goedecker-Teter-Hutter pseudopotential
                                           Goedecker et al., PRB 54, 1703 (1996)
                                          Hartwigsen et al., PRB 58, 3641 (1998)
                                                      Krack, TCA 114, 145 (2005)

       Gaussian exponent of the core charge distribution:              12.500000
       Electronic configuration (s p d ...):                                   1

       Parameters of the local part of the GTH pseudopotential:

                          rloc        C1          C2          C3          C4
                        0.200000   -4.178900    0.724463

  5. Atomic kind: C                                     Number of atoms:       1

     Orbital Basis Set                                     DZVP-MOLOPT-SR-GTH-q4

       Number of orbital shell sets:                                           1
       Number of orbital shells:                                               5
       Number of primitive Cartesian functions:                                5
       Number of Cartesian basis functions:                                   14
       Number of spherical basis functions:                                   13
       Norm type:                                                              2

       Normalised Cartesian orbitals:

                        Set   Shell   Orbital            Exponent    Coefficient

                          1       1    2s                5.605331       0.322515
                                                         2.113016       0.213043
                                                         0.769911      -0.209686
                                                         0.348157      -0.219794
                                                         0.128212      -0.022789

                          1       2    3s                5.605331       0.552234
                                                         2.113016       0.082072
                                                         0.769911       0.007843
                                                         0.348157       0.136893
                                                         0.128212       0.074283

                          1       3    3px               5.605331      -0.703879
                                                         2.113016      -0.642521
                                                         0.769911      -0.374851
                                                         0.348157      -0.139743
                                                         0.128212      -0.027849
                          1       3    3py               5.605331      -0.703879
                                                         2.113016      -0.642521
                                                         0.769911      -0.374851
                                                         0.348157      -0.139743
                                                         0.128212      -0.027849
                          1       3    3pz               5.605331      -0.703879
                                                         2.113016      -0.642521
                                                         0.769911      -0.374851
                                                         0.348157      -0.139743
                                                         0.128212      -0.027849

                          1       4    4px               5.605331      -0.480376
                                                         2.113016      -0.552894
                                                         0.769911      -0.316145
                                                         0.348157       0.210505
                                                         0.128212       0.076095
                          1       4    4py               5.605331      -0.480376
                                                         2.113016      -0.552894
                                                         0.769911      -0.316145
                                                         0.348157       0.210505
                                                         0.128212       0.076095
                          1       4    4pz               5.605331      -0.480376
                                                         2.113016      -0.552894
                                                         0.769911      -0.316145
                                                         0.348157       0.210505
                                                         0.128212       0.076095

                          1       5    4dx2              5.605331       0.640026
                                                         2.113016       0.274300
                                                         0.769911       0.446711
                                                         0.348157       0.028674
                                                         0.128212       0.029790
                          1       5    4dxy              5.605331       1.108557
                                                         2.113016       0.475102
                                                         0.769911       0.773726
                                                         0.348157       0.049666
                                                         0.128212       0.051599
                          1       5    4dxz              5.605331       1.108557
                                                         2.113016       0.475102
                                                         0.769911       0.773726
                                                         0.348157       0.049666
                                                         0.128212       0.051599
                          1       5    4dy2              5.605331       0.640026
                                                         2.113016       0.274300
                                                         0.769911       0.446711
                                                         0.348157       0.028674
                                                         0.128212       0.029790
                          1       5    4dyz              5.605331       1.108557
                                                         2.113016       0.475102
                                                         0.769911       0.773726
                                                         0.348157       0.049666
                                                         0.128212       0.051599
                          1       5    4dz2              5.605331       0.640026
                                                         2.113016       0.274300
                                                         0.769911       0.446711
                                                         0.348157       0.028674
                                                         0.128212       0.029790

     GTH Potential information for                                    GTH-PBE-q4

       Description:                       Goedecker-Teter-Hutter pseudopotential
                                           Goedecker et al., PRB 54, 1703 (1996)
                                          Hartwigsen et al., PRB 58, 3641 (1998)
                                                      Krack, TCA 114, 145 (2005)

       Gaussian exponent of the core charge distribution:               4.364419
       Electronic configuration (s p d ...):                               2   2

       Parameters of the local part of the GTH pseudopotential:

                          rloc        C1          C2          C3          C4
                        0.338471   -8.803674    1.339211

       Parameters of the non-local part of the GTH pseudopotential:

                   l      r(l)      h(i,j,l)

                   0    0.302576    9.622487
                   1    0.291507


 MOLECULE KIND INFORMATION


 All atoms are their own molecule, skipping detailed information


 TOTAL NUMBERS AND MAXIMUM NUMBERS

  Total number of            - Atomic kinds:                                   5
                             - Atoms:                                        206
                             - Shell sets:                                   206
                             - Shells:                                      1222
                             - Primitive Cartesian functions:               1130
                             - Cartesian basis functions:                   4448
                             - Spherical basis functions:                   3846

  Maximum angular momentum of- Orbital basis functions:                        3
                             - Local part of the GTH pseudopotential:          2
                             - Non-local part of the GTH pseudopotential:      4


 MODULE QUICKSTEP:  ATOMIC COORDINATES IN angstrom

  Atom  Kind  Element       X           Y           Z          Z(eff)       Mass

       1     1 N    7   -0.027513    2.050959    2.513328      5.00      14.0067
       2     2 Ga  31   -0.020093    0.069438    2.860989     13.00      69.7230
       3     1 N    7   -0.016714    0.060999    5.007994      5.00      14.0067
       4     2 Ga  31   -0.015775    1.889668    5.790932     13.00      69.7230
       5     1 N    7   -0.012973    1.900654    7.786215      5.00      14.0067
       6     2 Ga  31   -0.011617    0.055121    8.434676     13.00      69.7230
       7     1 N    7   -0.011637    0.055437   10.409233      5.00      14.0067
       8     2 Ga  31   -0.009907    1.896872   11.057736     13.00      69.7230
       9     1 N    7   -0.007941    1.877596   13.053148      5.00      14.0067
      10     2 Ga  31   -0.010371    0.062694   13.861437     13.00      69.7230
      11     1 N    7   -0.011885    0.060100   16.065607      5.00      14.0067
      12     2 Ga  31   -0.007025    2.129338   16.503928     13.00      69.7230
      13     2 Ga  31   -0.038033    3.774324    1.521709     13.00      69.7230
      14     1 N    7   -1.516196    4.641903    2.515989      5.00      14.0067
      15     2 Ga  31   -1.728636    2.788978    3.298592     13.00      69.7230
      16     1 N    7   -1.629375    2.844380    5.256983      5.00      14.0067
      17     2 Ga  31   -1.647409    4.717996    5.796148     13.00      69.7230
      18     1 N    7   -1.630869    4.705992    7.791384      5.00      14.0067
      19     2 Ga  31   -1.611279    2.846885    8.425055     13.00      69.7230
      20     1 N    7   -1.607948    2.846789   10.420657      5.00      14.0067
      21     2 Ga  31   -1.631702    4.705448   11.060976     13.00      69.7230
      22     1 N    7   -1.646616    4.715240   13.054908      5.00      14.0067
      23     2 Ga  31   -1.604253    2.847247   13.616970     13.00      69.7230
      24     1 N    7   -1.637639    2.830346   15.573918      5.00      14.0067
      25     2 Ga  31   -1.427382    4.591672   16.504241     13.00      69.7230
      26     1 N    7   -0.016146    3.765108   17.652196      5.00      14.0067
      27     1 N    7   -3.233149    7.612155    2.519481      5.00      14.0067
      28     2 Ga  31   -3.229398    5.634712    2.851200     13.00      69.7230
      29     1 N    7   -3.231940    5.629584    5.011864      5.00      14.0067
      30     2 Ga  31   -3.233457    7.459444    5.791553     13.00      69.7230
      31     1 N    7   -3.230432    7.472243    7.789328      5.00      14.0067
      32     2 Ga  31   -3.228965    5.627668    8.439531     13.00      69.7230
      33     1 N    7   -3.226788    5.625488   10.412553      5.00      14.0067
      34     2 Ga  31   -3.227335    7.464595   11.063215     13.00      69.7230
      35     1 N    7   -3.225334    7.445054   13.057935      5.00      14.0067
      36     2 Ga  31   -3.220271    5.620689   13.861041     13.00      69.7230
      37     1 N    7   -3.222755    5.620362   16.064705      5.00      14.0067
      38     2 Ga  31   -3.222017    7.643984   16.454839     13.00      69.7230
      39     2 Ga  31   -3.226182    9.337050    1.439032     13.00      69.7230
      40     1 N    7   -4.741597   10.217919    2.500799      5.00      14.0067
      41     2 Ga  31   -4.936991    8.368218    3.267407     13.00      69.7230
      42     1 N    7   -4.840988    8.415860    5.237365      5.00      14.0067
      43     2 Ga  31   -4.861877   10.286056    5.785655     13.00      69.7230
      44     1 N    7   -4.846431   10.273853    7.784459      5.00      14.0067
      45     2 Ga  31   -4.828735    8.417094    8.426674     13.00      69.7230
      46     1 N    7   -4.825419    8.417251   10.423836      5.00      14.0067
      47     2 Ga  31   -4.851422   10.277279   11.060672     13.00      69.7230
      48     1 N    7   -4.866434   10.287933   13.056519      5.00      14.0067
      49     2 Ga  31   -4.823172    8.418010   13.609373     13.00      69.7230
      50     1 N    7   -4.847155    8.403836   15.577083      5.00      14.0067
      51     2 Ga  31   -4.690337   10.190137   16.456232     13.00      69.7230
      52     1 N    7   -3.235407    9.331191   17.581952      5.00      14.0067
      53     1 N    7    3.184610    1.925463    2.588072      5.00      14.0067
      54     2 Ga  31    3.192169    0.172937    3.259753     13.00      69.7230
      55     1 N    7    3.199426    0.063065    5.231435      5.00      14.0067
      56     2 Ga  31    3.198665    1.914131    5.863074     13.00      69.7230
      57     1 N    7    3.202794    1.912058    7.837672      5.00      14.0067
      58     2 Ga  31    3.201656    0.045841    8.428200     13.00      69.7230
      59     1 N    7    3.203919    0.042844   10.422839      5.00      14.0067
      60     2 Ga  31    3.203676    1.913246   11.016834     13.00      69.7230
      61     1 N    7    3.208779    1.913607   12.988241      5.00      14.0067
      62     2 Ga  31    3.206810    0.045169   13.605749     13.00      69.7230
      63     1 N    7    3.212340    0.071801   15.571299      5.00      14.0067
      64     2 Ga  31    3.208486    1.913652   15.853927     13.00      69.7230
      65     1 N    7    1.467469    4.644805    2.502193      5.00      14.0067
      66     2 Ga  31    1.678754    2.795753    3.287953     13.00      69.7230
      67     1 N    7    1.594683    2.845599    5.248048      5.00      14.0067
      68     2 Ga  31    1.615957    4.717757    5.792532     13.00      69.7230
      69     1 N    7    1.606226    4.706472    7.787969      5.00      14.0067
      70     2 Ga  31    1.585997    2.847668    8.422815     13.00      69.7230
      71     1 N    7    1.586232    2.847951   10.417785      5.00      14.0067
      72     2 Ga  31    1.612160    4.705357   11.062353     13.00      69.7230
      73     1 N    7    1.631153    4.715318   13.056373      5.00      14.0067
      74     2 Ga  31    1.588072    2.848329   13.617117     13.00      69.7230
      75     1 N    7    1.622958    2.831106   15.573018      5.00      14.0067
      76     2 Ga  31    1.406461    4.588306   16.505659     13.00      69.7230
      77     1 N    7   -0.020994    7.497330    2.616756      5.00      14.0067
      78     2 Ga  31   -0.018565    5.752950    3.292382     13.00      69.7230
      79     1 N    7   -0.016114    5.638184    5.253649      5.00      14.0067
      80     2 Ga  31   -0.016060    7.491463    5.873745     13.00      69.7230
      81     1 N    7   -0.012223    7.487125    7.847831      5.00      14.0067
      82     2 Ga  31   -0.011689    5.617193    8.428602     13.00      69.7230
      83     1 N    7   -0.009656    5.613157   10.422873      5.00      14.0067
      84     2 Ga  31   -0.009056    7.481609   11.020083     13.00      69.7230
      85     1 N    7   -0.006392    7.484908   12.991591      5.00      14.0067
      86     2 Ga  31   -0.007035    5.613384   13.616994     13.00      69.7230
      87     1 N    7   -0.007004    5.651819   15.570680      5.00      14.0067
      88     2 Ga  31   -0.008971    7.482030   15.856763     13.00      69.7230
      89     1 N    7   -1.733471   10.218453    2.514787      5.00      14.0067
      90     2 Ga  31   -1.534834    8.371771    3.284960     13.00      69.7230
      91     1 N    7   -1.623871    8.418240    5.250440      5.00      14.0067
      92     2 Ga  31   -1.602023   10.289478    5.794459     13.00      69.7230
      93     1 N    7   -1.612771   10.275630    7.791788      5.00      14.0067
      94     2 Ga  31   -1.632088    8.418167    8.431004     13.00      69.7230
      95     1 N    7   -1.630144    8.416720   10.425806      5.00      14.0067
      96     2 Ga  31   -1.604986   10.275974   11.060038     13.00      69.7230
      97     1 N    7   -1.585647   10.287006   13.054758      5.00      14.0067
      98     2 Ga  31   -1.625716    8.416847   13.607562     13.00      69.7230
      99     1 N    7   -1.600678    8.408070   15.572379      5.00      14.0067
     100     2 Ga  31   -1.770329   10.180722   16.454009     13.00      69.7230
     101     1 N    7    6.409628    2.041040    2.517777      5.00      14.0067
     102     2 Ga  31    6.410803    0.058989    2.856719     13.00      69.7230
     103     1 N    7    6.418271    0.058325    5.020231      5.00      14.0067
     104     2 Ga  31    6.412991    1.884930    5.797896     13.00      69.7230
     105     1 N    7    6.417792    1.900697    7.792405      5.00      14.0067
     106     2 Ga  31    6.419563    0.054236    8.440984     13.00      69.7230
     107     1 N    7    6.423056    0.053687   10.414715      5.00      14.0067
     108     2 Ga  31    6.421596    1.895669   11.058514     13.00      69.7230
     109     1 N    7    6.423297    1.877806   13.054504      5.00      14.0067
     110     2 Ga  31    6.425073    0.056952   13.848196     13.00      69.7230
     111     1 N    7    6.423204    0.056387   16.062348      5.00      14.0067
     112     2 Ga  31    6.425951    2.095689   16.467960     13.00      69.7230
     113     2 Ga  31    6.419734    3.777358    1.479202     13.00      69.7230
     114     1 N    7    4.907130    4.644179    2.511156      5.00      14.0067
     115     2 Ga  31    4.701291    2.789310    3.271516     13.00      69.7230
     116     1 N    7    4.805171    2.841443    5.237137      5.00      14.0067
     117     2 Ga  31    4.782060    4.712659    5.789559     13.00      69.7230
     118     1 N    7    4.800492    4.702536    7.786150      5.00      14.0067
     119     2 Ga  31    4.818534    2.845819    8.428481     13.00      69.7230
     120     1 N    7    4.823703    2.847334   10.422126      5.00      14.0067
     121     2 Ga  31    4.797682    4.706184   11.063231     13.00      69.7230
     122     1 N    7    4.783134    4.716210   13.059015      5.00      14.0067
     123     2 Ga  31    4.826586    2.848372   13.612360     13.00      69.7230
     124     1 N    7    4.804216    2.833578   15.580711      5.00      14.0067
     125     2 Ga  31    4.964192    4.616118   16.471198     13.00      69.7230
     126     1 N    7    6.415730    3.771789   17.598350      5.00      14.0067
     127     1 N    7    3.192593    7.611819    2.512868      5.00      14.0067
     128     2 Ga  31    3.184398    5.631536    2.847419     13.00      69.7230
     129     1 N    7    3.198934    5.629756    5.006009      5.00      14.0067
     130     2 Ga  31    3.202954    7.457428    5.792575     13.00      69.7230
     131     1 N    7    3.205035    7.471502    7.789945      5.00      14.0067
     132     2 Ga  31    3.204435    5.626703    8.439601     13.00      69.7230
     133     1 N    7    3.205720    5.626551   10.413136      5.00      14.0067
     134     2 Ga  31    3.207106    7.463976   11.070186     13.00      69.7230
     135     1 N    7    3.208410    7.445218   13.065351      5.00      14.0067
     136     2 Ga  31    3.202978    5.622497   13.870539     13.00      69.7230
     137     1 N    7    3.201797    5.623018   16.069575      5.00      14.0067
     138     2 Ga  31    3.208034    7.654823   16.476924     13.00      69.7230
     139     2 Ga  31    3.186136    9.348406    1.460272     13.00      69.7230
     140     1 N    7    1.692318   10.216557    2.520409      5.00      14.0067
     141     2 Ga  31    1.492621    8.367298    3.286944     13.00      69.7230
     142     1 N    7    1.593578    8.416204    5.250683      5.00      14.0067
     143     2 Ga  31    1.569791   10.286071    5.802229     13.00      69.7230
     144     1 N    7    1.587822   10.273510    7.797228      5.00      14.0067
     145     2 Ga  31    1.607747    8.415931    8.434761     13.00      69.7230
     146     1 N    7    1.611347    8.416419   10.429414      5.00      14.0067
     147     2 Ga  31    1.585252   10.275150   11.065171     13.00      69.7230
     148     1 N    7    1.569927   10.285874   13.060263      5.00      14.0067
     149     2 Ga  31    1.611249    8.416931   13.619516     13.00      69.7230
     150     1 N    7    1.583562    8.407224   15.586244      5.00      14.0067
     151     2 Ga  31    1.757657   10.181630   16.474512     13.00      69.7230
     152     1 N    7    3.203322    9.332575   17.610418      5.00      14.0067
     153     1 N    7    9.626455    1.920244    2.616025      5.00      14.0067
     154     2 Ga  31    9.628896    0.171043    3.280145     13.00      69.7230
     155     1 N    7    9.633739    0.058576    5.246373      5.00      14.0067
     156     2 Ga  31    9.631409    1.913242    5.871532     13.00      69.7230
     157     1 N    7    9.634420    1.910796    7.845119      5.00      14.0067
     158     2 Ga  31    9.638600    0.044235    8.433047     13.00      69.7230
     159     1 N    7    9.639603    0.041639   10.427859      5.00      14.0067
     160     2 Ga  31    9.639173    1.911756   11.018963     13.00      69.7230
     161     1 N    7    9.638174    1.911290   12.991986      5.00      14.0067
     162     2 Ga  31    9.641809    0.043604   13.615935     13.00      69.7230
     163     1 N    7    9.639794    0.073428   15.580048      5.00      14.0067
     164     2 Ga  31    9.639758    1.915282   15.854061     13.00      69.7230
     165     1 N    7    7.915109    4.642743    2.523647      5.00      14.0067
     166     2 Ga  31    8.113651    2.788875    3.290126     13.00      69.7230
     167     1 N    7    8.022243    2.842434    5.252167      5.00      14.0067
     168     2 Ga  31    8.049747    4.715630    5.795616     13.00      69.7230
     169     1 N    7    8.037355    4.703863    7.790277      5.00      14.0067
     170     2 Ga  31    8.017885    2.846016    8.429564     13.00      69.7230
     171     1 N    7    8.019145    2.846425   10.423458      5.00      14.0067
     172     2 Ga  31    8.044356    4.705811   11.060938     13.00      69.7230
     173     1 N    7    8.063031    4.716151   13.056034      5.00      14.0067
     174     2 Ga  31    8.021063    2.848404   13.610713     13.00      69.7230
     175     1 N    7    8.044953    2.836364   15.575725      5.00      14.0067
     176     2 Ga  31    7.876502    4.609879   16.470408     13.00      69.7230
     177     1 N    7    6.413377    7.489583    2.606994      5.00      14.0067
     178     2 Ga  31    6.411019    5.746883    3.281415     13.00      69.7230
     179     1 N    7    6.415217    5.629043    5.244677      5.00      14.0067
     180     2 Ga  31    6.416693    7.488365    5.859131     13.00      69.7230
     181     1 N    7    6.418645    7.483212    7.837072      5.00      14.0067
     182     2 Ga  31    6.418478    5.615422    8.426118     13.00      69.7230
     183     1 N    7    6.420435    5.612547   10.422116      5.00      14.0067
     184     2 Ga  31    6.420041    7.481874   11.018471     13.00      69.7230
     185     1 N    7    6.421136    7.482940   12.993241      5.00      14.0067
     186     2 Ga  31    6.423765    5.612955   13.612047     13.00      69.7230
     187     1 N    7    6.426576    5.644479   15.576367      5.00      14.0067
     188     2 Ga  31    6.424381    7.482825   15.858260     13.00      69.7230
     189     1 N    7    4.698314   10.217300    2.508442      5.00      14.0067
     190     2 Ga  31    4.899930    8.364591    3.268922     13.00      69.7230
     191     1 N    7    4.808379    8.415013    5.237788      5.00      14.0067
     192     2 Ga  31    4.834123   10.283910    5.792297     13.00      69.7230
     193     1 N    7    4.821824   10.272698    7.788926      5.00      14.0067
     194     2 Ga  31    4.802878    8.416275    8.429882     13.00      69.7230
     195     1 N    7    4.801793    8.417389   10.426283      5.00      14.0067
     196     2 Ga  31    4.829880   10.276079   11.065289     13.00      69.7230
     197     1 N    7    4.848143   10.286931   13.060813      5.00      14.0067
     198     2 Ga  31    4.804379    8.419289   13.619570     13.00      69.7230
     199     1 N    7    4.833264    8.406635   15.585013      5.00      14.0067
     200     2 Ga  31    4.658857   10.182084   16.477445     13.00      69.7230
     201     3 O    8    0.189361    3.437869   -0.537453      6.00      15.9994
     202     4 H    1    0.729615    4.144254   -0.940073      1.00       1.0079
     203     5 C    6    0.770387    2.128275   -0.895749      4.00      12.0107
     204     4 H    1    1.846037    2.098974   -0.648715      1.00       1.0079
     205     4 H    1    0.243865    1.391271   -0.277382      1.00       1.0079
     206     4 H    1    0.582481    1.959298   -1.963146      1.00       1.0079




 SCF PARAMETERS         Density guess:                                    ATOMIC
                        --------------------------------------------------------
                        max_scf:                                              80
                        max_scf_history:                                       0
                        max_diis:                                              4
                        --------------------------------------------------------
                        eps_scf:                                        5.00E-06
                        eps_scf_history:                                0.00E+00
                        eps_diis:                                       1.00E-01
                        eps_eigval:                                     1.00E-05
                        --------------------------------------------------------
                        level_shift [a.u.]:                                 0.00
                        --------------------------------------------------------
                        Outer loop SCF in use 
                        No variables optimised in outer loop
                        eps_scf                                         5.00E-06
                        max_scf                                                4
                        No outer loop optimization
                        step_size                                       5.00E-01

 PW_GRID| Information for grid number                                          1
 PW_GRID| Grid distributed over                                    80 processors
 PW_GRID| Real space group dimensions                                    80    1
 PW_GRID| the grid is blocked:                                                NO
 PW_GRID| Cutoff [a.u.]                                                    600.0
 PW_GRID| spherical cutoff:                                                   NO
 PW_GRID|   Bounds   1           -144     143                Points:         288
 PW_GRID|   Bounds   2           -144     143                Points:         288
 PW_GRID|   Bounds   3           -337     337                Points:         675
 PW_GRID| Volume element (a.u.^3)  0.5630E-03     Volume (a.u.^3)     31519.8467
 PW_GRID| Grid span                                                    FULLSPACE
 PW_GRID|   Distribution                         Average         Max         Min
 PW_GRID|   G-Vectors                           699840.0      699840      699840
 PW_GRID|   G-Rays                                2430.0        2430        2430
 PW_GRID|   Real Space Points                   699840.0      777600      583200

 PW_GRID| Information for grid number                                          2
 PW_GRID| Grid distributed over                                    80 processors
 PW_GRID| Real space group dimensions                                    80    1
 PW_GRID| the grid is blocked:                                                NO
 PW_GRID| Cutoff [a.u.]                                                    200.0
 PW_GRID| spherical cutoff:                                                   NO
 PW_GRID|   Bounds   1            -80      79                Points:         160
 PW_GRID|   Bounds   2            -80      79                Points:         160
 PW_GRID|   Bounds   3           -200     199                Points:         400
 PW_GRID| Volume element (a.u.^3)  0.3078E-02     Volume (a.u.^3)     31519.8467
 PW_GRID| Grid span                                                    FULLSPACE
 PW_GRID|   Distribution                         Average         Max         Min
 PW_GRID|   G-Vectors                           128000.0      128160      127840
 PW_GRID|   G-Rays                                 800.0         801         799
 PW_GRID|   Real Space Points                   128000.0      128000      128000

 PW_GRID| Information for grid number                                          3
 PW_GRID| Grid distributed over                                    80 processors
 PW_GRID| Real space group dimensions                                    80    1
 PW_GRID| the grid is blocked:                                                NO
 PW_GRID| Cutoff [a.u.]                                                     66.7
 PW_GRID| spherical cutoff:                                                   NO
 PW_GRID|   Bounds   1            -48      47                Points:          96
 PW_GRID|   Bounds   2            -48      47                Points:          96
 PW_GRID|   Bounds   3           -112     112                Points:         225
 PW_GRID| Volume element (a.u.^3)  0.1520E-01     Volume (a.u.^3)     31519.8467
 PW_GRID| Grid span                                                    FULLSPACE
 PW_GRID|   Distribution                         Average         Max         Min
 PW_GRID|   G-Vectors                            25920.0       26688       24864
 PW_GRID|   G-Rays                                 270.0         278         259
 PW_GRID|   Real Space Points                    25920.0       43200       21600

 PW_GRID| Information for grid number                                          4
 PW_GRID| Grid distributed over                                    80 processors
 PW_GRID| Real space group dimensions                                     8   10
 PW_GRID| the grid is blocked:                                                NO
 PW_GRID| Cutoff [a.u.]                                                     22.2
 PW_GRID| spherical cutoff:                                                   NO
 PW_GRID|   Bounds   1            -27      26                Points:          54
 PW_GRID|   Bounds   2            -27      26                Points:          54
[...]
      5       N      1       5.000    2.061   2.060            0.001      0.880
      6       Ga     2      13.000    6.952   6.950            0.001     -0.902
      7       N      1       5.000    2.052   2.051            0.001      0.897
      8       Ga     2      13.000    6.940   6.938            0.001     -0.878
      9       N      1       5.000    2.059   2.059            0.001      0.882
     10       Ga     2      13.000    6.875   6.871            0.003     -0.746
     11       N      1       5.000    2.133   2.130            0.002      0.737
     12       Ga     2      13.000    6.915   6.920           -0.004     -0.835
     13       Ga     2      13.000    6.920   6.915            0.005     -0.835
     14       N      1       5.000    2.099   2.098            0.001      0.803
     15       Ga     2      13.000    6.964   6.963            0.001     -0.927
     16       N      1       5.000    2.050   2.050            0.000      0.899
     17       Ga     2      13.000    6.946   6.943            0.004     -0.889
     18       N      1       5.000    2.061   2.060            0.001      0.879
     19       Ga     2      13.000    6.939   6.938            0.002     -0.877
     20       N      1       5.000    2.062   2.061            0.001      0.878
     21       Ga     2      13.000    6.940   6.938            0.001     -0.878
     22       N      1       5.000    2.059   2.059            0.001      0.882
     23       Ga     2      13.000    6.951   6.950            0.001     -0.901
     24       N      1       5.000    2.049   2.051           -0.003      0.900
     25       Ga     2      13.000    6.915   6.919           -0.004     -0.833
     26       N      1       5.000    2.175   2.295           -0.120      0.530
     27       N      1       5.000    2.106   2.084            0.022      0.809
     28       Ga     2      13.000    6.894   6.884            0.011     -0.778
     29       N      1       5.000    2.105   2.094            0.011      0.801
     30       Ga     2      13.000    6.945   6.941            0.004     -0.886
     31       N      1       5.000    2.062   2.060            0.002      0.878
     32       Ga     2      13.000    6.952   6.950            0.001     -0.902
     33       N      1       5.000    2.052   2.051            0.001      0.897
     34       Ga     2      13.000    6.939   6.938            0.001     -0.876
     35       N      1       5.000    2.061   2.060            0.001      0.879
     36       Ga     2      13.000    6.875   6.871            0.003     -0.746
     37       N      1       5.000    2.133   2.131            0.002      0.736
     38       Ga     2      13.000    6.908   6.931           -0.023     -0.839
     39       Ga     2      13.000    6.816   6.657            0.158     -0.473
     40       N      1       5.000    2.111   2.089            0.022      0.800
     41       Ga     2      13.000    6.965   6.960            0.004     -0.925
     42       N      1       5.000    2.052   2.051            0.002      0.897
     43       Ga     2      13.000    6.945   6.942            0.003     -0.886
     44       N      1       5.000    2.062   2.060            0.001      0.878
     45       Ga     2      13.000    6.939   6.937            0.002     -0.876
     46       N      1       5.000    2.062   2.061            0.001      0.877
     47       Ga     2      13.000    6.939   6.938            0.001     -0.877
     48       N      1       5.000    2.061   2.060            0.001      0.879
     49       Ga     2      13.000    6.947   6.949           -0.002     -0.896
     50       N      1       5.000    2.037   2.063           -0.025      0.900
     51       Ga     2      13.000    6.908   6.931           -0.023     -0.839
     52       N      1       5.000    1.959   2.476           -0.517      0.565
     53       N      1       5.000    2.143   2.142            0.001      0.715
     54       Ga     2      13.000    6.981   6.976            0.005     -0.957
     55       N      1       5.000    2.052   2.051            0.002      0.897
     56       Ga     2      13.000    6.938   6.936            0.002     -0.874
     57       N      1       5.000    2.056   2.055            0.001      0.889
     58       Ga     2      13.000    6.939   6.937            0.002     -0.877
     59       N      1       5.000    2.062   2.061            0.001      0.877
     60       Ga     2      13.000    6.946   6.945            0.001     -0.891
     61       N      1       5.000    2.061   2.063           -0.002      0.876
     62       Ga     2      13.000    6.947   6.949           -0.002     -0.896
     63       N      1       5.000    2.037   2.063           -0.026      0.900
     64       Ga     2      13.000    6.857   6.858           -0.000     -0.715
     65       N      1       5.000    2.108   2.107            0.001      0.786
     66       Ga     2      13.000    6.989   6.988            0.001     -0.977
     67       N      1       5.000    2.049   2.049            0.000      0.902
     68       Ga     2      13.000    6.944   6.940            0.004     -0.884
     69       N      1       5.000    2.061   2.060            0.001      0.880
     70       Ga     2      13.000    6.939   6.937            0.002     -0.876
     71       N      1       5.000    2.062   2.061            0.001      0.877
     72       Ga     2      13.000    6.939   6.938            0.001     -0.877
     73       N      1       5.000    2.061   2.060            0.001      0.879
     74       Ga     2      13.000    6.950   6.950           -0.000     -0.900
     75       N      1       5.000    2.046   2.055           -0.009      0.899
     76       Ga     2      13.000    6.910   6.914           -0.005     -0.824
     77       N      1       5.000    2.124   2.123            0.000      0.753
     78       Ga     2      13.000    6.964   6.963            0.001     -0.928
     79       N      1       5.000    2.051   2.051            0.000      0.898
     80       Ga     2      13.000    6.936   6.934            0.002     -0.870
     81       N      1       5.000    2.056   2.055            0.001      0.889
     82       Ga     2      13.000    6.939   6.937            0.002     -0.877
     83       N      1       5.000    2.062   2.061            0.001      0.877
     84       Ga     2      13.000    6.946   6.945            0.001     -0.891
     85       N      1       5.000    2.061   2.063           -0.002      0.876
     86       Ga     2      13.000    6.950   6.950            0.000     -0.900
     87       N      1       5.000    2.047   2.054           -0.007      0.898
     88       Ga     2      13.000    6.857   6.858           -0.001     -0.715
     89       N      1       5.000    2.108   2.085            0.023      0.807
     90       Ga     2      13.000    6.965   6.960            0.005     -0.925
     91       N      1       5.000    2.052   2.050            0.002      0.898
     92       Ga     2      13.000    6.946   6.941            0.005     -0.887
     93       N      1       5.000    2.062   2.059            0.003      0.879
     94       Ga     2      13.000    6.939   6.937            0.002     -0.876
     95       N      1       5.000    2.062   2.061            0.001      0.876
     96       Ga     2      13.000    6.939   6.937            0.001     -0.876
     97       N      1       5.000    2.061   2.060            0.001      0.879
     98       Ga     2      13.000    6.947   6.949           -0.002     -0.896
     99       N      1       5.000    2.035   2.065           -0.029      0.900
    100       Ga     2      13.000    6.907   6.931           -0.023     -0.838
    101       N      1       5.000    2.107   2.085            0.022      0.808
    102       Ga     2      13.000    6.904   6.890            0.014     -0.793
    103       N      1       5.000    2.107   2.089            0.018      0.804
    104       Ga     2      13.000    6.946   6.941            0.005     -0.888
    105       N      1       5.000    2.062   2.059            0.003      0.879
    106       Ga     2      13.000    6.951   6.949            0.002     -0.901
    107       N      1       5.000    2.052   2.052            0.001      0.896
    108       Ga     2      13.000    6.940   6.939            0.001     -0.879
    109       N      1       5.000    2.059   2.058            0.001      0.883
    110       Ga     2      13.000    6.875   6.872            0.003     -0.747
    111       N      1       5.000    2.134   2.131            0.002      0.735
    112       Ga     2      13.000    6.915   6.912            0.003     -0.827
    113       Ga     2      13.000    6.803   6.652            0.151     -0.455
    114       N      1       5.000    2.110   2.089            0.021      0.801
    115       Ga     2      13.000    6.971   6.966            0.004     -0.937
    116       N      1       5.000    2.052   2.051            0.001      0.897
    117       Ga     2      13.000    6.945   6.942            0.003     -0.887
    118       N      1       5.000    2.061   2.060            0.001      0.878
    119       Ga     2      13.000    6.940   6.938            0.002     -0.878
    120       N      1       5.000    2.062   2.061            0.001      0.878
    121       Ga     2      13.000    6.940   6.939            0.001     -0.879
    122       N      1       5.000    2.060   2.059            0.001      0.880
    123       Ga     2      13.000    6.951   6.951            0.001     -0.902
    124       N      1       5.000    2.051   2.052           -0.001      0.898
    125       Ga     2      13.000    6.910   6.908            0.003     -0.818
    126       N      1       5.000    2.240   2.241           -0.000      0.519
    127       N      1       5.000    2.104   2.089            0.015      0.807
    128       Ga     2      13.000    6.918   6.909            0.009     -0.827
    129       N      1       5.000    2.100   2.092            0.008      0.808
    130       Ga     2      13.000    6.945   6.942            0.003     -0.888
    131       N      1       5.000    2.061   2.060            0.001      0.879
    132       Ga     2      13.000    6.952   6.950            0.001     -0.902
    133       N      1       5.000    2.052   2.051            0.001      0.897
    134       Ga     2      13.000    6.940   6.938            0.001     -0.878
    135       N      1       5.000    2.060   2.060            0.001      0.880
    136       Ga     2      13.000    6.875   6.873            0.003     -0.748
    137       N      1       5.000    2.137   2.134            0.002      0.729
    138       Ga     2      13.000    6.909   6.911           -0.003     -0.820
    139       Ga     2      13.000    6.776   6.668            0.109     -0.444
    140       N      1       5.000    2.102   2.087            0.015      0.811
    141       Ga     2      13.000    6.965   6.961            0.003     -0.926
    142       N      1       5.000    2.051   2.050            0.001      0.898
    143       Ga     2      13.000    6.947   6.942            0.005     -0.889
    144       N      1       5.000    2.062   2.059            0.002      0.879
    145       Ga     2      13.000    6.940   6.937            0.002     -0.877
    146       N      1       5.000    2.062   2.061            0.001      0.877
    147       Ga     2      13.000    6.940   6.939            0.001     -0.879
    148       N      1       5.000    2.059   2.058            0.001      0.882
    149       Ga     2      13.000    6.951   6.950            0.000     -0.901
    150       N      1       5.000    2.049   2.053           -0.005      0.898
    151       Ga     2      13.000    6.913   6.915           -0.002     -0.828
    152       N      1       5.000    2.195   2.277           -0.082      0.529
    153       N      1       5.000    2.124   2.123            0.000      0.753
    154       Ga     2      13.000    6.965   6.961            0.003     -0.926
    155       N      1       5.000    2.052   2.051            0.001      0.898
    156       Ga     2      13.000    6.937   6.935            0.002     -0.871
    157       N      1       5.000    2.056   2.055            0.001      0.889
    158       Ga     2      13.000    6.940   6.938            0.002     -0.878
    159       N      1       5.000    2.062   2.061            0.001      0.878
    160       Ga     2      13.000    6.946   6.946            0.001     -0.892
    161       N      1       5.000    2.061   2.063           -0.001      0.876
    162       Ga     2      13.000    6.951   6.950            0.001     -0.901
    163       N      1       5.000    2.050   2.051           -0.001      0.899
    164       Ga     2      13.000    6.859   6.859           -0.000     -0.718
    165       N      1       5.000    2.106   2.085            0.021      0.809
    166       Ga     2      13.000    6.965   6.960            0.004     -0.925
    167       N      1       5.000    2.052   2.050            0.001      0.898
    168       Ga     2      13.000    6.945   6.941            0.004     -0.886
    169       N      1       5.000    2.062   2.060            0.002      0.878
    170       Ga     2      13.000    6.940   6.938            0.002     -0.877
    171       N      1       5.000    2.062   2.061            0.001      0.878
    172       Ga     2      13.000    6.940   6.939            0.001     -0.879
    173       N      1       5.000    2.059   2.058            0.001      0.883
    174       Ga     2      13.000    6.951   6.950            0.001     -0.901
    175       N      1       5.000    2.050   2.051           -0.000      0.899
    176       Ga     2      13.000    6.916   6.912            0.003     -0.828
    177       N      1       5.000    2.123   2.123            0.000      0.755
    178       Ga     2      13.000    6.965   6.960            0.004     -0.925
    179       N      1       5.000    2.052   2.051            0.002      0.897
    180       Ga     2      13.000    6.936   6.934            0.002     -0.870
    181       N      1       5.000    2.057   2.055            0.002      0.888
    182       Ga     2      13.000    6.939   6.937            0.002     -0.877
    183       N      1       5.000    2.062   2.061            0.001      0.877
    184       Ga     2      13.000    6.946   6.945            0.001     -0.892
    185       N      1       5.000    2.061   2.063           -0.002      0.876
    186       Ga     2      13.000    6.951   6.951            0.001     -0.902
    187       N      1       5.000    2.051   2.052           -0.001      0.897
    188       Ga     2      13.000    6.857   6.858           -0.001     -0.715
    189       N      1       5.000    2.104   2.089            0.015      0.807
    190       Ga     2      13.000    6.965   6.961            0.003     -0.926
    191       N      1       5.000    2.051   2.050            0.001      0.898
    192       Ga     2      13.000    6.946   6.942            0.003     -0.888
    193       N      1       5.000    2.061   2.060            0.001      0.879
    194       Ga     2      13.000    6.940   6.938            0.002     -0.877
    195       N      1       5.000    2.062   2.061            0.001      0.877
    196       Ga     2      13.000    6.940   6.939            0.001     -0.879
    197       N      1       5.000    2.059   2.058            0.001      0.883
    198       Ga     2      13.000    6.950   6.950            0.000     -0.901
    199       N      1       5.000    2.048   2.054           -0.006      0.898
    200       Ga     2      13.000    6.915   6.916           -0.002     -0.831
    201       O      3       6.000    3.149   3.148            0.001     -0.298
    202       H      4       1.000    0.208   0.208            0.000      0.583
    203       C      5       4.000    2.405   2.404            0.000     -0.809
    204       H      4       1.000    0.264   0.264            0.000      0.472
    205       H      4       1.000    0.273   0.273            0.000      0.453
    206       H      4       1.000    0.277   0.277            0.000      0.446

  Total Charge                                                            0.001
 !-----------------------------------------------------------------------------!

 ENERGY| Total FORCE_EVAL ( QS ) energy (a.u.):            -8480.560240597591473


 --------  Informations at step =    87 ------------
  Optimization Method        =                 BFGS
  Total Energy               =     -8480.5602405976
  Real energy change         =        -0.0000158412
  Predicted change in energy =        -0.0000266845
  Scaling factor             =         0.3491860861
  Step size                  =         0.0437347814
  Trust radius               =         0.4724315332
  Decrease in energy         =                  YES
  Used time                  =              235.461

  Convergence check :
  Max. step size             =         0.0437347814
  Conv. limit for step size  =         0.0030000000
  Convergence in step size   =                   NO
  RMS step size              =         0.0034643572
  Conv. limit for RMS step   =         0.0015000000
  Convergence in RMS step    =                   NO
  Max. gradient              =         0.0008460515
  Conv. limit for gradients  =         0.0004500000
  Conv. for gradients        =                   NO
  RMS gradient               =         0.0001354296
  Conv. limit for RMS grad.  =         0.0003000000
  Conv. in RMS gradients     =                  YES
 ---------------------------------------------------

 --------------------------
 OPTIMIZATION STEP:     88
 --------------------------

 Spin 1

 Number of electrons:                                                        907
 Number of occupied orbitals:                                                907
 Number of molecular orbitals:                                               907

 Spin 2

 Number of electrons:                                                        907
 Number of occupied orbitals:                                                907
 Number of molecular orbitals:                                               907

 Number of orbital functions:                                               3846
 Number of independent orbital functions:                                   3846

 Parameters for the always stable predictor-corrector (ASPC) method:

  ASPC order: 3

  B(1) =   3.000000
  B(2) =  -3.428571
  B(3) =   1.928571
  B(4) =  -0.571429
  B(5) =   0.071429

 Parameters for the always stable predictor-corrector (ASPC) method:

  ASPC order: 3

  B(1) =   3.000000
  B(2) =  -3.428571
  B(3) =   1.928571
  B(4) =  -0.571429
  B(5) =   0.071429

 Extrapolation method: ASPC


 SCF WAVEFUNCTION OPTIMIZATION

  ----------------------------------- OT ---------------------------------------
  Minimizer      : CG                  : conjugate gradient
  Preconditioner : FULL_ALL            : diagonalization, state selective
  Precond_solver : DEFAULT
  Line search    : 2PNT                : 2 energies, one gradient
  stepsize       :    0.15000000                  energy_gap     :    0.08000000
  eps_taylor     :   0.10000E-15                  max_taylor     :             4
  ----------------------------------- OT ---------------------------------------

  Step     Update method      Time    Convergence         Total energy    Change
  ------------------------------------------------------------------------------
     1 OT CG       0.15E+00   19.3     0.00002541     -8480.5593241637 -8.48E+03
     2 OT LS       0.16E+00    6.2                    -8480.5596864590
     3 OT CG       0.16E+00   14.0     0.00002080     -8480.5596883812 -3.64E-04
     4 OT LS       0.23E+00    7.6                    -8480.5600061368
     5 OT CG       0.23E+00   17.3     0.00001429     -8480.5600381525 -3.50E-04
     6 OT LS       0.13E+00    7.8                    -8480.5600743359
