     206
 i =        1, E =     -8480.5423700485
  N         0.0208380971        2.0399692365        2.4516312641
 Ga         0.0203774132        0.0554225594        2.8092197433
  N         0.0202045003        0.0485221202        4.9694618816
 Ga         0.0202127430        1.8762849878        5.7541415721
  N         0.0203200201        1.8926606452        7.7488804368
 Ga         0.0196636307        0.0477679222        8.3985490345
  N         0.0196902913        0.0475659899       10.3708296412
 Ga         0.0197911827        1.8871153560       11.0221538327
  N         0.0191815619        1.8676883795       13.0160264671
 Ga         0.0171374950        0.0444334136       13.8184363464
  N         0.0223294015        0.0472002344       16.0207037298
 Ga         0.0195368848        2.0761763820       16.4187406705
 Ga         0.0121052688        3.7817813751        1.4332529749
  N        -1.4768211985        4.6272558472        2.4720573249
 Ga        -1.6840547177        2.7801194244        3.2431407075
  N        -1.5895911018        2.8304158327        5.2057052404
 Ga        -1.6117877989        4.7031602251        5.7515728666
  N        -1.5981083801        4.6953501219        7.7474215129
 Ga        -1.5781181301        2.8384536798        8.3890252557
  N        -1.5767468197        2.8391677284       10.3816350759
 Ga        -1.6026804102        4.6981067324       11.0208778389
  N        -1.6205237765        4.7083808685       13.0141946978
 Ga        -1.5790976286        2.8393190635       13.5692598664
  N        -1.6048060375        2.8256024924       15.5330688170
 Ga        -1.4342161193        4.6014003930       16.4185848820
  N         0.0282782011        3.7586731947       17.5561756204
  N        -3.1956239984        7.5961117281        2.4751830623
 Ga        -3.1894259109        5.6143974409        2.8068578910
  N        -3.1957499340        5.6175898085        4.9684241083
 Ga        -3.1956587871        7.4449256155        5.7526221303
  N        -3.1961789105        7.4636855283        7.7475702485
 Ga        -3.1960550811        5.6180512033        8.3977221756
  N        -3.1961906212        5.6181742342       10.3702622223
 Ga        -3.1964260624        7.4584733012       11.0211923954
  N        -3.1968918768        7.4383898496       13.0135628199
 Ga        -3.1988976776        5.6186169657       13.8151358758
  N        -3.1965794124        5.6182443812       16.0187774185
 Ga        -3.1964528871        7.6622041109       16.4325148907
 Ga        -3.1951502700        9.3310760905        1.4389361743
  N        -4.6981161496       10.2000369596        2.4741524269
 Ga        -4.9019599366        8.3462619158        3.2406861608
  N        -4.8047577365        8.4026940575        5.2033185726
 Ga        -4.8293280220       10.2748088854        5.7527998229
  N        -4.8143538885       10.2661396696        7.7476406975
 Ga        -4.7946653176        8.4091709491        8.3891938502
  N        -4.7932532313        8.4100358055       10.3808881639
 Ga        -4.8188869908       10.2687088740       11.0217432700
  N        -4.8368881618       10.2787584770       13.0140733392
 Ga        -4.7942392490        8.4098531762       13.5720294402
  N        -4.8219903330        8.3950794767       15.5329567037
 Ga        -4.6399440093       10.1665286713       16.4331810187
  N        -3.1876771734        9.3329698074       17.5646003869
  N         3.2342078913        1.9054306235        2.5615917422
 Ga         3.2370857301        0.1620029128        3.2417297148
  N         3.2367053445        0.0486741687        5.2040051322
 Ga         3.2362730396        1.9043744393        5.8305747335
  N         3.2362057910        1.9042383923        7.8019941642
 Ga         3.2360887674        0.0361813421        8.3900972494
  N         3.2362945191        0.0348602216       10.3819286553
 Ga         3.2363109724        1.9045236093       10.9774527130
  N         3.2353937846        1.9047304917       12.9474304763
 Ga         3.2350807529        0.0357970327       13.5721690563
  N         3.2326557416        0.0687880088       15.5323452507
 Ga         3.2364919803        1.9053618853       15.8176155457
  N         1.5155660956        4.6252129709        2.4644512789
 Ga         1.7243547031        2.7787873954        3.2431158132
  N         1.6304218068        2.8308292965        5.2057726418
 Ga         1.6521436847        4.7031460260        5.7530252108
  N         1.6382388122        4.6951228162        7.7482439947
 Ga         1.6182988469        2.8385048559        8.3900468088
  N         1.6167957576        2.8393981171       10.3826652487
 Ga         1.6429302452        4.6984834232       11.0225535250
  N         1.6596715724        4.7089351881       13.0165213873
 Ga         1.6173866443        2.8390468016       13.5689459226
  N         1.6426550236        2.8242913598       15.5335059310
 Ga         1.4808531588        4.6061203406       16.4181485425
  N         0.0205426050        7.4721999449        2.5620841014
 Ga         0.0191300130        5.7291526058        3.2457356500
  N         0.0207144762        5.6209931095        5.2069729776
 Ga         0.0200507052        7.4747825133        5.8300239551
  N         0.0198827107        7.4751878983        7.8014340174
 Ga         0.0200360114        5.6067065988        8.3889720755
  N         0.0201902578        5.6054852552       10.3818106911
 Ga         0.0203507851        7.4754044879       10.9780448856
  N         0.0198425187        7.4753894965       12.9487447397
 Ga         0.0187982587        5.6070898224       13.5690217727
  N         0.0174386759        5.6372514133       15.5327283296
 Ga         0.0217345899        7.4783019896       15.8160751618
  N        -1.6939980811       10.1987436721        2.4750593162
 Ga        -1.4889275586        8.3455988021        3.2407605805
  N        -1.5866816299        8.4026075538        5.2031913381
 Ga        -1.5623286923       10.2742955527        5.7534395685
  N        -1.5784398993       10.2657336455        7.7480268904
 Ga        -1.5978017071        8.4091363276        8.3899983377
  N        -1.5990180050        8.4101487652       10.3820656990
 Ga        -1.5731479398       10.2690585277       11.0237832016
  N        -1.5561758565       10.2791265920       13.0166939693
 Ga        -1.5997940596        8.4096329215       13.5726489384
  N        -1.5716607167        8.3924837100       15.5342232043
 Ga        -1.7445091138       10.1721185661       16.4321241856
  N         6.4529184333        2.0272150576        2.4745523745
 Ga         6.4525162363        0.0475868578        2.8102365084
  N         6.4526122107        0.0470947473        4.9700523267
 Ga         6.4527187090        1.8744699751        5.7535087331
  N         6.4523403109        1.8929604118        7.7480733435
 Ga         6.4522974655        0.0474266183        8.3982677250
  N         6.4522968821        0.0473702721       10.3706178275
 Ga         6.4522987944        1.8870031388       11.0236425126
  N         6.4521604239        1.8678769948       13.0158546897
 Ga         6.4548541867        0.0474291297       13.8247455905
  N         6.4513017167        0.0485338778       16.0209559110
 Ga         6.4513214621        2.0904681275       16.4381315688
 Ga         6.4536585217        3.7626570685        1.4408144512
  N         4.9498993111        4.6287229231        2.4750833355
 Ga         4.7457591039        2.7755058907        3.2408400823
  N         4.8436120875        2.8313634362        5.2034425661
 Ga         4.8187887177        4.7035805399        5.7528158517
  N         4.8340278823        4.6951953185        7.7476663121
 Ga         4.8541058644        2.8382669559        8.3901078858
  N         4.8554916888        2.8390225933       10.3818087981
 Ga         4.8296945840        4.6981015158       11.0220375372
  N         4.8121732672        4.7086122252       13.0137505780
 Ga         4.8542729026        2.8397200561       13.5731577498
  N         4.8247936131        2.8248960491       15.5317660026
 Ga         5.0123511730        4.5919245363       16.4389938817
  N         6.4551250754        3.7543610014       17.5740225873
  N         3.2362336135        7.5964601966        2.4745952110
 Ga         3.2307237034        5.6145474708        2.8075549160
  N         3.2356874361        5.6171552230        4.9685408270
 Ga         3.2358833676        7.4449515750        5.7527985755
  N         3.2360774695        7.4633387574        7.7474752382
 Ga         3.2358183771        5.6181281707        8.3984736741
  N         3.2359717359        5.6182097652       10.3708423185
 Ga         3.2360266643        7.4585356553       11.0231192958
  N         3.2358250187        7.4398695531       13.0147876833
 Ga         3.2386104187        5.6217549767       13.8202646671
  N         3.2379578095        5.6165355767       16.0197982265
 Ga         3.2352950921        7.6686386565       16.4497240510
 Ga         3.2358746014        9.3319987024        1.4386531434
  N         1.7346477245       10.1987874397        2.4750202956
 Ga         1.5296405279        8.3457625491        3.2408548750
  N         1.6270124632        8.4024648787        5.2032486121
 Ga         1.6029071866       10.2742148930        5.7533934707
  N         1.6183375354       10.2655959581        7.7478265092
 Ga         1.6377619215        8.4089805634        8.3898784509
  N         1.6391271903        8.4099686298       10.3814456080
 Ga         1.6136872570       10.2686157829       11.0239766931
  N         1.5969774023       10.2784330414       13.0155679644
 Ga         1.6388658213        8.4104419484       13.5781738439
  N         1.6124065108        8.3956351889       15.5368563102
 Ga         1.7970355859       10.1625904982       16.4505718651
  N         3.2382631144        9.3289960682       17.5920689675
  N         9.6716121211        1.9049257901        2.5623664363
 Ga         9.6690399485        0.1617139035        3.2416616064
  N         9.6683715599        0.0483415577        5.2038293335
 Ga         9.6688307061        1.9042126870        5.8298528633
  N         9.6684529668        1.9040701910        7.8012487427
 Ga         9.6683379515        0.0360399259        8.3895931865
  N         9.6682301632        0.0347331456       10.3811342027
 Ga         9.6685531959        1.9039714847       10.9780135487
  N         9.6684753127        1.9040906086       12.9484456273
 Ga         9.6679035824        0.0348713264       13.5784901951
  N         9.6680721104        0.0650105776       15.5373845219
 Ga         9.6666524185        1.9018055875       15.8159290715
  N         7.9560434650        4.6292745757        2.4756710852
 Ga         8.1603893674        2.7757794563        3.2404686215
  N         8.0615638301        2.8314077231        5.2030757322
 Ga         8.0863635832        4.7035606922        5.7526563353
  N         8.0702026087        4.6950204710        7.7475968901
 Ga         8.0507245875        2.8380006279        8.3897953526
  N         8.0493129679        2.8386782018       10.3816715880
 Ga         8.0743607986        4.6977596739       11.0211554527
  N         8.0914748871        4.7081769132       13.0128333190
 Ga         8.0494570960        2.8396518520       13.5738200165
  N         8.0788519844        2.8239268225       15.5338035479
 Ga         7.8934003957        4.5934088769       16.4385671676
  N         6.4527364630        7.4747700509        2.5620919362
 Ga         6.4529559898        5.7316623840        3.2411217890
  N         6.4525036165        5.6186052044        5.2034825537
 Ga         6.4523231268        7.4747554740        5.8285750761
  N         6.4521774862        7.4749316787        7.8000804995
 Ga         6.4521281732        5.6067444438        8.3891168932
  N         6.4521389654        5.6054374666       10.3807396208
 Ga         6.4519906681        7.4751491413       10.9776513745
  N         6.4517015314        7.4754293692       12.9479415647
 Ga         6.4518571331        5.6059494481       13.5730366203
  N         6.4515286749        5.6381674157       15.5323432654
 Ga         6.4495728176        7.4759962231       15.8167289494
  N         4.7391441062       10.1997390055        2.4740742855
 Ga         4.9428168042        8.3462139286        3.2404968848
  N         4.8450264282        8.4024860775        5.2031670346
 Ga         4.8696213360       10.2745736299        5.7529583306
  N         4.8542765696       10.2656916139        7.7475153750
 Ga         4.8343235278        8.4088328516        8.3895865335
  N         4.8329317974        8.4097556284       10.3810133046
 Ga         4.8580438348       10.2682960880       11.0228287563
  N         4.8743166865       10.2778981136       13.0143842264
 Ga         4.8325653064        8.4100718493       13.5781277318
  N         4.8587945409        8.3954350115       15.5382296781
 Ga         4.6745387512       10.1629692257       16.4506708094
  O        -0.2844270644        3.9353620354       -0.8161358008
  H        -0.2066478975        4.7343559290       -1.3756067162
  C        -0.0048048312        2.7416792406       -1.5992022043
  H         0.8786641300        2.8990630534       -2.2315702127
  H         0.2011298593        1.9491933399       -0.8704584079
  H        -0.8833006978        2.4808506340       -2.2022070523
     206
 i =        2, E =     -8480.5442129531
  N         0.0195284094        2.0526428166        2.4177875709
 Ga         0.0202129945        0.0655456487        2.8096195158
  N         0.0202082809        0.0519172058        4.9640738699
 Ga         0.0204023586        1.8787815667        5.7576731653
  N         0.0202123810        1.8924802257        7.7492170931
 Ga         0.0197745372        0.0477985887        8.4014031269
  N         0.0194560434        0.0470638100       10.3703870192
 Ga         0.0197935631        1.8873112950       11.0227615449
  N         0.0191861854        1.8677983052       13.0119657858
 Ga         0.0188993039        0.0473321190       13.8236417066
  N         0.0233843377        0.0497296881       16.0197010974
 Ga         0.0209134347        2.0884178967       16.4304943436
 Ga         0.0018193740        3.8058289317        1.4286874425
  N        -1.4725759806        4.6300320990        2.4655791845
 Ga        -1.6795180718        2.7842068205        3.2404573785
  N        -1.5898029274        2.8295439434        5.2023382497
 Ga        -1.6110972181        4.7020143415        5.7542443124
  N        -1.5982089599        4.6954042314        7.7470064196
 Ga        -1.5786020611        2.8387383664        8.3909102962
  N        -1.5770162127        2.8390889094       10.3799273587
 Ga        -1.6027544708        4.6982454181       11.0217540771
  N        -1.6208271920        4.7084234153       13.0107258773
 Ga        -1.5791361747        2.8392067753       13.5712924901
  N        -1.6040074458        2.8247876420       15.5292836645
 Ga        -1.4252999465        4.5965697514       16.4297200927
  N         0.0266818202        3.7588232716       17.5792235076
  N        -3.1947901647        7.5947705647        2.4740579933
 Ga        -3.1844287382        5.6118624642        2.8101739674
  N        -3.1944287172        5.6165791270        4.9661819988
 Ga        -3.1953739440        7.4446885695        5.7532238849
  N        -3.1958974778        7.4634594301        7.7456694656
 Ga        -3.1958184695        5.6178987761        8.3993961002
  N        -3.1964680411        5.6182225899       10.3685872899
 Ga        -3.1963846095        7.4579322999       11.0236963642
  N        -3.1972162498        7.4377916452       13.0130758888
 Ga        -3.1968865614        5.6180520473       13.8235996498
  N        -3.1947971993        5.6180391135       16.0160465549
 Ga        -3.1952055756        7.6661174988       16.4351827173
 Ga        -3.1949744151        9.3309721638        1.4374980380
  N        -4.7002082169       10.2019223600        2.4730563693
 Ga        -4.9024372392        8.3458164746        3.2391298149
  N        -4.8049524600        8.4026892409        5.2005581807
 Ga        -4.8287939508       10.2750729265        5.7531677548
  N        -4.8146838786       10.2662377382        7.7457290140
 Ga        -4.7942309017        8.4090112549        8.3913296461
  N        -4.7930874734        8.4099743599       10.3797013018
 Ga        -4.8189552854       10.2686571670       11.0239606372
  N        -4.8372073601       10.2787104642       13.0130686848
 Ga        -4.7949263865        8.4095936790       13.5747825269
  N        -4.8251730885        8.3946685140       15.5320540698
 Ga        -4.6335604983       10.1648287080       16.4369894664
  N        -3.1900142019        9.3303875613       17.5637531800
  N         3.2304858369        1.9072770772        2.5570385194
 Ga         3.2368779518        0.1633738271        3.2400451887
  N         3.2371330334        0.0493614722        5.2010475039
 Ga         3.2350753621        1.9050146453        5.8328422112
  N         3.2366687113        1.9040177407        7.8017295852
 Ga         3.2363149364        0.0357918103        8.3924790449
  N         3.2362170058        0.0341331416       10.3805589303
 Ga         3.2364940949        1.9044827893       10.9771707193
  N         3.2360234135        1.9046865069       12.9421579280
 Ga         3.2349470030        0.0369848929       13.5739843374
  N         3.2344504853        0.0718459451       15.5296495310
 Ga         3.2345872037        1.9066260396       15.8168083362
  N         1.5073852945        4.6264837798        2.4472698205
 Ga         1.7170123512        2.7833993109        3.2361274276
  N         1.6306186259        2.8302503125        5.1993426868
 Ga         1.6512748608        4.7015900018        5.7561913019
  N         1.6384334917        4.6953125554        7.7482710194
 Ga         1.6185553549        2.8385920422        8.3922813104
  N         1.6166415504        2.8394993376       10.3807726504
 Ga         1.6428044144        4.6985069572       11.0230095952
  N         1.6593807138        4.7086482367       13.0123364853
 Ga         1.6182520083        2.8384013882       13.5705740232
  N         1.6428332376        2.8247282771       15.5283619189
 Ga         1.4700726039        4.5986119363       16.4303979583
  N         0.0203602331        7.4692642121        2.5552858174
 Ga         0.0186192477        5.7284916411        3.2530011118
  N         0.0210787578        5.6220685218        5.2101260857
 Ga         0.0200830742        7.4748041173        5.8338541425
  N         0.0199624867        7.4758288716        7.8019734552
 Ga         0.0197922825        5.6067834390        8.3905991879
  N         0.0201498382        5.6055444350       10.3797849727
 Ga         0.0206590454        7.4755298071       10.9782745729
  N         0.0209497917        7.4764194519       12.9455134914
 Ga         0.0187321445        5.6073298760       13.5710038866
  N         0.0189972067        5.6368547506       15.5287312217
 Ga         0.0213009182        7.4756739505       15.8138529655
  N        -1.6926456218       10.1989217591        2.4744486488
 Ga        -1.4875971111        8.3447294635        3.2400585360
  N        -1.5858874827        8.4022571269        5.2008154090
 Ga        -1.5627794519       10.2737653939        5.7550853566
  N        -1.5781901865       10.2655095972        7.7469137892
 Ga        -1.5980172065        8.4091877251        8.3925516231
  N        -1.5993582627        8.4101891776       10.3811139111
 Ga        -1.5729409860       10.2691250324       11.0255474995
  N        -1.5563208083       10.2793540198       13.0148995833
 Ga        -1.5994328369        8.4095966510       13.5744201643
  N        -1.5673546813        8.3934972151       15.5317045160
 Ga        -1.7519648189       10.1682158525       16.4358986391
  N         6.4528899420        2.0264346577        2.4737276063
 Ga         6.4523880846        0.0478374026        2.8169141399
  N         6.4525072188        0.0472070994        4.9707469756
 Ga         6.4527157552        1.8752605494        5.7550366161
  N         6.4523795024        1.8928623067        7.7468271727
 Ga         6.4522566135        0.0474713328        8.4004754977
  N         6.4525079240        0.0473131528       10.3698674276
 Ga         6.4521133464        1.8867402045       11.0256739607
  N         6.4519128000        1.8676886646       13.0148208379
 Ga         6.4529216037        0.0479631004       13.8287653781
  N         6.4497200674        0.0488845229       16.0214751019
 Ga         6.4503410432        2.0954266453       16.4395858932
 Ga         6.4540031188        3.7627594498        1.4406695360
  N         4.9482520576        4.6292568842        2.4745243149
 Ga         4.7439757815        2.7745292931        3.2397394939
  N         4.8430131981        2.8307871541        5.2008347361
 Ga         4.8186660086        4.7031801235        5.7532934779
  N         4.8336328210        4.6954557109        7.7457090256
 Ga         4.8544917357        2.8385063643        8.3924555632
  N         4.8561189067        2.8395092703       10.3804296452
 Ga         4.8294210183        4.6981868627       11.0242908018
  N         4.8120387947        4.7089050698       13.0133116085
 Ga         4.8532714189        2.8391832654       13.5752096687
  N         4.8237072695        2.8227665869       15.5303365812
 Ga         5.0143740856        4.5887244477       16.4407126930
  N         6.4565493323        3.7572277967       17.5689113343
  N         3.2355160982        7.5949553134        2.4736956983
 Ga         3.2243722159        5.6114289624        2.8088783455
  N         3.2338039677        5.6158070950        4.9647175193
 Ga         3.2354441931        7.4449131410        5.7530436374
  N         3.2358872687        7.4630048707        7.7455005610
 Ga         3.2356909970        5.6179800098        8.4009590021
  N         3.2362682905        5.6186350693       10.3700727692
 Ga         3.2359840900        7.4583331085       11.0254057798
  N         3.2361043652        7.4389978033       13.0155193547
 Ga         3.2365058324        5.6189681131       13.8246437540
  N         3.2358320391        5.6143812503       16.0195501157
 Ga         3.2342400870        7.6601235694       16.4422755369
 Ga         3.2358517980        9.3321190108        1.4386090542
  N         1.7334506832       10.1990700326        2.4744006365
 Ga         1.5279547518        8.3447645661        3.2399958657
  N         1.6261532562        8.4023697672        5.2006448590
 Ga         1.6032090543       10.2738616392        5.7550800015
  N         1.6182330575       10.2654902542        7.7467040956
 Ga         1.6379068504        8.4091432287        8.3923077840
  N         1.6399716424        8.4102940842       10.3804645490
 Ga         1.6133593222       10.2686121317       11.0259263757
  N         1.5961455026       10.2789740888       13.0155960645
 Ga         1.6388790823        8.4106868897       13.5791921236
  N         1.6129412894        8.3975126556       15.5381646142
 Ga         1.7911285271       10.1657267855       16.4429676831
  N         3.2406080472        9.3280713218       17.5830648457
  N         9.6744695823        1.9067516878        2.5580121254
 Ga         9.6687721275        0.1635248223        3.2405409321
  N         9.6678465987        0.0489327514        5.2011947731
 Ga         9.6695795403        1.9047839992        5.8320512875
  N         9.6678415227        1.9038239656        7.8009052292
 Ga         9.6680223753        0.0359319120        8.3919462101
  N         9.6682370367        0.0338945093       10.3802614348
 Ga         9.6683660007        1.9036870178       10.9785481970
  N         9.6677552798        1.9027641732       12.9458938471
 Ga         9.6677240996        0.0345579375       13.5796537975
  N         9.6661323429        0.0637817089       15.5388233020
 Ga         9.6685709381        1.9035990653       15.8131336718
  N         7.9573132745        4.6294039905        2.4752405491
 Ga         8.1618168346        2.7748049833        3.2400847064
  N         8.0619435725        2.8311137637        5.2009948675
 Ga         8.0864459904        4.7034698290        5.7534303207
  N         8.0703804713        4.6951072585        7.7457755845
 Ga         8.0503139879        2.8382324959        8.3921529611
  N         8.0488661406        2.8389753272       10.3807751496
 Ga         8.0747326653        4.6981401549       11.0238094558
  N         8.0919331508        4.7087859503       13.0130459389
 Ga         8.0493721782        2.8394827450       13.5759926068
  N         8.0791672204        2.8203157471       15.5329607984
 Ga         7.8933494307        4.5925362967       16.4389953557
  N         6.4527227308        7.4749418325        2.5564227848
 Ga         6.4530993382        5.7329905952        3.2405324969
  N         6.4523565663        5.6187145715        5.2012990151
 Ga         6.4525143787        7.4745548743        5.8304537601
  N         6.4521545209        7.4748450899        7.7994064244
 Ga         6.4521391682        5.6063191907        8.3912306908
  N         6.4520540321        5.6051952954       10.3795641332
 Ga         6.4517967800        7.4752039728       10.9788871277
  N         6.4505796792        7.4757439929       12.9456429715
 Ga         6.4517642630        5.6066454715       13.5761039497
  N         6.4496930637        5.6402222629       15.5327487275
 Ga         6.4498003521        7.4757949639       15.8190194853
  N         4.7409239930       10.2016782033        2.4732412732
 Ga         4.9436784504        8.3459034583        3.2390706112
  N         4.8453394378        8.4024125068        5.2003913265
 Ga         4.8691331365       10.2749414216        5.7532144939
  N         4.8544963776       10.2659464250        7.7456474738
 Ga         4.8341179153        8.4087575845        8.3916248950
  N         4.8323802234        8.4099482275       10.3798542707
 Ga         4.8581466323       10.2682330137       11.0251758664
  N         4.8753084598       10.2783551293       13.0152155744
 Ga         4.8327916500        8.4100802677       13.5798887705
  N         4.8569741135        8.3960226726       15.5405299879
 Ga         4.6820597750       10.1683274303       16.4427230581
  O        -0.2704992739        3.9146328505       -0.7740316482
  H        -0.2064314304        4.7305394878       -1.2990319706
  C         0.0003653298        2.7413244332       -1.5978169391
  H         0.8806690196        2.8876093033       -2.2311492853
  H         0.1956419122        1.9319660211       -0.8832793564
  H        -0.8767353128        2.4760670454       -2.2016980656
     206
 i =        3, E =     -8480.5450274559
  N         0.0178038824        2.0554623274        2.4058266217
 Ga         0.0198599794        0.0681904098        2.8064265947
  N         0.0202041651        0.0545092380        4.9582534285
 Ga         0.0209336979        1.8799300833        5.7573722164
  N         0.0201582642        1.8926765308        7.7475713094
 Ga         0.0197853825        0.0475127648        8.4018757819
  N         0.0194044158        0.0466828469       10.3695121550
 Ga         0.0195360182        1.8872491176       11.0241002098
  N         0.0192630280        1.8676924629       13.0105621470
 Ga         0.0202118528        0.0491601783       13.8268104984
  N         0.0220973492        0.0488766493       16.0185926691
 Ga         0.0208116804        2.0921127847       16.4375039572
 Ga        -0.0022131079        3.8134701200        1.4289514339
  N        -1.4724629792        4.6342856056        2.4641560584
 Ga        -1.6764291184        2.7847516669        3.2357141217
  N        -1.5886103361        2.8301238202        5.1977469238
 Ga        -1.6113190709        4.7011571238        5.7558877058
  N        -1.5984456352        4.6952064367        7.7467064658
 Ga        -1.5789727654        2.8385083970        8.3924765234
  N        -1.5774199437        2.8391984713       10.3793195838
 Ga        -1.6032000503        4.6985300180       11.0236106162
  N        -1.6209023193        4.7085925677       13.0099344139
 Ga        -1.5780319417        2.8397960533       13.5730372133
  N        -1.6020549691        2.8254133134       15.5289415394
 Ga        -1.4230041115        4.5951142807       16.4363493967
  N         0.0256913430        3.7588849624       17.5853017543
  N        -3.1949379509        7.5965014502        2.4738787977
 Ga        -3.1854426480        5.6133079562        2.8129910728
  N        -3.1935248691        5.6161137520        4.9650245888
 Ga        -3.1955053741        7.4452673798        5.7524655545
  N        -3.1958619282        7.4633381764        7.7436650746
 Ga        -3.1962497969        5.6180571876        8.4001000519
  N        -3.1967621949        5.6182902790       10.3675518316
 Ga        -3.1964831036        7.4573321525       11.0263646505
  N        -3.1972331852        7.4379139564       13.0139641184
 Ga        -3.1956777086        5.6178506808       13.8288327027
  N        -3.1953488479        5.6183137602       16.0145778641
 Ga        -3.1953649006        7.6678004404       16.4366531198
 Ga        -3.1951927081        9.3328934205        1.4394885430
  N        -4.7006850546       10.2029506246        2.4733604026
 Ga        -4.9038553812        8.3465515720        3.2383596081
  N        -4.8053750016        8.4027105339        5.1987904333
 Ga        -4.8288091616       10.2755049511        5.7511507362
  N        -4.8148928347       10.2661133695        7.7429668634
 Ga        -4.7941537284        8.4089239746        8.3921209280
  N        -4.7929001298        8.4097115235       10.3789125911
 Ga        -4.8191102292       10.2683500204       11.0261030315