 DBCSR| Multiplication driver                                               BLAS
 DBCSR| Multrec recursion limit                                              512
 DBCSR| Multiplication stack size                                           1000
 DBCSR| Maximum elements for images                                    UNLIMITED
 DBCSR| Multiplicative factor virtual images                                   1
 DBCSR| Multiplication size stacks                                             3
 DBCSR| Number of 3D layers                                               SINGLE
 DBCSR| Use MPI memory allocation                                              T
 DBCSR| Use RMA algorithm                                                      F
 DBCSR| Use Communication thread                                               T
 DBCSR| Communication thread load                                             87


  **** **** ******  **  PROGRAM STARTED AT               2019-07-21 15:16:17.942
 ***** ** ***  *** **   PROGRAM STARTED ON        blg8452.int.ets1.calculquebec.
 **    ****   ******    PROGRAM STARTED BY                                   rzk
 ***** **    ** ** **   PROGRAM PROCESS ID                                135037
  **** **  *******  **  PROGRAM STARTED IN /lustre04/scratch/rzk/rzk/GaN-carbene
                                           /443-adatoms-both-2x2/13-H2OCH2/01-St
                                           art090202

 CP2K| version string:                    CP2K version 7.0 (Development Version)
 CP2K| source code revision number:                                    svn:18619
 CP2K| cp2kflags: libint fftw3 libxc parallel mpi3 scalapack mkl                
 CP2K| is freely available from                            https://www.cp2k.org/
 CP2K| Program compiled at                          Sun Apr  7 00:48:11 EDT 2019
 CP2K| Program compiled on                      beluga2.int.ets1.calculquebec.ca
 CP2K| Program compiled for                    Beluga-Linux-x86-64-intel-openmpi
 CP2K| Data directory path    /home/rzk/projects/def-rzk/group/cp2k/cp2k-mcgill/
 CP2K| Input file name                                             restart-1.inp
 
 GLOBAL| Force Environment number                                              1
 GLOBAL| Basis set file name                                        BASIS_MOLOPT
 GLOBAL| Potential file name                                      GTH_POTENTIALS
 GLOBAL| MM Potential file name                                     MM_POTENTIAL
 GLOBAL| Coordinate file name                                      __STD_INPUT__
 GLOBAL| Method name                                                        CP2K
 GLOBAL| Project name                                                       TEST
 GLOBAL| Preferred FFT library                                             FFTW3
 GLOBAL| Preferred diagonalization lib.                                       SL
 GLOBAL| Run type                                                        GEO_OPT
 GLOBAL| All-to-all communication in single precision                          F
 GLOBAL| FFTs using library dependent lengths                                  F
 GLOBAL| Global print level                                               MEDIUM
 GLOBAL| MPI I/O enabled                                                       T
 GLOBAL| Total number of message passing processes                            80
 GLOBAL| Number of threads for this process                                    1
 GLOBAL| This output is from process                                           0
 GLOBAL| CPU model name :  Intel(R) Xeon(R) Gold 6148 CPU @ 2.40GHz

 MEMORY| system memory details [Kb]
 MEMORY|                        rank 0           min           max       average
 MEMORY| MemTotal             97523924      97523924      97523924      97523924
 MEMORY| MemFree              80052128      80046176      85557272      82766175
 MEMORY| Buffers                     0             0             0             0
 MEMORY| Cached                1486716       1273192       1486716       1379964
 MEMORY| Slab                  4265844       2096744       4265844       3181294
 MEMORY| SReclaimable          2173240        360456       2173240       1266848
 MEMORY| MemLikelyFree        83712084      83706132      87190920      85412988


 *** Fundamental physical constants (SI units) ***

 *** Literature: B. J. Mohr and B. N. Taylor,
 ***             CODATA recommended values of the fundamental physical
 ***             constants: 2006, Web Version 5.1
 ***             http://physics.nist.gov/constants

 Speed of light in vacuum [m/s]                             2.99792458000000E+08
 Magnetic constant or permeability of vacuum [N/A**2]       1.25663706143592E-06
 Electric constant or permittivity of vacuum [F/m]          8.85418781762039E-12
 Planck constant (h) [J*s]                                  6.62606896000000E-34
 Planck constant (h-bar) [J*s]                              1.05457162825177E-34
 Elementary charge [C]                                      1.60217648700000E-19
 Electron mass [kg]                                         9.10938215000000E-31
 Electron g factor [ ]                                     -2.00231930436220E+00
 Proton mass [kg]                                           1.67262163700000E-27
 Fine-structure constant                                    7.29735253760000E-03
 Rydberg constant [1/m]                                     1.09737315685270E+07
 Avogadro constant [1/mol]                                  6.02214179000000E+23
 Boltzmann constant [J/K]                                   1.38065040000000E-23
 Atomic mass unit [kg]                                      1.66053878200000E-27
 Bohr radius [m]                                            5.29177208590000E-11

 *** Conversion factors ***

 [u] -> [a.u.]                                              1.82288848426455E+03
 [Angstrom] -> [Bohr] = [a.u.]                              1.88972613288564E+00
 [a.u.] = [Bohr] -> [Angstrom]                              5.29177208590000E-01
 [a.u.] -> [s]                                              2.41888432650478E-17
 [a.u.] -> [fs]                                             2.41888432650478E-02
 [a.u.] -> [J]                                              4.35974393937059E-18
 [a.u.] -> [N]                                              8.23872205491840E-08
 [a.u.] -> [K]                                              3.15774647902944E+05
 [a.u.] -> [kJ/mol]                                         2.62549961709828E+03
 [a.u.] -> [kcal/mol]                                       6.27509468713739E+02
 [a.u.] -> [Pa]                                             2.94210107994716E+13
 [a.u.] -> [bar]                                            2.94210107994716E+08
 [a.u.] -> [atm]                                            2.90362800883016E+08
 [a.u.] -> [eV]                                             2.72113838565563E+01
 [a.u.] -> [Hz]                                             6.57968392072181E+15
 [a.u.] -> [1/cm] (wave numbers)                            2.19474631370540E+05
 [a.u./Bohr**2] -> [1/cm]                                   5.14048714338585E+03
 

 CELL_TOP| Volume [angstrom^3]:                                         4586.323
 CELL_TOP| Vector a [angstrom    12.864     0.000     0.000    |a| =      12.864
 CELL_TOP| Vector b [angstrom    -6.432    11.141     0.000    |b| =      12.864
 CELL_TOP| Vector c [angstrom     0.000     0.000    32.000    |c| =      32.000
 CELL_TOP| Angle (b,c), alpha [degree]:                                   90.000
 CELL_TOP| Angle (a,c), beta  [degree]:                                   90.000
 CELL_TOP| Angle (a,b), gamma [degree]:                                  120.000
 CELL_TOP| Numerically orthorhombic:                                          NO
 
 GENERATE|  Preliminary Number of Bonds generated:                             0
 GENERATE|  Achieved consistency in connectivity generation.

 CELL| Volume [angstrom^3]:                                             4586.323
 CELL| Vector a [angstrom]:      12.864     0.000     0.000    |a| =      12.864
 CELL| Vector b [angstrom]:      -6.432    11.141     0.000    |b| =      12.864
 CELL| Vector c [angstrom]:       0.000     0.000    32.000    |c| =      32.000
 CELL| Angle (b,c), alpha [degree]:                                       90.000
 CELL| Angle (a,c), beta  [degree]:                                       90.000
 CELL| Angle (a,b), gamma [degree]:                                      120.000
 CELL| Numerically orthorhombic:                                              NO

 CELL_REF| Volume [angstrom^3]:                                         4670.759
 CELL_REF| Vector a [angstrom    12.982     0.000     0.000    |a| =      12.982
 CELL_REF| Vector b [angstrom    -6.491    11.243     0.000    |b| =      12.982
 CELL_REF| Vector c [angstrom     0.000     0.000    32.000    |c| =      32.000
 CELL_REF| Angle (b,c), alpha [degree]:                                   90.000
 CELL_REF| Angle (a,c), beta  [degree]:                                   90.000
 CELL_REF| Angle (a,b), gamma [degree]:                                  120.000
 CELL_REF| Numerically orthorhombic:                                          NO

 *******************************************************************************
 *******************************************************************************
 **                                                                           **
 **     #####                         ##              ##                      **
 **    ##   ##            ##          ##              ##                      **
 **   ##     ##                       ##            ######                    **
 **   ##     ##  ##   ##  ##   #####  ##  ##   ####   ##    #####    #####    **
 **   ##     ##  ##   ##  ##  ##      ## ##   ##      ##   ##   ##  ##   ##   **
 **   ##  ## ##  ##   ##  ##  ##      ####     ###    ##   ######   ######    **
 **    ##  ###   ##   ##  ##  ##      ## ##      ##   ##   ##       ##        **
 **     #######   #####   ##   #####  ##  ##  ####    ##    #####   ##        **
 **           ##                                                    ##        **
 **                                                                           **
 **                                                ... make the atoms dance   **
 **                                                                           **
 **            Copyright (C) by CP2K developers group (2000 - 2018)           **
 **                                                                           **
 *******************************************************************************

 DFT| Spin unrestricted (spin-polarized) Kohn-Sham calculation               UKS
 DFT| Multiplicity                                                             1
 DFT| Number of spin states                                                    2
 DFT| Charge                                                                   0
 DFT| Self-interaction correction (SIC)                                       NO
 DFT| Cutoffs: density                                              1.000000E-10
 DFT|          gradient                                             1.000000E-10
 DFT|          tau                                                  1.000000E-10
 DFT|          cutoff_smoothing_range                               0.000000E+00
 DFT| XC density smoothing                                                  NONE
 DFT| XC derivatives                                                          PW
 FUNCTIONAL| ROUTINE=NEW
 FUNCTIONAL| PBE:
 FUNCTIONAL| J.P.Perdew, K.Burke, M.Ernzerhof, Phys. Rev. Letter, vol. 77, n 18,
 FUNCTIONAL|  pp. 3865-3868, (1996){spin polarized}                             
 vdW POTENTIAL|                                                   Pair Potential
 vdW POTENTIAL|          DFT-D3 (Version 3.1)
 vdW POTENTIAL|          Potential Form: S. Grimme et al, JCP 132: 154104 (2010)
 vdW POTENTIAL|          Zero Damping
 vdW POTENTIAL|          Cutoff Radius [Bohr]:                             18.90
 vdW POTENTIAL|          s6 Scaling Factor:                               1.0000
 vdW POTENTIAL|          sr6 Scaling Factor:                              1.2170
 vdW POTENTIAL|          s8 Scaling Factor:                               0.7220
 vdW POTENTIAL|          Cutoff for CN calculation:                   0.1000E-05

 QS| Method:                                                                 GPW
 QS| Density plane wave grid type                        NON-SPHERICAL FULLSPACE
 QS| Number of grid levels:                                                    5
 QS| Density cutoff [a.u.]:                                                600.0
 QS| Multi grid cutoff [a.u.]: 1) grid level                               600.0
 QS|                           2) grid level                               200.0
 QS|                           3) grid level                                66.7
 QS|                           4) grid level                                22.2
 QS|                           5) grid level                                 7.4
 QS| Grid level progression factor:                                          3.0
 QS| Relative density cutoff [a.u.]:                                        20.0
 QS| Consistent realspace mapping and integration 
 QS| Interaction thresholds: eps_pgf_orb:                                1.0E-07
 QS|                         eps_filter_matrix:                          0.0E+00
 QS|                         eps_core_charge:                            1.0E-16
 QS|                         eps_rho_gspace:                             1.0E-14
 QS|                         eps_rho_rspace:                             1.0E-14
 QS|                         eps_gvg_rspace:                             1.0E-07
 QS|                         eps_ppl:                                    1.0E-02
 QS|                         eps_ppnl:                                   1.0E-09


 ATOMIC KIND INFORMATION

  1. Atomic kind: N                                     Number of atoms:     100

     Orbital Basis Set                                        DZVP-MOLOPT-SR-GTH

       Number of orbital shell sets:                                           1
       Number of orbital shells:                                               5
       Number of primitive Cartesian functions:                                5
       Number of Cartesian basis functions:                                   14
       Number of spherical basis functions:                                   13
       Norm type:                                                              2

       Normalised Cartesian orbitals:

                        Set   Shell   Orbital            Exponent    Coefficient

                          1       1    2s                7.341988       0.360561
                                                         2.542637       0.139177
                                                         0.888575      -0.289383
                                                         0.333802      -0.182244
                                                         0.112012      -0.019197

                          1       2    3s                7.341988       0.282000
                                                         2.542637       0.177875
                                                         0.888575      -0.278381
                                                         0.333802       0.008577
                                                         0.112012       0.154176

                          1       3    3px               7.341988      -1.188719
                                                         2.542637      -0.973969
                                                         0.888575      -0.501079
                                                         0.333802      -0.144894
                                                         0.112012      -0.013986
                          1       3    3py               7.341988      -1.188719
                                                         2.542637      -0.973969
                                                         0.888575      -0.501079
                                                         0.333802      -0.144894
                                                         0.112012      -0.013986
                          1       3    3pz               7.341988      -1.188719
                                                         2.542637      -0.973969
                                                         0.888575      -0.501079
                                                         0.333802      -0.144894
                                                         0.112012      -0.013986

                          1       4    4px               7.341988      -0.094798
                                                         2.542637       0.050069
                                                         0.888575      -0.114797
                                                         0.333802       0.144793
                                                         0.112012       0.066710
                          1       4    4py               7.341988      -0.094798
                                                         2.542637       0.050069
                                                         0.888575      -0.114797
                                                         0.333802       0.144793
                                                         0.112012       0.066710
                          1       4    4pz               7.341988      -0.094798
                                                         2.542637       0.050069
                                                         0.888575      -0.114797
                                                         0.333802       0.144793
                                                         0.112012       0.066710

                          1       5    4dx2              7.341988       1.354688
                                                         2.542637       0.690378
                                                         0.888575       0.855359
                                                         0.333802       0.091746
                                                         0.112012       0.001253
                          1       5    4dxy              7.341988       2.346389
                                                         2.542637       1.195770
                                                         0.888575       1.481524
                                                         0.333802       0.158910
                                                         0.112012       0.002169
                          1       5    4dxz              7.341988       2.346389
                                                         2.542637       1.195770
                                                         0.888575       1.481524
                                                         0.333802       0.158910
                                                         0.112012       0.002169
                          1       5    4dy2              7.341988       1.354688
                                                         2.542637       0.690378
                                                         0.888575       0.855359
                                                         0.333802       0.091746
                                                         0.112012       0.001253
                          1       5    4dyz              7.341988       2.346389
                                                         2.542637       1.195770
                                                         0.888575       1.481524
                                                         0.333802       0.158910
                                                         0.112012       0.002169
                          1       5    4dz2              7.341988       1.354688
                                                         2.542637       0.690378
                                                         0.888575       0.855359
                                                         0.333802       0.091746
                                                         0.112012       0.001253

     GTH Potential information for                                    GTH-PBE-q5

       Description:                       Goedecker-Teter-Hutter pseudopotential
                                           Goedecker et al., PRB 54, 1703 (1996)
                                          Hartwigsen et al., PRB 58, 3641 (1998)
                                                      Krack, TCA 114, 145 (2005)

       Gaussian exponent of the core charge distribution:               6.208322
       Electronic configuration (s p d ...):                               2   3

       Parameters of the local part of the GTH pseudopotential:

                          rloc        C1          C2          C3          C4
                        0.283791  -12.415226    1.868096

       Parameters of the non-local part of the GTH pseudopotential:

                   l      r(l)      h(i,j,l)

                   0    0.255405   13.630263
                   1    0.245495

  2. Atomic kind: Ga                                    Number of atoms:     100

     Orbital Basis Set                                        DZVP-MOLOPT-SR-GTH

       Number of orbital shell sets:                                           1
       Number of orbital shells:                                               7
       Number of primitive Cartesian functions:                                6
       Number of Cartesian basis functions:                                   30
       Number of spherical basis functions:                                   25
       Norm type:                                                              2

       Normalised Cartesian orbitals:

                        Set   Shell   Orbital            Exponent    Coefficient

                          1       1    2s                7.066654       0.013136
                                                         3.428369      -0.094392
                                                         1.430064       0.265435
                                                         0.571611       0.056465
                                                         0.232197      -0.192187
                                                         0.076562      -0.044987

                          1       2    3s                7.066654      -0.098564
                                                         3.428369       0.010390
                                                         1.430064       0.351249
                                                         0.571611       0.182615
                                                         0.232197      -0.425358
                                                         0.076562       0.190349

                          1       3    3px               7.066654       0.002364
                                                         3.428369       0.019222
                                                         1.430064       0.250132
                                                         0.571611      -0.058486
                                                         0.232197      -0.159451
                                                         0.076562      -0.020696
                          1       3    3py               7.066654       0.002364
                                                         3.428369       0.019222
                                                         1.430064       0.250132
                                                         0.571611      -0.058486
                                                         0.232197      -0.159451
                                                         0.076562      -0.020696
                          1       3    3pz               7.066654       0.002364
                                                         3.428369       0.019222
                                                         1.430064       0.250132
                                                         0.571611      -0.058486
                                                         0.232197      -0.159451
                                                         0.076562      -0.020696

                          1       4    4px               7.066654       0.492448
                                                         3.428369      -0.614736
                                                         1.430064      -0.191654
                                                         0.571611       0.037801
                                                         0.232197       0.302315
                                                         0.076562      -0.071336
                          1       4    4py               7.066654       0.492448
                                                         3.428369      -0.614736
                                                         1.430064      -0.191654
                                                         0.571611       0.037801
                                                         0.232197       0.302315
                                                         0.076562      -0.071336
                          1       4    4pz               7.066654       0.492448
                                                         3.428369      -0.614736
                                                         1.430064      -0.191654
                                                         0.571611       0.037801
                                                         0.232197       0.302315
                                                         0.076562      -0.071336

                          1       5    4dx2              7.066654     -15.264855
                                                         3.428369      -5.345726
                                                         1.430064      -1.022732
                                                         0.571611      -0.123148
                                                         0.232197      -0.006983
                                                         0.076562      -0.000022
                          1       5    4dxy              7.066654     -26.439504
                                                         3.428369      -9.259069
                                                         1.430064      -1.771423
                                                         0.571611      -0.213299
                                                         0.232197      -0.012094
                                                         0.076562      -0.000037
                          1       5    4dxz              7.066654     -26.439504
                                                         3.428369      -9.259069
                                                         1.430064      -1.771423
                                                         0.571611      -0.213299
                                                         0.232197      -0.012094
                                                         0.076562      -0.000037
                          1       5    4dy2              7.066654     -15.264855
                                                         3.428369      -5.345726
                                                         1.430064      -1.022732
                                                         0.571611      -0.123148
                                                         0.232197      -0.006983
                                                         0.076562      -0.000022
                          1       5    4dyz              7.066654     -26.439504
                                                         3.428369      -9.259069
                                                         1.430064      -1.771423
                                                         0.571611      -0.213299
                                                         0.232197      -0.012094
                                                         0.076562      -0.000037
                          1       5    4dz2              7.066654     -15.264855
                                                         3.428369      -5.345726
                                                         1.430064      -1.022732
                                                         0.571611      -0.123148
                                                         0.232197      -0.006983
                                                         0.076562      -0.000022

                          1       6    5dx2              7.066654      -5.739265
                                                         3.428369      -2.129289
                                                         1.430064      -0.700423
                                                         0.571611       0.161606
                                                         0.232197       0.043513
                                                         0.076562       0.011205
                          1       6    5dxy              7.066654      -9.940698
                                                         3.428369      -3.688037
                                                         1.430064      -1.213168
                                                         0.571611       0.279909
                                                         0.232197       0.075368
                                                         0.076562       0.019407
                          1       6    5dxz              7.066654      -9.940698
                                                         3.428369      -3.688037
                                                         1.430064      -1.213168
                                                         0.571611       0.279909
                                                         0.232197       0.075368
                                                         0.076562       0.019407
                          1       6    5dy2              7.066654      -5.739265
                                                         3.428369      -2.129289
                                                         1.430064      -0.700423
                                                         0.571611       0.161606
                                                         0.232197       0.043513
                                                         0.076562       0.011205
                          1       6    5dyz              7.066654      -9.940698
                                                         3.428369      -3.688037
                                                         1.430064      -1.213168
                                                         0.571611       0.279909
                                                         0.232197       0.075368
                                                         0.076562       0.019407
                          1       6    5dz2              7.066654      -5.739265
                                                         3.428369      -2.129289
                                                         1.430064      -0.700423
                                                         0.571611       0.161606
                                                         0.232197       0.043513
                                                         0.076562       0.011205

                          1       7    5fx3              7.066654       0.705879
                                                         3.428369      -0.273976
                                                         1.430064       0.113667
                                                         0.571611       0.132480
                                                         0.232197       0.012437
                                                         0.076562       0.003241
                          1       7    5fx2y             7.066654       1.578393
                                                         3.428369      -0.612629
                                                         1.430064       0.254167
                                                         0.571611       0.296234
                                                         0.232197       0.027811
                                                         0.076562       0.007246
                          1       7    5fx2z             7.066654       1.578393
                                                         3.428369      -0.612629
                                                         1.430064       0.254167
                                                         0.571611       0.296234
                                                         0.232197       0.027811
                                                         0.076562       0.007246
                          1       7    5fxy2             7.066654       1.578393
                                                         3.428369      -0.612629
                                                         1.430064       0.254167
                                                         0.571611       0.296234
                                                         0.232197       0.027811
                                                         0.076562       0.007246
                          1       7    5fxyz             7.066654       2.733856
                                                         3.428369      -1.061105
                                                         1.430064       0.440230
                                                         0.571611       0.513092
                                                         0.232197       0.048170
                                                         0.076562       0.012551
                          1       7    5fxz2             7.066654       1.578393
                                                         3.428369      -0.612629
                                                         1.430064       0.254167
                                                         0.571611       0.296234
                                                         0.232197       0.027811
                                                         0.076562       0.007246
                          1       7    5fy3              7.066654       0.705879
                                                         3.428369      -0.273976
                                                         1.430064       0.113667
                                                         0.571611       0.132480
                                                         0.232197       0.012437
                                                         0.076562       0.003241
                          1       7    5fy2z             7.066654       1.578393
                                                         3.428369      -0.612629
                                                         1.430064       0.254167
                                                         0.571611       0.296234
                                                         0.232197       0.027811
                                                         0.076562       0.007246
                          1       7    5fyz2             7.066654       1.578393
                                                         3.428369      -0.612629
                                                         1.430064       0.254167
                                                         0.571611       0.296234
                                                         0.232197       0.027811
                                                         0.076562       0.007246
                          1       7    5fz3              7.066654       0.705879
                                                         3.428369      -0.273976
                                                         1.430064       0.113667
                                                         0.571611       0.132480
                                                         0.232197       0.012437
                                                         0.076562       0.003241

     GTH Potential information for                                   GTH-PBE-q13

       Description:                       Goedecker-Teter-Hutter pseudopotential
                                           Goedecker et al., PRB 54, 1703 (1996)
                                          Hartwigsen et al., PRB 58, 3641 (1998)
                                                      Krack, TCA 114, 145 (2005)

       Gaussian exponent of the core charge distribution:               2.082466
       Electronic configuration (s p d ...):                           2   1  10

       Parameters of the local part of the GTH pseudopotential:

                          rloc        C1          C2          C3          C4
                        0.490000

       Parameters of the non-local part of the GTH pseudopotential:

                   l      r(l)      h(i,j,l)

                   0    0.416777   10.475690   -4.921768    0.870706
                                   -4.921768    7.770178   -2.248152
                                    0.870706   -2.248152    1.784415
                   1    0.569627    1.777985    0.195860
                                    0.195860   -0.231744
                   2    0.238126  -16.248680

  3. Atomic kind: O                                     Number of atoms:       2

     Orbital Basis Set                                     DZVP-MOLOPT-SR-GTH-q6

       Number of orbital shell sets:                                           1
       Number of orbital shells:                                               5
       Number of primitive Cartesian functions:                                5
       Number of Cartesian basis functions:                                   14
       Number of spherical basis functions:                                   13
       Norm type:                                                              2

       Normalised Cartesian orbitals:

                        Set   Shell   Orbital            Exponent    Coefficient

                          1       1    2s               10.389228       0.396646
                                                         3.849621       0.208811
                                                         1.388401      -0.301641
                                                         0.496955      -0.274061
                                                         0.162492      -0.033677

                          1       2    3s               10.389228       0.303673
                                                         3.849621       0.240943
                                                         1.388401      -0.313066
                                                         0.496955      -0.043055
                                                         0.162492       0.213991

                          1       3    3px              10.389228      -1.530415
                                                         3.849621      -1.371928
                                                         1.388401      -0.761951
                                                         0.496955      -0.253695
                                                         0.162492      -0.035541
                          1       3    3py              10.389228      -1.530415
                                                         3.849621      -1.371928
                                                         1.388401      -0.761951
                                                         0.496955      -0.253695
                                                         0.162492      -0.035541
                          1       3    3pz              10.389228      -1.530415
                                                         3.849621      -1.371928
                                                         1.388401      -0.761951
                                                         0.496955      -0.253695
                                                         0.162492      -0.035541

                          1       4    4px              10.389228      -0.565392
                                                         3.849621      -0.038231
                                                         1.388401      -0.382373
                                                         0.496955       0.179070
                                                         0.162492       0.122714
                          1       4    4py              10.389228      -0.565392
                                                         3.849621      -0.038231
                                                         1.388401      -0.382373
                                                         0.496955       0.179070
                                                         0.162492       0.122714
                          1       4    4pz              10.389228      -0.565392
                                                         3.849621      -0.038231
                                                         1.388401      -0.382373
                                                         0.496955       0.179070
                                                         0.162492       0.122714

                          1       5    4dx2             10.389228       1.867377
                                                         3.849621       0.670994
                                                         1.388401       1.353441
                                                         0.496955       0.273538
                                                         0.162492       0.006620
                          1       5    4dxy             10.389228       3.234392
                                                         3.849621       1.162195
                                                         1.388401       2.344229
                                                         0.496955       0.473781
                                                         0.162492       0.011466
                          1       5    4dxz             10.389228       3.234392
                                                         3.849621       1.162195
                                                         1.388401       2.344229
                                                         0.496955       0.473781
                                                         0.162492       0.011466
                          1       5    4dy2             10.389228       1.867377
                                                         3.849621       0.670994
                                                         1.388401       1.353441
                                                         0.496955       0.273538
                                                         0.162492       0.006620
                          1       5    4dyz             10.389228       3.234392
                                                         3.849621       1.162195
                                                         1.388401       2.344229
                                                         0.496955       0.473781
                                                         0.162492       0.011466
                          1       5    4dz2             10.389228       1.867377
                                                         3.849621       0.670994
                                                         1.388401       1.353441
                                                         0.496955       0.273538
                                                         0.162492       0.006620

     GTH Potential information for                                    GTH-PBE-q6

       Description:                       Goedecker-Teter-Hutter pseudopotential
                                           Goedecker et al., PRB 54, 1703 (1996)
                                          Hartwigsen et al., PRB 58, 3641 (1998)
                                                      Krack, TCA 114, 145 (2005)

       Gaussian exponent of the core charge distribution:               8.360253
       Electronic configuration (s p d ...):                               2   4

       Parameters of the local part of the GTH pseudopotential:

                          rloc        C1          C2          C3          C4
                        0.244554  -16.667215    2.487311

       Parameters of the non-local part of the GTH pseudopotential:

                   l      r(l)      h(i,j,l)

                   0    0.220956   18.337458
                   1    0.211332

  4. Atomic kind: H                                     Number of atoms:       8

     Orbital Basis Set                                     DZVP-MOLOPT-SR-GTH-q1

       Number of orbital shell sets:                                           1
       Number of orbital shells:                                               3
       Number of primitive Cartesian functions:                                5
       Number of Cartesian basis functions:                                    5
       Number of spherical basis functions:                                    5
       Norm type:                                                              2

       Normalised Cartesian orbitals:

                        Set   Shell   Orbital            Exponent    Coefficient

                          1       1    2s               10.068468      -0.133023
                                                         2.680223      -0.177618
                                                         0.791502      -0.258419
                                                         0.239116      -0.107525
                                                         0.082193      -0.014019

                          1       2    3s               10.068468       0.344673
                                                         2.680223       1.819821
                                                         0.791502      -0.999069
                                                         0.239116       0.017430
                                                         0.082193       0.082660

                          1       3    3px              10.068468       0.155326
                                                         2.680223       0.367157
                                                         0.791502       0.311480
                                                         0.239116       0.080105
                                                         0.082193       0.033440
                          1       3    3py              10.068468       0.155326
                                                         2.680223       0.367157
                                                         0.791502       0.311480
                                                         0.239116       0.080105
                                                         0.082193       0.033440
                          1       3    3pz              10.068468       0.155326
                                                         2.680223       0.367157
                                                         0.791502       0.311480
                                                         0.239116       0.080105
                                                         0.082193       0.033440

     GTH Potential information for                                    GTH-PBE-q1

       Description:                       Goedecker-Teter-Hutter pseudopotential
                                           Goedecker et al., PRB 54, 1703 (1996)
                                          Hartwigsen et al., PRB 58, 3641 (1998)
                                                      Krack, TCA 114, 145 (2005)

       Gaussian exponent of the core charge distribution:              12.500000
       Electronic configuration (s p d ...):                                   1

       Parameters of the local part of the GTH pseudopotential:

                          rloc        C1          C2          C3          C4
                        0.200000   -4.178900    0.724463

  5. Atomic kind: C                                     Number of atoms:       2

     Orbital Basis Set                                     DZVP-MOLOPT-SR-GTH-q4

       Number of orbital shell sets:                                           1
       Number of orbital shells:                                               5
       Number of primitive Cartesian functions:                                5
       Number of Cartesian basis functions:                                   14
       Number of spherical basis functions:                                   13
       Norm type:                                                              2

       Normalised Cartesian orbitals:

                        Set   Shell   Orbital            Exponent    Coefficient

                          1       1    2s                5.605331       0.322515
                                                         2.113016       0.213043
                                                         0.769911      -0.209686
                                                         0.348157      -0.219794
                                                         0.128212      -0.022789

                          1       2    3s                5.605331       0.552234
                                                         2.113016       0.082072
                                                         0.769911       0.007843
                                                         0.348157       0.136893
                                                         0.128212       0.074283

                          1       3    3px               5.605331      -0.703879
                                                         2.113016      -0.642521
                                                         0.769911      -0.374851
                                                         0.348157      -0.139743
                                                         0.128212      -0.027849
                          1       3    3py               5.605331      -0.703879
                                                         2.113016      -0.642521
                                                         0.769911      -0.374851
                                                         0.348157      -0.139743
                                                         0.128212      -0.027849
                          1       3    3pz               5.605331      -0.703879
                                                         2.113016      -0.642521
                                                         0.769911      -0.374851
                                                         0.348157      -0.139743
                                                         0.128212      -0.027849

                          1       4    4px               5.605331      -0.480376
                                                         2.113016      -0.552894
                                                         0.769911      -0.316145
                                                         0.348157       0.210505
                                                         0.128212       0.076095
                          1       4    4py               5.605331      -0.480376
                                                         2.113016      -0.552894
                                                         0.769911      -0.316145
                                                         0.348157       0.210505
                                                         0.128212       0.076095
                          1       4    4pz               5.605331      -0.480376
                                                         2.113016      -0.552894
                                                         0.769911      -0.316145
                                                         0.348157       0.210505
                                                         0.128212       0.076095

                          1       5    4dx2              5.605331       0.640026
                                                         2.113016       0.274300
                                                         0.769911       0.446711
                                                         0.348157       0.028674
                                                         0.128212       0.029790
                          1       5    4dxy              5.605331       1.108557
                                                         2.113016       0.475102
                                                         0.769911       0.773726
                                                         0.348157       0.049666
                                                         0.128212       0.051599
                          1       5    4dxz              5.605331       1.108557
                                                         2.113016       0.475102
                                                         0.769911       0.773726
                                                         0.348157       0.049666
                                                         0.128212       0.051599
                          1       5    4dy2              5.605331       0.640026
                                                         2.113016       0.274300
                                                         0.769911       0.446711
                                                         0.348157       0.028674
                                                         0.128212       0.029790
                          1       5    4dyz              5.605331       1.108557
                                                         2.113016       0.475102
                                                         0.769911       0.773726
                                                         0.348157       0.049666
                                                         0.128212       0.051599
                          1       5    4dz2              5.605331       0.640026
                                                         2.113016       0.274300
                                                         0.769911       0.446711
                                                         0.348157       0.028674
                                                         0.128212       0.029790

     GTH Potential information for                                    GTH-PBE-q4

       Description:                       Goedecker-Teter-Hutter pseudopotential
                                           Goedecker et al., PRB 54, 1703 (1996)
                                          Hartwigsen et al., PRB 58, 3641 (1998)
                                                      Krack, TCA 114, 145 (2005)

       Gaussian exponent of the core charge distribution:               4.364419
       Electronic configuration (s p d ...):                               2   2

       Parameters of the local part of the GTH pseudopotential:

                          rloc        C1          C2          C3          C4
                        0.338471   -8.803674    1.339211

       Parameters of the non-local part of the GTH pseudopotential:

                   l      r(l)      h(i,j,l)

                   0    0.302576    9.622487
                   1    0.291507


 MOLECULE KIND INFORMATION


 All atoms are their own molecule, skipping detailed information


 TOTAL NUMBERS AND MAXIMUM NUMBERS

  Total number of            - Atomic kinds:                                   5
                             - Atoms:                                        212
                             - Shell sets:                                   212
                             - Shells:                                      1244
                             - Primitive Cartesian functions:               1160
                             - Cartesian basis functions:                   4496
                             - Spherical basis functions:                   3892

  Maximum angular momentum of- Orbital basis functions:                        3
                             - Local part of the GTH pseudopotential:          2
                             - Non-local part of the GTH pseudopotential:      4


 MODULE QUICKSTEP:  ATOMIC COORDINATES IN angstrom

  Atom  Kind  Element       X           Y           Z          Z(eff)       Mass

       1     1 N    7    0.090282    2.111159    2.551900      5.00      14.0067
       2     2 Ga  31    0.059254    0.103905    2.915394     13.00      69.7230
       3     1 N    7    0.073837    0.125462    5.080211      5.00      14.0067
       4     2 Ga  31    0.067850    1.939890    5.858856     13.00      69.7230
       5     1 N    7    0.075722    1.967198    7.851289      5.00      14.0067
       6     2 Ga  31    0.071887    0.116033    8.488592     13.00      69.7230
       7     1 N    7    0.074428    0.118659   10.466354      5.00      14.0067
       8     2 Ga  31    0.072130    1.957413   11.118907     13.00      69.7230
       9     1 N    7    0.074663    1.939958   13.113620      5.00      14.0067
      10     2 Ga  31    0.076351    0.120215   13.907605     13.00      69.7230
      11     1 N    7    0.075396    0.122195   16.119662      5.00      14.0067
      12     2 Ga  31    0.074957    2.170521   16.534160     13.00      69.7230
      13     2 Ga  31    0.072700    3.846192    1.531791     13.00      69.7230
      14     1 N    7   -1.408209    4.708975    2.546920      5.00      14.0067
      15     2 Ga  31   -1.626613    2.843024    3.333775     13.00      69.7230
      16     1 N    7   -1.527978    2.909061    5.301242      5.00      14.0067
      17     2 Ga  31   -1.575265    4.772916    5.866122     13.00      69.7230
      18     1 N    7   -1.545269    4.767120    7.856412      5.00      14.0067
      19     2 Ga  31   -1.528713    2.907699    8.487294     13.00      69.7230
      20     1 N    7   -1.523771    2.910597   10.482488      5.00      14.0067
      21     2 Ga  31   -1.552820    4.769775   11.120301     13.00      69.7230
      22     1 N    7   -1.566684    4.780088   13.115794      5.00      14.0067
      23     2 Ga  31   -1.523532    2.910459   13.669759     13.00      69.7230
      24     1 N    7   -1.549893    2.891865   15.631751      5.00      14.0067
      25     2 Ga  31   -1.374256    4.669287   16.533947     13.00      69.7230
      26     1 N    7    0.064751    3.832535   17.667832      5.00      14.0067
      27     1 N    7   -3.137877    7.657286    2.559526      5.00      14.0067
      28     2 Ga  31   -3.165398    5.692456    2.904132     13.00      69.7230
      29     1 N    7   -3.138316    5.685291    5.070956      5.00      14.0067
      30     2 Ga  31   -3.151452    7.513368    5.839776     13.00      69.7230
      31     1 N    7   -3.142026    7.536183    7.840217      5.00      14.0067
      32     2 Ga  31   -3.150357    5.689870    8.489093     13.00      69.7230
      33     1 N    7   -3.144541    5.690467   10.466275      5.00      14.0067
      34     2 Ga  31   -3.146755    7.528566   11.119538     13.00      69.7230
      35     1 N    7   -3.142998    7.509930   13.116416      5.00      14.0067
      36     2 Ga  31   -3.144761    5.687962   13.921355     13.00      69.7230
      37     1 N    7   -3.144629    5.687425   16.121814      5.00      14.0067
      38     2 Ga  31   -3.141411    7.717149   16.524329     13.00      69.7230
      39     2 Ga  31   -3.190548    9.358751    1.278966     13.00      69.7230
      40     1 N    7   -4.650993   10.287025    2.556361      5.00      14.0067
      41     2 Ga  31   -4.839468    8.425681    3.287453     13.00      69.7230
      42     1 N    7   -4.749043    8.475804    5.277060      5.00      14.0067
      43     2 Ga  31   -4.784783   10.340043    5.841960     13.00      69.7230
      44     1 N    7   -4.758075   10.337718    7.840877      5.00      14.0067
      45     2 Ga  31   -4.747231    8.476110    8.471803     13.00      69.7230
      46     1 N    7   -4.741035    8.480097   10.473026      5.00      14.0067
      47     2 Ga  31   -4.767019   10.336903   11.116803     13.00      69.7230
      48     1 N    7   -4.780488   10.348842   13.113155      5.00      14.0067
      49     2 Ga  31   -4.739070    8.481490   13.671148     13.00      69.7230
      50     1 N    7   -4.767548    8.470098   15.636296      5.00      14.0067
      51     2 Ga  31   -4.592026   10.242157   16.524800     13.00      69.7230
      52     1 N    7   -3.147193    9.392805   17.654872      5.00      14.0067
      53     1 N    7    3.302553    1.979391    2.641191      5.00      14.0067
      54     2 Ga  31    3.294436    0.105490    3.347539     13.00      69.7230
      55     1 N    7    3.290429    0.134970    5.288327      5.00      14.0067
      56     2 Ga  31    3.299018    1.971817    5.950942     13.00      69.7230
      57     1 N    7    3.290673    1.975084    7.910381      5.00      14.0067
      58     2 Ga  31    3.286305    0.103577    8.494887     13.00      69.7230
      59     1 N    7    3.288621    0.105532   10.485001      5.00      14.0067
      60     2 Ga  31    3.289449    1.974650   11.079701     13.00      69.7230
      61     1 N    7    3.290007    1.973869   13.049911      5.00      14.0067
      62     2 Ga  31    3.290091    0.106181   13.671119     13.00      69.7230
      63     1 N    7    3.290945    0.136744   15.634113      5.00      14.0067
      64     2 Ga  31    3.292182    1.977306   15.910069     13.00      69.7230
      65     1 N    7    1.558982    4.711146    2.608880      5.00      14.0067
      66     2 Ga  31    1.712006    2.883675    3.382650     13.00      69.7230
      67     1 N    7    1.701379    2.894701    5.308267      5.00      14.0067
      68     2 Ga  31    1.711553    4.780230    5.871898     13.00      69.7230
      69     1 N    7    1.686577    4.764085    7.857226      5.00      14.0067
      70     2 Ga  31    1.669594    2.908522    8.498628     13.00      69.7230
      71     1 N    7    1.670914    2.910251   10.487162      5.00      14.0067
      72     2 Ga  31    1.696837    4.770332   11.121816     13.00      69.7230
      73     1 N    7    1.714039    4.779116   13.115023      5.00      14.0067
      74     2 Ga  31    1.672382    2.910467   13.670997     13.00      69.7230
      75     1 N    7    1.700400    2.894339   15.631113      5.00      14.0067
      76     2 Ga  31    1.513648    4.662777   16.534399     13.00      69.7230
      77     1 N    7    0.072318    7.560093    2.749415      5.00      14.0067
      78     2 Ga  31    0.066949    5.730632    3.406861     13.00      69.7230
      79     1 N    7    0.067425    5.707558    5.329930      5.00      14.0067
      80     2 Ga  31    0.070404    7.561320    5.955162     13.00      69.7230
      81     1 N    7    0.071499    7.550162    7.916084      5.00      14.0067
      82     2 Ga  31    0.069199    5.678278    8.497901     13.00      69.7230
      83     1 N    7    0.072578    5.677777   10.488173      5.00      14.0067
      84     2 Ga  31    0.071955    7.547436   11.080336     13.00      69.7230
      85     1 N    7    0.073810    7.548488   13.054013      5.00      14.0067
      86     2 Ga  31    0.074339    5.676420   13.671355     13.00      69.7230
      87     1 N    7    0.077847    5.712510   15.632415      5.00      14.0067
      88     2 Ga  31    0.076729    7.548002   15.909695     13.00      69.7230
      89     1 N    7   -1.628125   10.284171    2.553984      5.00      14.0067
      90     2 Ga  31   -1.542816    8.489400    3.343053     13.00      69.7230
      91     1 N    7   -1.526988    8.472934    5.291966      5.00      14.0067
      92     2 Ga  31   -1.502137   10.350700    5.858827     13.00      69.7230
      93     1 N    7   -1.529915   10.336013    7.850898      5.00      14.0067
      94     2 Ga  31   -1.551838    8.480728    8.495563     13.00      69.7230
      95     1 N    7   -1.547977    8.481124   10.486898      5.00      14.0067
      96     2 Ga  31   -1.520076   10.340564   11.121551     13.00      69.7230
      97     1 N    7   -1.503252   10.350291   13.115829      5.00      14.0067
      98     2 Ga  31   -1.546893    8.482660   13.671839     13.00      69.7230
      99     1 N    7   -1.514350    8.470193   15.636035      5.00      14.0067
     100     2 Ga  31   -1.694419   10.240530   16.525241     13.00      69.7230
     101     1 N    7    6.509996    2.084577    2.559740      5.00      14.0067
     102     2 Ga  31    6.521262    0.117792    2.928361     13.00      69.7230
     103     1 N    7    6.503632    0.118896    5.100237      5.00      14.0067
     104     2 Ga  31    6.511232    1.944984    5.852040     13.00      69.7230
     105     1 N    7    6.501535    1.967928    7.848728      5.00      14.0067
     106     2 Ga  31    6.506028    0.120481    8.492941     13.00      69.7230
     107     1 N    7    6.504058    0.119279   10.469036      5.00      14.0067
     108     2 Ga  31    6.507571    1.959894   11.117406     13.00      69.7230
     109     1 N    7    6.506429    1.940812   13.111799      5.00      14.0067
     110     2 Ga  31    6.503475    0.123405   13.912561     13.00      69.7230
     111     1 N    7    6.503842    0.125312   16.119678      5.00      14.0067
     112     2 Ga  31    6.507905    2.181711   16.545135     13.00      69.7230
     113     2 Ga  31    6.635586    3.800620    1.292967     13.00      69.7230
     114     1 N    7    4.941954    4.677519    2.496199      5.00      14.0067
     115     2 Ga  31    4.922381    2.907718    3.345243     13.00      69.7230
     116     1 N    7    4.883113    2.895801    5.285524      5.00      14.0067
     117     2 Ga  31    4.875755    4.780587    5.847359     13.00      69.7230
     118     1 N    7    4.886997    4.762883    7.844031      5.00      14.0067
     119     2 Ga  31    4.910396    2.912428    8.496166     13.00      69.7230
     120     1 N    7    4.907589    2.910864   10.486138      5.00      14.0067
     121     2 Ga  31    4.884398    4.771696   11.117873     13.00      69.7230
     122     1 N    7    4.867667    4.779454   13.111779      5.00      14.0067
     123     2 Ga  31    4.909273    2.911001   13.670527     13.00      69.7230
     124     1 N    7    4.880101    2.893431   15.629544      5.00      14.0067
     125     2 Ga  31    5.075484    4.660322   16.544789     13.00      69.7230
     126     1 N    7    6.502907    3.831702   17.688930      5.00      14.0067
     127     1 N    7    3.274744    7.659568    2.570722      5.00      14.0067
     128     1 N    7    3.281164    5.689573    5.101221      5.00      14.0067
     129     2 Ga  31    3.294108    7.525893    5.851604     13.00      69.7230
     130     1 N    7    3.286054    7.537631    7.849733      5.00      14.0067
     131     2 Ga  31    3.291450    5.691193    8.493167     13.00      69.7230
     132     1 N    7    3.289359    5.689061   10.468153      5.00      14.0067
     133     2 Ga  31    3.292281    7.529086   11.117025     13.00      69.7230
     134     1 N    7    3.291460    7.508967   13.114726      5.00      14.0067
     135     2 Ga  31    3.292187    5.685057   13.914749     13.00      69.7230
     136     1 N    7    3.292313    5.684726   16.118202      5.00      14.0067
     137     2 Ga  31    3.293573    7.699727   16.504105     13.00      69.7230
     138     2 Ga  31    3.321592    9.429280    1.296804     13.00      69.7230
     139     1 N    7    1.774503   10.279222    2.565823      5.00      14.0067
     140     2 Ga  31    1.691653    8.495885    3.352623     13.00      69.7230
     141     1 N    7    1.665394    8.470462    5.300918      5.00      14.0067
     142     2 Ga  31    1.661350   10.354642    5.852961     13.00      69.7230
     143     1 N    7    1.672575   10.335866    7.852419      5.00      14.0067
     144     2 Ga  31    1.694030    8.484021    8.497420     13.00      69.7230
     145     1 N    7    1.692121    8.481130   10.489308      5.00      14.0067
     146     2 Ga  31    1.666833   10.342484   11.117745     13.00      69.7230
     147     1 N    7    1.649832   10.351414   13.115110      5.00      14.0067
     148     2 Ga  31    1.695329    8.482592   13.665397     13.00      69.7230
     149     1 N    7    1.672290    8.471272   15.636447      5.00      14.0067
     150     2 Ga  31    1.820389   10.256809   16.504781     13.00      69.7230
     151     1 N    7    3.282732    9.395487   17.631649      5.00      14.0067
     152     1 N    7    9.725479    1.978891    2.667590      5.00      14.0067
     153     2 Ga  31    9.720637    0.205634    3.294334     13.00      69.7230
     154     1 N    7    9.719511    0.120875    5.287472      5.00      14.0067
     155     2 Ga  31    9.720319    1.971928    5.908321     13.00      69.7230
     156     1 N    7    9.721868    1.976119    7.892348      5.00      14.0067
     157     2 Ga  31    9.724263    0.109378    8.481982     13.00      69.7230
     158     1 N    7    9.721851    0.106444   10.480235      5.00      14.0067
     159     2 Ga  31    9.720689    1.975938   11.072141     13.00      69.7230
     160     1 N    7    9.722207    1.974398   13.046368      5.00      14.0067
     161     2 Ga  31    9.723821    0.106734   13.663308     13.00      69.7230
     162     1 N    7    9.726907    0.132768   15.631387      5.00      14.0067
     163     2 Ga  31    9.722937    1.977028   15.908806     13.00      69.7230
     164     1 N    7    8.012923    4.693010    2.566057      5.00      14.0067
     165     2 Ga  31    8.196584    2.851687    3.315743     13.00      69.7230
     166     1 N    7    8.111880    2.900694    5.293856      5.00      14.0067
     167     2 Ga  31    8.125148    4.776247    5.822330     13.00      69.7230
     168     1 N    7    8.119547    4.768757    7.832103      5.00      14.0067
     169     2 Ga  31    8.105578    2.913755    8.476414     13.00      69.7230
     170     1 N    7    8.102725    2.911486   10.476057      5.00      14.0067
     171     2 Ga  31    8.126720    4.770084   11.115265     13.00      69.7230
     172     1 N    7    8.145618    4.779894   13.110550      5.00      14.0067
     173     2 Ga  31    8.103943    2.911934   13.669685     13.00      69.7230
     174     1 N    7    8.135473    2.893848   15.627450      5.00      14.0067
     175     2 Ga  31    7.938525    4.659034   16.545932     13.00      69.7230
     176     1 N    7    6.495858    7.545758    2.659687      5.00      14.0067
     177     2 Ga  31    6.475324    5.767881    3.248263     13.00      69.7230
     178     1 N    7    6.492712    5.680889    5.252462      5.00      14.0067
     179     2 Ga  31    6.499750    7.539285    5.877741     13.00      69.7230
     180     1 N    7    6.503693    7.543943    7.872730      5.00      14.0067
     181     2 Ga  31    6.506444    5.681852    8.474430     13.00      69.7230
     182     1 N    7    6.504875    5.678172   10.474310      5.00      14.0067
     183     2 Ga  31    6.505894    7.546488   11.070849     13.00      69.7230
     184     1 N    7    6.506541    7.548109   13.046537      5.00      14.0067
     185     2 Ga  31    6.507280    5.677399   13.669785     13.00      69.7230
     186     1 N    7    6.508318    5.713801   15.627698      5.00      14.0067
     187     2 Ga  31    6.506984    7.546186   15.909187     13.00      69.7230
     188     1 N    7    4.796608   10.281038    2.565273      5.00      14.0067
     189     2 Ga  31    4.967364    8.436063    3.285794     13.00      69.7230
     190     1 N    7    4.892151    8.475223    5.280790      5.00      14.0067
     191     2 Ga  31    4.915186   10.342369    5.834198     13.00      69.7230
     192     1 N    7    4.906662   10.336903    7.841833      5.00      14.0067
     193     2 Ga  31    4.892588    8.479767    8.474955     13.00      69.7230
     194     1 N    7    4.887679    8.480064   10.475773      5.00      14.0067
     195     2 Ga  31    4.912649   10.338939   11.112411     13.00      69.7230
     196     1 N    7    4.930623   10.349762   13.110751      5.00      14.0067
     197     2 Ga  31    4.888449    8.481983   13.663865     13.00      69.7230
     198     1 N    7    4.913154    8.473591   15.632780      5.00      14.0067
     199     2 Ga  31    4.755332   10.250170   16.505257     13.00      69.7230
     200     3 O    8    0.888427    3.713832   -0.291192      6.00      15.9994
     201     4 H    1    1.885332    3.545318   -0.009651      1.00       1.0079
     202     5 C    6    0.441204    2.646690   -1.186502      4.00      12.0107
     203     4 H    1    0.329963    1.699087   -0.641881      1.00       1.0079
     204     4 H    1   -0.524424    2.955605   -1.602293      1.00       1.0079
     205     4 H    1    1.175012    2.544709   -1.994217      1.00       1.0079
     206     2 Ga  31    3.286954    5.720560    2.967341     13.00      69.7230
     207     3 O    8    3.261664    3.172320    0.493732      6.00      15.9994
     208     4 H    1    0.079245    7.542058    1.722959      1.00       1.0079
     209     5 C    6    3.348811    1.884676    1.183238      4.00      12.0107
     210     4 H    1    4.285942    1.401723    0.866971      1.00       1.0079
     211     4 H    1    2.499474    1.300486    0.796280      1.00       1.0079
     212     4 H    1    3.821099    3.832429    0.991163      1.00       1.0079




 SCF PARAMETERS         Density guess:                                    ATOMIC
                        --------------------------------------------------------
                        max_scf:                                              80
                        max_scf_history:                                       0
                        max_diis:                                              4
                        --------------------------------------------------------
                        eps_scf:                                        5.00E-06
                        eps_scf_history:                                0.00E+00
                        eps_diis:                                       1.00E-01
                        eps_eigval:                                     1.00E-05
                        --------------------------------------------------------
                        level_shift [a.u.]:                                 0.00
                        --------------------------------------------------------
                        Outer loop SCF in use 
                        No variables optimised in outer loop
                        eps_scf                                         5.00E-06
                        max_scf                                                4
                        No outer loop optimization
                        step_size                                       5.00E-01

 PW_GRID| Information for grid number                                          1
 PW_GRID| Grid distributed over                                    80 processors
 PW_GRID| Real space group dimensions                                    80    1
 PW_GRID| the grid is blocked:                                                NO
 PW_GRID| Cutoff [a.u.]                                                    600.0
 PW_GRID| spherical cutoff:                                                   NO
 PW_GRID|   Bounds   1           -144     143                Points:         288
 PW_GRID|   Bounds   2           -144     143                Points:         288
 PW_GRID|   Bounds   3           -337     337                Points:         675
 PW_GRID| Volume element (a.u.^3)  0.5630E-03     Volume (a.u.^3)     31519.8467
 PW_GRID| Grid span                                                    FULLSPACE
 PW_GRID|   Distribution                         Average         Max         Min
 PW_GRID|   G-Vectors                           699840.0      699840      699840
 PW_GRID|   G-Rays                                2430.0        2430        2430
 PW_GRID|   Real Space Points                   699840.0      777600      583200

 PW_GRID| Information for grid number                                          2
 PW_GRID| Grid distributed over                                    80 processors
 PW_GRID| Real space group dimensions                                    80    1
 PW_GRID| the grid is blocked:                                                NO
 PW_GRID| Cutoff [a.u.]                                                    200.0
 PW_GRID| spherical cutoff:                                                   NO
 PW_GRID|   Bounds   1            -80      79                Points:         160
 PW_GRID|   Bounds   2            -80      79                Points:         160
 PW_GRID|   Bounds   3           -200     199                Points:         400
 PW_GRID| Volume element (a.u.^3)  0.3078E-02     Volume (a.u.^3)     31519.8467
 PW_GRID| Grid span                                                    FULLSPACE
 PW_GRID|   Distribution                         Average         Max         Min
 PW_GRID|   G-Vectors                           128000.0      128160      127840
 PW_GRID|   G-Rays                                 800.0         801         799
 PW_GRID|   Real Space Points                   128000.0      128000      128000

 PW_GRID| Information for grid number                                          3
 PW_GRID| Grid distributed over                                    80 processors
 PW_GRID| Real space group dimensions                                    80    1
 PW_GRID| the grid is blocked:                                                NO
 PW_GRID| Cutoff [a.u.]                                                     66.7
 PW_GRID| spherical cutoff:                                                   NO
 PW_GRID|   Bounds   1            -48      47                Points:          96
 PW_GRID|   Bounds   2            -48      47                Points:          96
 PW_GRID|   Bounds   3           -112     112                Points:         225
 PW_GRID| Volume element (a.u.^3)  0.1520E-01     Volume (a.u.^3)     31519.8467
 PW_GRID| Grid span                                                    FULLSPACE
 PW_GRID|   Distribution                         Average         Max         Min
 PW_GRID|   G-Vectors                            25920.0       26688       24864
 PW_GRID|   G-Rays                                 270.0         278         259
 PW_GRID|   Real Space Points                    25920.0       43200       21600

 PW_GRID| Information for grid number                                          4
[...]
 flops    13 x    25 x    50         110256445000     100.0%      0.0%      0.0%
 flops    25 x    13 x    50         110550830000     100.0%      0.0%      0.0%
 flops   242 x    64 x   178         141327876096     100.0%      0.0%      0.0%
 flops   242 x    64 x   183         145297760256     100.0%      0.0%      0.0%
 flops   973 x    32 x    50         148780262400     100.0%      0.0%      0.0%
 flops   973 x    50 x    32         148780262400     100.0%      0.0%      0.0%
 flops   242 x    32 x    32         153402073088     100.0%      0.0%      0.0%
 flops    25 x    18 x    13         154121409000     100.0%      0.0%      0.0%
 flops    13 x    18 x    25         154121409000     100.0%      0.0%      0.0%
 flops   242 x    64 x   195         154825482240     100.0%      0.0%      0.0%
 flops   955 x    32 x   178         170414295040     100.0%      0.0%      0.0%
 flops   955 x    32 x   183         175201213440     100.0%      0.0%      0.0%
 flops   991 x    32 x   178         176838289408     100.0%      0.0%      0.0%
 flops   991 x    32 x   183         181805657088     100.0%      0.0%      0.0%
 flops   955 x    32 x   195         186689817600     100.0%      0.0%      0.0%
 flops   991 x    32 x   195         193727339520     100.0%      0.0%      0.0%
 flops     5 x    32 x    25         211963136000     100.0%      0.0%      0.0%
 flops    25 x    32 x     5         211963136000     100.0%      0.0%      0.0%
 flops    25 x    25 x    50         212100000000     100.0%      0.0%      0.0%
 flops   973 x    64 x    50         216407654400     100.0%      0.0%      0.0%
 flops   973 x    50 x    64         216407654400     100.0%      0.0%      0.0%
 flops   242 x    64 x    32         223130288128     100.0%      0.0%      0.0%
 flops   242 x    32 x    64         223130288128     100.0%      0.0%      0.0%
 flops   955 x    64 x   178         247875338240     100.0%      0.0%      0.0%
 flops   955 x    64 x   183         254838128640     100.0%      0.0%      0.0%
 flops   991 x    64 x   178         257219330048     100.0%      0.0%      0.0%
 flops   991 x    64 x   183         264444592128     100.0%      0.0%      0.0%
 flops   224 x    32 x   178         269807763456     100.0%      0.0%      0.0%
 flops   955 x    64 x   195         271548825600     100.0%      0.0%      0.0%
 flops   224 x    32 x   183         277386633216     100.0%      0.0%      0.0%
 flops   991 x    64 x   195         281785221120     100.0%      0.0%      0.0%
 flops    25 x    18 x    25         293175000000     100.0%      0.0%      0.0%
 flops   224 x    32 x   195         295575920640     100.0%      0.0%      0.0%
 flops   242 x    64 x    64         324553146368     100.0%      0.0%      0.0%
 flops   973 x    32 x   178         347252584448     100.0%      0.0%      0.0%
 flops   973 x    32 x   183         357006870528     100.0%      0.0%      0.0%
 flops   973 x    32 x   195         380417157120     100.0%      0.0%      0.0%
 flops   224 x    64 x   178         392447655936     100.0%      0.0%      0.0%
 flops    13 x    13 x    32         393523113984     100.0%      0.0%      0.0%
 flops   224 x    64 x   183         403471466496     100.0%      0.0%      0.0%
 flops   224 x    32 x    32         425976004608     100.0%      0.0%      0.0%
 flops   224 x    64 x   195         429928611840     100.0%      0.0%      0.0%
 flops   973 x    64 x   178         505094668288     100.0%      0.0%      0.0%
 flops   955 x    32 x    32         514018222080     100.0%      0.0%      0.0%
 flops   973 x    64 x   183         519282720768     100.0%      0.0%      0.0%
 flops   991 x    32 x    32         533394825216     100.0%      0.0%      0.0%
 flops   973 x    64 x   195         553334046720     100.0%      0.0%      0.0%
 flops    13 x    13 x    64         572397256704     100.0%      0.0%      0.0%
 flops   224 x    32 x    64         619601461248     100.0%      0.0%      0.0%
 flops   224 x    64 x    32         619601461248     100.0%      0.0%      0.0%
 flops   955 x    32 x    64         747662868480     100.0%      0.0%      0.0%
 flops   955 x    64 x    32         747662868480     100.0%      0.0%      0.0%
 flops   991 x    32 x    64         775847018496     100.0%      0.0%      0.0%
 flops   991 x    64 x    32         775847018496     100.0%      0.0%      0.0%
 flops    13 x    25 x    32         776205372800     100.0%      0.0%      0.0%
 flops    25 x    13 x    32         778277843200     100.0%      0.0%      0.0%
 flops   224 x    64 x    64         901238489088     100.0%      0.0%      0.0%
 flops   973 x    32 x    32        1047413047296     100.0%      0.0%      0.0%
 flops   955 x    64 x    64        1087509626880     100.0%      0.0%      0.0%
 flops   991 x    64 x    64        1128504754176     100.0%      0.0%      0.0%
 flops    13 x    25 x    64        1129025996800     100.0%      0.0%      0.0%
 flops    25 x    13 x    64        1132040499200     100.0%      0.0%      0.0%
 flops    25 x    25 x    32        1493184000000     100.0%      0.0%      0.0%
 flops   973 x    64 x    32        1523509886976     100.0%      0.0%      0.0%
 flops   973 x    32 x    64        1523509886976     100.0%      0.0%      0.0%
 flops    25 x    25 x    64        2171904000000     100.0%      0.0%      0.0%
 flops   973 x    64 x    64        2216014381056     100.0%      0.0%      0.0%
 flops    13 x    32 x    13        3843510594560     100.0%      0.0%      0.0%
 flops    25 x    32 x    13        7671821248000     100.0%      0.0%      0.0%
 flops    13 x    32 x    25        7671821248000     100.0%      0.0%      0.0%
 flops    25 x    32 x    25       14593600000000     100.0%      0.0%      0.0%
 flops inhomo. stacks              25905357354016     100.0%      0.0%      0.0%
 flops total                        96.731146E+12     100.0%      0.0%      0.0%
 flops max/rank                      1.678996E+12     100.0%      0.0%      0.0%
 matmuls inhomo. stacks                   2591680     100.0%      0.0%      0.0%
 matmuls total                         1912466316     100.0%      0.0%      0.0%
 number of processed stacks              34634160     100.0%      0.0%      0.0%
 average stack size                                    55.2       0.0       0.0
 marketing flops                   103.315589E+12
 -------------------------------------------------------------------------------
 # multiplications                           9091
 max memory usage/rank               1.382564E+09
 # max total images/rank                        5
 # max 3D layers                                1
 # MPI messages exchanged                82909920
 MPI messages size (bytes):
  total size                        10.222494E+12
  min size                           0.000000E+00
  max size                           1.894792E+06
  average size                     123.296391E+03
 MPI breakdown and total messages size (bytes):
             size <=      128              588240                        0
       128 < size <=     8192            10881794              89143656448
      8192 < size <=    32768            25079886             511631317824
     32768 < size <=   131072            36484560            2643910982400
    131072 < size <=  4194304             9875440            6979899560288
   4194304 < size <= 16777216                   0                        0
  16777216 < size                               0                        0
 -------------------------------------------------------------------------------

 *** WARNING in dbcsr/mm/dbcsr_mm.F:268 :: Using a non-square number of ***
 *** MPI ranks might lead to poor performance.                          ***
 *** Used ranks: 80                                                     ***
 *** Suggested: 81 169                                                  ***

 -------------------------------------------------------------------------------
 
 MEMORY| Estimated peak process memory [MiB]                                1347

 -------------------------------------------------------------------------------
 ----                             MULTIGRID INFO                            ----
 -------------------------------------------------------------------------------
 count for grid        1:        1102542          cutoff [a.u.]          600.00
 count for grid        2:        4017806          cutoff [a.u.]          200.00
 count for grid        3:        3197630          cutoff [a.u.]           66.67
 count for grid        4:        3686514          cutoff [a.u.]           22.22
 count for grid        5:        2825588          cutoff [a.u.]            7.41
 total gridlevel count  :       14830080

 -------------------------------------------------------------------------------
 -                                                                             -
 -                         MESSAGE PASSING PERFORMANCE                         -
 -                                                                             -
 -------------------------------------------------------------------------------

 ROUTINE             CALLS      AVE VOLUME [Bytes]
 MP_Group              883
 MP_Bcast            14350                  26876.
 MP_Allreduce        85575                    321.
 MP_Sync               415
 MP_Alltoall         50546                5448799.
 MP_SendRecv          5056                   5936.
 MP_ISendRecv       235104                 133520.
 MP_Wait           2027444
 MP_comm_split         410
 MP_ISend          2331776                 116859.
 MP_IRecv          2332488                 116764.
 MP_Recv               285                 162816.
 MP_Memory         1012704
 -------------------------------------------------------------------------------


 -------------------------------------------------------------------------------
 -                                                                             -
 -                           R E F E R E N C E S                               -
 -                                                                             -
 -------------------------------------------------------------------------------
 
 CP2K version 7.0 (Development Version), the CP2K developers group (2018).
 CP2K is freely available from https://www.cp2k.org/ .

 Schuett, Ole; Messmer, Peter; Hutter, Juerg; VandeVondele, Joost. 
 Electronic Structure Calculations on Graphics Processing Units, John Wiley & Sons, Ltd, 173-190 (2016). 
 GPU-Accelerated Sparse Matrix-Matrix Multiplication for Linear Scaling Density Functional Theory.
 http://dx.doi.org/10.1002/9781118670712.ch8


 Borstnik, U; VandeVondele, J; Weber, V; Hutter, J. 
 PARALLEL COMPUTING, 40 (5-6), 47-58 (2014). 
 Sparse matrix multiplication: The distributed block-compressed sparse
 row library.
 http://dx.doi.org/10.1016/j.parco.2014.03.012


 Hutter, J; Iannuzzi, M; Schiffmann, F; VandeVondele, J. 
 WILEY INTERDISCIPLINARY REVIEWS-COMPUTATIONAL MOLECULAR SCIENCE, 4 (1), 15-25 (2014). 
 CP2K: atomistic simulations of condensed matter systems.
 http://dx.doi.org/10.1002/wcms.1159


 Grimme, S; Ehrlich, S; Goerigk, L. 
 JOURNAL OF COMPUTATIONAL CHEMISTRY, 32, 1456 (2011). 
 Effect of the damping function in dispersion corrected density functional theory.
 http://dx.doi.org/10.1002/jcc.21759


 Grimme, S; Antony, J; Ehrlich, S; Krieg, H. 
 JOURNAL OF CHEMICAL PHYSICS, 132 (15), 154104 (2010). 
 A consistent and accurate ab initio parametrization of density
 functional dispersion correction (DFT-D) for the 94 elements H-Pu.
 http://dx.doi.org/10.1063/1.3382344


 VandeVondele, J; Hutter, J. 
 JOURNAL OF CHEMICAL PHYSICS, 127 (11), 114105 (2007). 
 Gaussian basis sets for accurate calculations on molecular systems in
 gas and condensed phases.
 http://dx.doi.org/10.1063/1.2770708


 Krack, M. 
 THEORETICAL CHEMISTRY ACCOUNTS, 114 (1-3), 145-152 (2005). 
 Pseudopotentials for H to Kr optimized for gradient-corrected
 exchange-correlation functionals.
 http://dx.doi.org/10.1007/s00214-005-0655-y


 VandeVondele, J; Krack, M; Mohamed, F; Parrinello, M; Chassaing, T;
 Hutter, J. COMPUTER PHYSICS COMMUNICATIONS, 167 (2), 103-128 (2005). 
 QUICKSTEP: Fast and accurate density functional calculations using a
 mixed Gaussian and plane waves approach.
 http://dx.doi.org/10.1016/j.cpc.2004.12.014


 Frigo, M; Johnson, SG. 
 PROCEEDINGS OF THE IEEE, 93 (2), 216-231 (2005). 
 The design and implementation of FFTW3.
 http://dx.doi.org/10.1109/JPROC.2004.840301


 Kolafa, J. 
 JOURNAL OF COMPUTATIONAL CHEMISTRY, 25 (3), 335-342 (2004). 
 Time-reversible always stable predictor-corrector method for molecular dynamics of polarizable molecules.
 http://dx.doi.org/10.1002/jcc.10385


 VandeVondele, J; Hutter, J. 
 JOURNAL OF CHEMICAL PHYSICS, 118 (10), 4365-4369 (2003). 
 An efficient orbital transformation method for electronic structure
 calculations.
 http://dx.doi.org/10.1063/1.1543154


 Hartwigsen, C; Goedecker, S; Hutter, J. 
 PHYSICAL REVIEW B, 58 (7), 3641-3662 (1998). 
 Relativistic separable dual-space Gaussian pseudopotentials from H to Rn.
 http://dx.doi.org/10.1103/PhysRevB.58.3641


 Lippert, G; Hutter, J; Parrinello, M. 
 MOLECULAR PHYSICS, 92 (3), 477-487 (1997). 
 A hybrid Gaussian and plane wave density functional scheme.
 http://dx.doi.org/10.1080/002689797170220


 Perdew, JP; Burke, K; Ernzerhof, M. 
 PHYSICAL REVIEW LETTERS, 77 (18), 3865-3868 (1996). 
 Generalized gradient approximation made simple.
 http://dx.doi.org/10.1103/PhysRevLett.77.3865


 Goedecker, S; Teter, M; Hutter, J. 
 PHYSICAL REVIEW B, 54 (3), 1703-1710 (1996). 
 Separable dual-space Gaussian pseudopotentials.
 http://dx.doi.org/10.1103/PhysRevB.54.1703


 -------------------------------------------------------------------------------
 -                                                                             -
 -                                T I M I N G                                  -
 -                                                                             -
 -------------------------------------------------------------------------------
 SUBROUTINE                       CALLS  ASD         SELF TIME        TOTAL TIME
                                MAXIMUM       AVERAGE  MAXIMUM  AVERAGE  MAXIMUM
 CP2K                                 1  1.0    0.199    0.243 5084.808 5084.857
 cp_geo_opt                           1  2.0    0.004    0.006 5082.538 5082.564
 geoopt_bfgs                          1  3.0    0.046    0.082 5082.535 5082.563
 cp_eval_at                          17  4.0    0.008    0.019 5073.302 5073.336
 qs_forces                           16  5.0    0.012    0.032 4948.359 4948.368
 qs_energies                         17  5.9    0.016    0.040 4724.535 4724.599
 scf_env_do_scf                      17  6.9    0.007    0.039 4477.289 4477.326
 scf_env_do_scf_inner_loop          303  8.0    0.023    0.038 4053.963 4053.983
 rebuild_ks_matrix                  319  9.8    0.003    0.015 2211.220 2211.898
 qs_ks_build_kohn_sham_matrix       319 10.8    0.114    0.179 2211.217 2211.883
 qs_ks_update_qs_env                321  9.0    0.003    0.003 1900.345 1900.936
 qs_rho_update_rho                  320  9.0    0.003    0.007 1852.206 1853.196
 calculate_rho_elec                 640 10.0  824.239  846.473 1852.202 1853.193
 sum_up_and_integrate               176 11.7    3.090    3.539 1193.640 1194.938
 integrate_v_rspace                 352 12.7  607.685  631.803 1190.549 1192.097
 pw_transfer                      10072 13.3    1.195    1.361 1155.771 1160.827
 fft_wrap_pw1pw2                   9434 14.4    0.126    0.145 1150.061 1154.885
 rs_pw_transfer                    5044 12.9    0.066    0.078 1056.620 1080.354
 fft_wrap_pw1pw2_600               5466 15.6   77.261   87.569 1064.515 1068.062
 fft3d_ps                          9434 16.4  332.887  366.905  969.443  981.548
 density_rs2pw                      640 11.0    0.050    0.065  931.505  957.637
 qs_vxc_create                      319 11.8    0.015    0.036  790.875  791.075
 dbcsr_multiply_generic            9091 13.7    0.624    0.856  665.371  667.057
 mp_waitall_1                   1845460 16.7  589.259  623.044  589.259  623.044
 mp_alltoall_z22v                  9434 18.4  538.712  600.461  538.712  600.461
 qs_scf_new_mos                     303  9.0    0.003    0.013  589.158  589.877
 qs_scf_loop_do_ot                  303 10.0    0.015    0.053  589.155  589.874
 xc_vxc_pw_create                   176 12.7   27.467   32.558  587.962  588.063
 mp_waitany                      181984 14.9  424.495  554.917  424.495  554.917
 ot_scf_mini                        303 11.0    0.052    0.106  536.935  537.526
 multiply_cannon                   9091 14.7    2.872    3.096  509.014  517.778
 rs_pw_transfer_RS2PW_600           674 12.9  178.541  205.169  472.196  494.739
 potential_pw2rs                    352 13.7    0.275    0.320  483.361  485.011
 xc_rho_set_and_dset_create         319 13.8    5.844    6.645  436.262  443.383
 init_scf_loop                       18  7.9    0.006    0.019  422.656  422.671
 x_to_yz                           4105 18.0   54.833   64.189  356.032  379.385
 multiply_cannon_metrocomm3      181820 15.7    0.481    0.549  296.446  349.019
 qs_ks_update_qs_env_forces          16  6.0    0.000    0.000  314.388  314.477
 yz_to_x                           3345 16.8   32.512   35.270  269.478  305.044
 rs_pw_transfer_PW2RS_600           402 15.2  112.887  131.155  259.939  293.625
 ot_mini                            303 12.0    0.004    0.016  276.519  277.077
 prepare_preconditioner              18  8.9    0.000    0.001  225.041  225.115
 make_preconditioner                 36  9.9    0.006    0.016  207.694  207.733
 xc_exc_calc                        143 13.0    0.628    0.784  202.898  203.027
 make_full_all                       36 10.9    0.019    0.051  188.677  188.746
 qs_ot_get_derivative               320 13.0    0.005    0.021  173.421  173.916
 mp_isend_dm3                     16544 14.9   90.512  172.206   90.512  172.206
 cp_fm_syevd                        410 13.9    0.004    0.016  153.583  154.034
 multiply_cannon_metrocomm1      181820 15.7    0.577    0.646  115.974  151.556
 init_scf_run                        17  6.9    0.002    0.003  149.839  149.841
 scf_env_initial_rho_setup           17  7.9    0.003    0.004  149.837  149.839
 mp_alltoall_d11v                 10206 15.2  128.969  149.008  128.969  149.008
 cp_fm_redistribute_end             410 14.9   50.319  148.369   51.176  148.896
 cp_fm_syevd_base                   410 14.5   97.120  144.111   97.120  144.111
 wfi_extrapolate                     17  8.9    0.010    0.033  138.568  138.583
 rs_distribute_matrix              1024 11.9    1.532    3.210  119.093  138.489
 rs_pw_transfer_PW2RS_200           352 15.7   12.991   16.538  101.452  128.509
 qs_ot_get_p                        642 11.9    0.013    0.048  111.937  113.663
 apply_preconditioner_dbcsr         356 14.0    0.001    0.005  111.219  111.740
 apply_all                          356 15.0    0.042    0.068  111.218  111.739
 -------------------------------------------------------------------------------

 The number of warnings for this run is : 1
 
 -------------------------------------------------------------------------------
  **** **** ******  **  PROGRAM ENDED AT                 2019-07-21 16:41:32.552
 ***** ** ***  *** **   PROGRAM RAN ON            blg8452.int.ets1.calculquebec.
 **    ****   ******    PROGRAM RAN BY                                       rzk
 ***** **    ** ** **   PROGRAM PROCESS ID                                135037
  **** **  *******  **  PROGRAM STOPPED IN /lustre04/scratch/rzk/rzk/GaN-carbene
                                           /443-adatoms-both-2x2/13-H2OCH2/01-St
                                           art090202
