     212
 i =        1, E =     -8504.7187905356
  N         0.0934982967        2.1031182714        2.5617041838
 Ga         0.0488001907        0.1351164174        2.9870059097
  N         0.0860435915        0.1323069326        5.0991916023
 Ga         0.0604969153        1.9501195088        5.8795227561
  N         0.0744366555        1.9705163265        7.8582292567
 Ga         0.0655412712        0.1160025195        8.4932692405
  N         0.0712132797        0.1203089277       10.4606888124
 Ga         0.0697262330        1.9583966104       11.1241878225
  N         0.0719552346        1.9401195540       13.1088541082
 Ga         0.0728715680        0.1217684795       13.9269440586
  N         0.0719121193        0.1218159769       16.1097210224
 Ga         0.0709320606        2.1726547530       16.5370076680
 Ga         0.0914719312        3.8299727680        1.4335298314
  N        -1.3979864459        4.6974589020        2.5294335469
 Ga        -1.6114062831        2.8394551281        3.3124685473
  N        -1.5322684385        2.9079372872        5.2876628764
 Ga        -1.5697788234        4.7733496685        5.8544856045
  N        -1.5437455674        4.7696203248        7.8408023500
 Ga        -1.5327795256        2.9114302608        8.4902941811
  N        -1.5246725431        2.9137161572       10.4751982842
 Ga        -1.5516444428        4.7726581920       11.1222820546
  N        -1.5680046473        4.7827470428       13.1081230606
 Ga        -1.5249530230        2.9130138329       13.6702459662
  N        -1.5526892445        2.8997946322       15.6249443478
 Ga        -1.3680110585        4.6689173490       16.5376874237
  N         0.0688944267        3.8346291085       17.6813876721
  N        -3.1334937093        7.6617859264        2.5589797657
 Ga        -3.1310987610        5.6780585494        2.8887596885
  N        -3.1364008625        5.6876110004        5.0485096864
 Ga        -3.1485071720        7.5102878900        5.8388104828
  N        -3.1424189513        7.5377561793        7.8280231609
 Ga        -3.1454438471        5.6916294693        8.4889844065
  N        -3.1434766386        5.6922434072       10.4577878199
 Ga        -3.1452544123        7.5304287553       11.1211360121
  N        -3.1438717997        7.5114913091       13.1073600094
 Ga        -3.1427317812        5.6927387497       13.9278179958
  N        -3.1412998792        5.6935377525       16.1114980364
 Ga        -3.1421283274        7.7420540279       16.5390683946
 Ga        -3.1790620443        9.3795071855        1.3963281531
  N        -4.6416924190       10.3012421578        2.5770795010
 Ga        -4.8457307328        8.4353440739        3.3067980326
  N        -4.7478981334        8.4792076180        5.2771740525
 Ga        -4.7828192058       10.3388242733        5.8701127251
  N        -4.7565308741       10.3389560178        7.8503260066
 Ga        -4.7473158781        8.4759039066        8.4793682322
  N        -4.7409523968        8.4818900719       10.4668850413
 Ga        -4.7707915437       10.3393910837       11.1228686013
  N        -4.7852647348       10.3519762639       13.1080109905
 Ga        -4.7411862024        8.4831789412       13.6712383468
  N        -4.7667025055        8.4664425810       15.6258705269
 Ga        -4.5844989392       10.2364010565       16.5382575156
  N        -3.1459422703        9.4038842155       17.6819884264
  N         3.2832974316        1.9942373159        2.6719979507
 Ga         3.2931580010        0.1217239274        3.3975102346
  N         3.2909769690        0.1402803575        5.3193660769
 Ga         3.2872932780        1.9748572348        5.9942762172
  N         3.2894506381        1.9767544286        7.9342553192
 Ga         3.2875367123        0.1027360884        8.5139960689
  N         3.2881882188        0.1077205110       10.4893188113
 Ga         3.2887311558        1.9784995232       11.0875268428
  N         3.2891164732        1.9787037941       13.0488561492
 Ga         3.2884206118        0.1062148096       13.6725602493
  N         3.2904508988        0.1397185265       15.6277400370
 Ga         3.2884156885        1.9786314790       15.9051971890
  N         1.5862485441        4.6920358056        2.5971248539
 Ga         1.6656347242        2.8955055370        3.4080028459
  N         1.7018433942        2.8939875900        5.3317166276
 Ga         1.7030611830        4.7802915313        5.8894289710
  N         1.6868812591        4.7658126267        7.8602592106
 Ga         1.6659245528        2.9133751683        8.5144424272
  N         1.6693580453        2.9134740267       10.4893825721
 Ga         1.6966385521        4.7759497809       11.1234237771
  N         1.7134739029        4.7835292223       13.1080903012
 Ga         1.6673963750        2.9145588931       13.6723765639
  N         1.6969937948        2.8999113248       15.6274074604
 Ga         1.5091524841        4.6683685086       16.5381253062
  N         0.0604120772        7.5467645177        2.6977871926
 Ga         0.0821444509        5.7089506530        3.3779884602
  N         0.0714417860        5.7060560754        5.3065087999
 Ga         0.0924899474        7.5607672136        5.9260239821
  N         0.0785983371        7.5530590331        7.8862322821
 Ga         0.0687103076        5.6854087243        8.4922467973
  N         0.0719599605        5.6804171184       10.4746521200
 Ga         0.0742347179        7.5492831717       11.0770308638
  N         0.0723809317        7.5487341130       13.0394586783
 Ga         0.0726890761        5.6797035277       13.6709010857
  N         0.0724088057        5.7116929822       15.6239954506
 Ga         0.0703818262        7.5481305748       15.9085544365
  N        -1.6424360336       10.2883623690        2.5595238753
 Ga        -1.5215223076        8.4759068312        3.3589115945
  N        -1.5228398538        8.4748521894        5.2899605421
 Ga        -1.4992575374       10.3499715110        5.8796238386
  N        -1.5321935565       10.3364959058        7.8548546087
 Ga        -1.5448528290        8.4770152876        8.4905749136
  N        -1.5463679737        8.4813754336       10.4736571087
 Ga        -1.5171790127       10.3409047295       11.1242684824
  N        -1.5019626325       10.3523364915       13.1090633933
 Ga        -1.5463244083        8.4831675324       13.6712237249
  N        -1.5192492638        8.4678042687       15.6244436605
 Ga        -1.7039493670       10.2339597072       16.5389466644
  N         6.4843081985        2.1021738894        2.5508143879
 Ga         6.5349811149        0.1089282880        2.9599632839
  N         6.4882846549        0.1283471317        5.1064334911
 Ga         6.5187893918        1.9432813690        5.8695124899
  N         6.5036372051        1.9719749316        7.8502142532
 Ga         6.5116475341        0.1178729492        8.4909783110
  N         6.5060008510        0.1201659885       10.4591585382
 Ga         6.5080550789        1.9588481160       11.1234143224
  N         6.5056527688        1.9400697284       13.1097333411
 Ga         6.5046916864        0.1209512588       13.9281058266
  N         6.5052810323        0.1193221653       16.1120404056
 Ga         6.5059574455        2.1651089928       16.5330719437
 Ga         6.5131192898        3.8645950596        1.5191305002
  N         4.9870486716        4.6869652514        2.6113107644
 Ga         4.8936496582        2.8742101883        3.4147048340
  N         4.8770445583        2.8917161281        5.3291626173
 Ga         4.8825877511        4.7844982582        5.8746623524
  N         4.8896736202        4.7644961322        7.8509419559
 Ga         4.9135328246        2.9146929229        8.5115880823
  N         4.9080581296        2.9135849735       10.4878017297
 Ga         4.8830294038        4.7774446094       11.1202601947
  N         4.8644682227        4.7839923273       13.1073340967
 Ga         4.9099310306        2.9148685395       13.6726460777
  N         4.8825038718        2.8991535296       15.6304455394
 Ga         5.0586287742        4.6716408104       16.5337257327
  N         6.5084780503        3.8374093618       17.6626997768
  N         3.3005727438        7.6278339153        2.5470277352
  N         3.2860010144        5.6664113432        5.1145348325
 Ga         3.2879028735        7.5379450115        5.8065196757
  N         3.2875092083        7.5430686980        7.8080142567
 Ga         3.2907128515        5.7032804904        8.4881799310
  N         3.2886442766        5.6943856281       10.4562666397
 Ga         3.2901665174        7.5322443900       11.1202087415
  N         3.2889758518        7.5112748322       13.1071384835
 Ga         3.2882613131        5.6918663950       13.9273135146
  N         3.2865429260        5.6939106186       16.1116873153
 Ga         3.2867162953        7.7388902802       16.5261376484
 Ga         3.4691449120        9.3979119593        1.2033585526
  N         1.7483726571       10.3056627902        2.5722910685
 Ga         1.6859256061        8.5164117973        3.2544304196
  N         1.6681622027        8.4758663588        5.2336856183
 Ga         1.6563167131       10.3434797717        5.8329024695
  N         1.6698790011       10.3317044196        7.8288715354
 Ga         1.6974798961        8.4845116192        8.4853365700
  N         1.6931680101        8.4828787839       10.4704977021
 Ga         1.6680652276       10.3429157987       11.1183804771
  N         1.6484520728       10.3530155725       13.1063909320
 Ga         1.6908987931        8.4834127375       13.6672373831
  N         1.6607577578        8.4664840234       15.6214377685
 Ga         1.8435425310       10.2384023811       16.5264197116
  N         3.2910632208        9.4076425950       17.6569747086
  N         9.7337591192        1.9703069740        2.6333050865
 Ga         9.6897659785        0.1906503869        3.2819068886
  N         9.7137124658        0.1164565701        5.2708350434
 Ga         9.7223882499        1.9669463287        5.9004191802
  N         9.7201873510        1.9765557951        7.8783609688
 Ga         9.7197906890        0.1063466199        8.4707226695
  N         9.7205370428        0.1075119309       10.4632632973
 Ga         9.7212629320        1.9757266363       11.0732482856
  N         9.7204481458        1.9783180711       13.0380915982
 Ga         9.7211714946        0.1094238861       13.6678162390
  N         9.7187331230        0.1442938095       15.6237195463
 Ga         9.7214014177        1.9812888706       15.9094143753
  N         8.0026136574        4.7062606455        2.5701914462
 Ga         8.2234425729        2.8407359508        3.3079627383
  N         8.1097962206        2.9022558422        5.2750772438
 Ga         8.1412537944        4.7750667753        5.8309688923
  N         8.1233624963        4.7683963739        7.8261518552
 Ga         8.1087480010        2.9139291772        8.4865623474
  N         8.1027024372        2.9141577561       10.4731038223
 Ga         8.1273145394        4.7739690360       11.1197287396
  N         8.1452669682        4.7830982727       13.1077917268
 Ga         8.1024248026        2.9134478481       13.6713187880
  N         8.1279032525        2.8987502794       15.6289930232
 Ga         7.9548577376        4.6726788373       16.5332160386
  N         6.5224896179        7.5541923685        2.6102736922
 Ga         6.4994783074        5.8293393310        3.3352901623
  N         6.5052607680        5.6975763321        5.2917118759
 Ga         6.4881678490        7.5661804897        5.8884470663
  N         6.4975871447        7.5551354800        7.8661926705
 Ga         6.5096997209        5.6894197660        8.4750141601
  N         6.5059570715        5.6814719779       10.4644431217
 Ga         6.5038072892        7.5495192579       11.0717502368
  N         6.5048936181        7.5482171721       13.0365452365
 Ga         6.5049145252        5.6799658213       13.6719078756
  N         6.5047056568        5.7100630514       15.6294986929
 Ga         6.5068848153        7.5488420202       15.9105334382
  N         4.8176777405       10.2917639249        2.5459203971
 Ga         4.9904170663        8.4518019761        3.2374167980
  N         4.8900558555        8.4888716345        5.2457631677
 Ga         4.9084183155       10.3450040455        5.8282289170
  N         4.9060189283       10.3357187715        7.8262461208
 Ga         4.8836013811        8.4836545900        8.4759330408
  N         4.8845361217        8.4830514341       10.4649123442
 Ga         4.9092588800       10.3417680535       11.1166116182
  N         4.9290460016       10.3529911357       13.1051887458
 Ga         4.8867160584        8.4837571534       13.6671751540
  N         4.9149216354        8.4649932795       15.6231957466
 Ga         4.7346183442       10.2411670546       16.5258262076
  O         0.7949677805        3.6952551829       -0.2786932727
  H         2.6166287947        3.5324117675        0.1238492943
  C         0.1759325375        2.7413537390       -1.1680170695
  H         0.0312602917        1.7588715797       -0.6871381450
  H        -0.8046336632        3.0770944355       -1.5416408439
  H         0.8395288680        2.6124049260       -2.0338927704
 Ga         3.2732931678        5.6971665014        3.0323043897
  O         3.4180459006        3.0310139036        0.4376882419
  H         0.0148079384        7.5066441891        1.6735110966
  C         3.3012731275        1.7989964492        1.2067615886
  H         4.1571524625        1.1987208185        0.8630678273
  H         2.3481893667        1.3872131287        0.8240906273
  H         4.3198401762        3.4487902951        0.3867728561
     212
 i =        2, E =     -8504.7306486199
  N         0.0951989343        2.1058229673        2.5608029250
 Ga         0.0433992402        0.1257086542        2.9558042323
  N         0.0755653191        0.1294759551        5.0825477417
 Ga         0.0597593788        1.9451863525        5.8786407752
  N         0.0732908054        1.9696901169        7.8569925442
 Ga         0.0661604748        0.1157552072        8.4962272811
  N         0.0714241429        0.1200553105       10.4621683037
 Ga         0.0686327687        1.9583984707       11.1251488160
  N         0.0719024634        1.9404837012       13.1094404152
 Ga         0.0719631233        0.1211132250       13.9278788625
  N         0.0719791741        0.1215857064       16.1093878001
 Ga         0.0707674568        2.1726358787       16.5378351824
 Ga         0.0881540353        3.8316250415        1.4367698411
  N        -1.3975139091        4.6978517078        2.5224902319
 Ga        -1.6155317705        2.8435602583        3.3114176465
  N        -1.5299509799        2.9075849408        5.2857883947
 Ga        -1.5692738600        4.7733251725        5.8549937763
  N        -1.5440000320        4.7699838744        7.8400823223
 Ga        -1.5333318893        2.9121079540        8.4916272953
  N        -1.5253883712        2.9138227647       10.4752219557
 Ga        -1.5527067744        4.7727936593       11.1218115757
  N        -1.5679106889        4.7826405467       13.1067691585
 Ga        -1.5258019373        2.9132058107       13.6706674881
  N        -1.5540733148        2.9010120172       15.6247933251
 Ga        -1.3653863007        4.6676761778       16.5389971613
  N         0.0705163074        3.8321491359       17.6825603679
  N        -3.1316932905        7.6620322865        2.5588551619
 Ga        -3.1356653823        5.6799959732        2.8932786992
  N        -3.1358005850        5.6875472081        5.0513185222
 Ga        -3.1487760968        7.5105353550        5.8406676312
  N        -3.1422934853        7.5372260964        7.8286860989
 Ga        -3.1457472143        5.6916778343        8.4900252628
  N        -3.1440942124        5.6922368632       10.4574240235
 Ga        -3.1450769153        7.5300236704       11.1205357202
  N        -3.1437411083        7.5116588817       13.1058452430
 Ga        -3.1419453530        5.6933019660       13.9276766738
  N        -3.1409093183        5.6939641821       16.1132980370
 Ga        -3.1418095535        7.7451079731       16.5399425408
 Ga        -3.1819213582        9.3697487195        1.3692112777
  N        -4.6422678177       10.2993774626        2.5701649770
 Ga        -4.8394695695        8.4332563816        3.3046173829
  N        -4.7478713162        8.4806760525        5.2757463059
 Ga        -4.7881858061       10.3416849044        5.8654832841
  N        -4.7578426912       10.3388382987        7.8462445875
 Ga        -4.7450175370        8.4768689839        8.4822499502
  N        -4.7404736877        8.4817539444       10.4679979047
 Ga        -4.7706275496       10.3386975011       11.1237818219
  N        -4.7848300028       10.3518464103       13.1085014040
 Ga        -4.7412575548        8.4824003215       13.6714500569
  N        -4.7665125390        8.4645031157       15.6256194973
 Ga        -4.5843664014       10.2361679075       16.5386548271
  N        -3.1475370002        9.4062540747       17.6835385666
  N         3.2941849022        1.9839879529        2.6526425238
 Ga         3.2897016181        0.1034768970        3.4006848165
  N         3.2914731208        0.1417669791        5.3186992469
 Ga         3.2869981180        1.9768898409        5.9944522342
  N         3.2892101518        1.9766595742        7.9342986849
 Ga         3.2868364366        0.1011226703        8.5152987708
  N         3.2885009365        0.1069883059       10.4899919781
 Ga         3.2893823785        1.9783021378       11.0881847465
  N         3.2896694932        1.9788092391       13.0486088746
 Ga         3.2888721663        0.1065780502       13.6733180617
  N         3.2914477657        0.1405178813       15.6279702248
 Ga         3.2870165015        1.9779848032       15.9096002460
  N         1.5880230489        4.6924905656        2.5891311010
 Ga         1.6723073733        2.8966095028        3.4038018215
  N         1.6996889524        2.8936153296        5.3242623098
 Ga         1.7086265732        4.7817951934        5.8894265431
  N         1.6855676596        4.7661970057        7.8603125340
 Ga         1.6647757336        2.9133131731        8.5175844804
  N         1.6689449979        2.9135257656       10.4916390279
 Ga         1.6967672486        4.7769008163       11.1237294813
  N         1.7133777768        4.7835537981       13.1078834706
 Ga         1.6680848715        2.9145184268       13.6732452683
  N         1.6979499875        2.9005568417       15.6278477916
 Ga         1.5077308311        4.6679838305       16.5393700319
  N         0.0663884914        7.5483853941        2.7050770065
 Ga         0.0796084874        5.7077185356        3.3744361621
  N         0.0745050262        5.7052689632        5.3023143107
 Ga         0.0837488713        7.5576627367        5.9349733313
  N         0.0760954073        7.5516384598        7.8918663480
 Ga         0.0673249990        5.6843243215        8.4967096930
  N         0.0712649767        5.6806537909       10.4770580179
 Ga         0.0739826598        7.5498853339       11.0764443936
  N         0.0723688899        7.5490134511       13.0380019984
 Ga         0.0723514016        5.6802230863       13.6709252495
  N         0.0717119163        5.7120682013       15.6233202004
 Ga         0.0717432114        7.5486933453       15.9068676677
  N        -1.6404850702       10.2920719393        2.5567501912
 Ga        -1.5241742138        8.4764756268        3.3533042069
  N        -1.5238212202        8.4754821904        5.2853910672
 Ga        -1.4971003418       10.3496168258        5.8798051202
  N        -1.5310723241       10.3361035348        7.8544734061
 Ga        -1.5467483915        8.4770545545        8.4932503067
  N        -1.5466993832        8.4814484917       10.4744120671
 Ga        -1.5168566156       10.3402369057       11.1248580744
  N        -1.5020126213       10.3522352330       13.1086679994
 Ga        -1.5462625808        8.4828757331       13.6711502663
  N        -1.5189461451        8.4667292144       15.6236238505
 Ga        -1.7054286743       10.2325877186       16.5397641380
  N         6.4842869719        2.0987742544        2.5556667526
 Ga         6.5372753360        0.1089139180        2.9525071367
  N         6.4949094344        0.1242407777        5.0985802767
 Ga         6.5196063132        1.9408790869        5.8730129628
  N         6.5049292714        1.9702738826        7.8528748097
 Ga         6.5112323804        0.1174535692        8.4957785161
  N         6.5056720996        0.1206110930       10.4617776256
 Ga         6.5092858520        1.9591462193       11.1245201089
  N         6.5057169610        1.9400503937       13.1109819027
 Ga         6.5056015776        0.1193675081       13.9278506019
  N         6.5052072421        0.1185811932       16.1123383349
 Ga         6.5061352557        2.1612750092       16.5284201906
 Ga         6.5404539854        3.8650056404        1.4725713682
  N         4.9811259633        4.6840441434        2.5872193852
 Ga         4.9040219055        2.8843699202        3.4106168831
  N         4.8786855994        2.8910683536        5.3229804863
 Ga         4.8758692890        4.7869813284        5.8737196121
  N         4.8904414753        4.7656670823        7.8506901929
 Ga         4.9145001498        2.9154253110        8.5136226624
  N         4.9092773866        2.9137382053       10.4893903466
 Ga         4.8834053619        4.7778976912       11.1211385442
  N         4.8643843245        4.7839088256       13.1087051049
 Ga         4.9096831599        2.9145827479       13.6732238847
  N         4.8810205230        2.8983373627       15.6325296926
 Ga         5.0551680399        4.6738408611       16.5290446546
  N         6.5069098992        3.8368605381       17.6529220222
  N         3.3058593765        7.6645337497        2.5327093424
  N         3.2833574654        5.6789312174        5.1001852134
 Ga         3.2892203101        7.5389779141        5.8185827618
  N         3.2858080159        7.5429032856        7.8168913127
 Ga         3.2907592316        5.7027981192        8.4903728269
  N         3.2892114044        5.6945628534       10.4573968103
 Ga         3.2903693042        7.5328349071       11.1191649054
  N         3.2888294119        7.5117837513       13.1047977013
 Ga         3.2874599756        5.6935933948       13.9276162186
  N         3.2861054968        5.6942719759       16.1124007352
 Ga         3.2864457802        7.7431865702       16.5301231564
 Ga         3.4353562983        9.4155967783        1.1933245718
  N         1.7616200952       10.2882869710        2.5539794762
 Ga         1.6957330797        8.4975885822        3.2823811006
  N         1.6616245290        8.4708029611        5.2485546169
 Ga         1.6621719573       10.3440861491        5.8371874186
  N         1.6713908645       10.3336261143        7.8308582048
 Ga         1.6962174964        8.4843562026        8.4873178251
  N         1.6928664744        8.4828635086       10.4710099312
 Ga         1.6679640606       10.3426435753       11.1178267629
  N         1.6486454747       10.3527818109       13.1041086869
 Ga         1.6909101363        8.4835427451       13.6671481268
  N         1.6621287334        8.4671670127       15.6195131035
 Ga         1.8474128863       10.2358356232       16.5304777013
  N         3.2928492278        9.4083752320       17.6691438567
  N         9.7286224328        1.9790201388        2.6411524471
 Ga         9.7059425989        0.1999520557        3.2651056865
  N         9.7154289258        0.1215159036        5.2590147623
 Ga         9.7221122979        1.9705571914        5.9020149785
  N         9.7204578134        1.9768884957        7.8786915130
 Ga         9.7202924631        0.1087004055        8.4765165219
  N         9.7203555060        0.1083611784       10.4661751426
 Ga         9.7205547841        1.9765301192       11.0734662710
  N         9.7199707099        1.9783893221       13.0373047140
 Ga         9.7207370908        0.1094020444       13.6678179252
  N         9.7176743637        0.1428168739       15.6221020766
 Ga         9.7227405742        1.9790480687       15.9105761966
  N         8.0070139465        4.7028875331        2.5726291201
 Ga         8.2199908246        2.8478080865        3.3113311895
  N         8.1073259800        2.9026515047        5.2779464024
 Ga         8.1388512381        4.7765681962        5.8312138498
  N         8.1236516251        4.7693450829        7.8258562039
 Ga         8.1094772321        2.9153092293        8.4867343988
  N         8.1026781353        2.9143962570       10.4722780731
 Ga         8.1278150716        4.7734811181       11.1197830717
  N         8.1452383196        4.7828905914       13.1080006968
 Ga         8.1028427168        2.9134075968       13.6714023620
  N         8.1297805438        2.8984817872       15.6304516953
 Ga         7.9571319720        4.6739891258       16.5285986715
  N         6.5210128734        7.5512298824        2.6240099156
 Ga         6.5059264455        5.8158432760        3.3233895737
  N         6.4999519871        5.6967491689        5.2838086668
 Ga         6.4982323733        7.5601403972        5.9034743214
  N         6.5020448906        7.5526209105        7.8761286106
 Ga         6.5109439577        5.6875052670        8.4795106345
  N         6.5066202518        5.6809149617       10.4669574262
 Ga         6.5036861569        7.5495583397       11.0708526735
  N         6.5048151087        7.5479153776       13.0352616208
 Ga         6.5051983284        5.6804258796       13.6718790179
  N         6.5053814465        5.7116472444       15.6309498689
 Ga         6.5054948621        7.5509533603       15.9115353217
  N         4.8066224920       10.2580669034        2.5541143661
 Ga         4.9903314680        8.4281086946        3.2827118597
  N         4.9007815825        8.4796074524        5.2688917334
 Ga         4.9054844048       10.3431341363        5.8316011440
  N         4.9047022778       10.3389234662        7.8280074842
 Ga         4.8847588573        8.4835677125        8.4737750468
  N         4.8846454822        8.4828338786       10.4628636674
 Ga         4.9088900376       10.3409300304       11.1162244515
  N         4.9284638849       10.3526564726       13.1037179449
 Ga         4.8866032707        8.4834031361       13.6674471927
  N         4.9130803258        8.4647766102       15.6218749676
 Ga         4.7322475509       10.2398378569       16.5294990075
  O         0.8326269104        3.6798107523       -0.2721759378
  H         2.5348356044        3.5237292055        0.1496131778
  C         0.1942027292        2.7370815349       -1.1680335760
  H         0.0347543119        1.7598655740       -0.6825642783
  H        -0.7879548885        3.0960494101       -1.5224654723
  H         0.8419810360        2.6071625992       -2.0444472929
 Ga         3.2762360757        5.7307554195        3.0004443326
  O         3.4137270067        3.0189363994        0.3588981676
  H         0.0179372357        7.5099441737        1.6796724384
  C         3.2834667988        1.8010971413        1.2223097327
  H         4.1426289584        1.2052007163        0.8824874475
  H         2.3505530301        1.3703608639        0.8385688905
  H         4.3142230460        3.5118624122        0.4329838805
     212
 i =        3, E =     -8504.7375931732
  N         0.0932035636        2.1066377975        2.5556464127
 Ga         0.0512530393        0.1214541232        2.9332479166
  N         0.0695871590        0.1273430871        5.0713205321
 Ga         0.0588107098        1.9423891370        5.8708163206
  N         0.0729230852        1.9688300576        7.8506200325
 Ga         0.0662982657        0.1171695052        8.4976899741
  N         0.0719364652        0.1197342172       10.4628828711
 Ga         0.0679411460        1.9583408191       11.1269274449
  N         0.0716880728        1.9407611147       13.1110413864
 Ga         0.0713212258        0.1202570714       13.9286514897
  N         0.0720793863        0.1213069834       16.1087795053
 Ga         0.0715331494        2.1718695270       16.5391228796
 Ga         0.0925846324        3.8312314056        1.4434629710
  N        -1.3938375504        4.6969044322        2.5138179419
 Ga        -1.6157102659        2.8473994343        3.3128648597
  N        -1.5299240370        2.9083895441        5.2852518379
 Ga        -1.5678562734        4.7716953728        5.8560223916
  N        -1.5442230716        4.7698939340        7.8399782409
 Ga        -1.5323386531        2.9116696736        8.4907285043
  N        -1.5257810698        2.9139123848       10.4740650258
 Ga        -1.5537281064        4.7727512930       11.1223052161
  N        -1.5683992627        4.7827601261       13.1064140498
 Ga        -1.5265366542        2.9136455489       13.6712413174
  N        -1.5545585004        2.9011672501       15.6253851616
 Ga        -1.3643832677        4.6665656580       16.5405493313
  N         0.0714589284        3.8305413123       17.6823794860
  N        -3.1297773780        7.6622625989        2.5573370787
 Ga        -3.1366599021        5.6815367258        2.8989012508
  N        -3.1352995771        5.6864812936        5.0558932808
 Ga        -3.1477897851        7.5112951553        5.8427063119
  N        -3.1420289408        7.5367601947        7.8303631301
 Ga        -3.1456822196        5.6913095185        8.4907458058
  N        -3.1447304988        5.6922247893       10.4572022222
 Ga        -3.1452010264        7.5294483542       11.1213430815
  N        -3.1438151296        7.5115889570       13.1053892609