       6
 i =       74, E =       -34.4530307469
  O        -1.3916171109        0.1939545489       -0.8388085112
  H        -1.4111691704        1.1425700172       -1.0224757174
  H        -0.4788880503        0.0477545947       -0.4037649524
  O         0.8339940384       -0.1903395827        0.2826915098
  H         0.8661976068        0.1297298322        1.1955366504
  H         1.7592683399       -0.1093510305       -0.0556482478
