 DBCSR| Multiplication driver                                               BLAS
 DBCSR| Multrec recursion limit                                              512
 DBCSR| Multiplication stack size                                           1000
 DBCSR| Maximum elements for images                                    UNLIMITED
 DBCSR| Multiplicative factor virtual images                                   1
 DBCSR| Multiplication size stacks                                             3
 DBCSR| Number of 3D layers                                               SINGLE
 DBCSR| Use MPI memory allocation                                              T
 DBCSR| Use RMA algorithm                                                      F
 DBCSR| Use Communication thread                                               T
 DBCSR| Communication thread load                                             87


  **** **** ******  **  PROGRAM STARTED AT               2019-07-08 14:40:27.380
 ***** ** ***  *** **   PROGRAM STARTED ON        blg9211.int.ets1.calculquebec.
 **    ****   ******    PROGRAM STARTED BY                                   rzk
 ***** **    ** ** **   PROGRAM PROCESS ID                                 19733
  **** **  *******  **  PROGRAM STARTED IN /lustre04/scratch/rzk/rzk/GaN-carbene
                                           /443-adatoms-both-2x2/09-BondBreaking
                                           -CH/02-0401-CH-to-NTop-PES/PRACTICE

 CP2K| version string:                    CP2K version 7.0 (Development Version)
 CP2K| source code revision number:                                    svn:18619
 CP2K| cp2kflags: libint fftw3 libxc parallel mpi3 scalapack mkl                
 CP2K| is freely available from                            https://www.cp2k.org/
 CP2K| Program compiled at                          Sun Apr  7 00:48:11 EDT 2019
 CP2K| Program compiled on                      beluga2.int.ets1.calculquebec.ca
 CP2K| Program compiled for                    Beluga-Linux-x86-64-intel-openmpi
 CP2K| Data directory path    /home/rzk/projects/def-rzk/group/cp2k/cp2k-mcgill/
 CP2K| Input file name                                            TEST-1.restart
 
 GLOBAL| Force Environment number                                              1
 GLOBAL| Basis set file name                                        BASIS_MOLOPT
 GLOBAL| Potential file name                                      GTH_POTENTIALS
 GLOBAL| MM Potential file name                                     MM_POTENTIAL
 GLOBAL| Coordinate file name                                      __STD_INPUT__
 GLOBAL| Method name                                                        CP2K
 GLOBAL| Project name                                                       TEST
 GLOBAL| Preferred FFT library                                             FFTW3
 GLOBAL| Preferred diagonalization lib.                                       SL
 GLOBAL| Run type                                                        GEO_OPT
 GLOBAL| All-to-all communication in single precision                          F
 GLOBAL| FFTs using library dependent lengths                                  F
 GLOBAL| Global print level                                               MEDIUM
 GLOBAL| MPI I/O enabled                                                       T
 GLOBAL| Total number of message passing processes                            40
 GLOBAL| Number of threads for this process                                    1
 GLOBAL| This output is from process                                           0
 GLOBAL| CPU model name :  Intel(R) Xeon(R) Gold 6148 CPU @ 2.40GHz

 MEMORY| system memory details [Kb]
 MEMORY|                        rank 0           min           max       average
 MEMORY| MemTotal            196614300     196614300     196614300     196614300
 MEMORY| MemFree             182325680     182325060     182325680     182325664
 MEMORY| Buffers                     0             0             0             0
 MEMORY| Cached                1565760       1565760       1565760       1565760
 MEMORY| Slab                  1073852       1073852       1073852       1073852
 MEMORY| SReclaimable           129832        129832        129832        129832
 MEMORY| MemLikelyFree       184021272     184020652     184021272     184021256


 *** Fundamental physical constants (SI units) ***

 *** Literature: B. J. Mohr and B. N. Taylor,
 ***             CODATA recommended values of the fundamental physical
 ***             constants: 2006, Web Version 5.1
 ***             http://physics.nist.gov/constants

 Speed of light in vacuum [m/s]                             2.99792458000000E+08
 Magnetic constant or permeability of vacuum [N/A**2]       1.25663706143592E-06
 Electric constant or permittivity of vacuum [F/m]          8.85418781762039E-12
 Planck constant (h) [J*s]                                  6.62606896000000E-34
 Planck constant (h-bar) [J*s]                              1.05457162825177E-34
 Elementary charge [C]                                      1.60217648700000E-19
 Electron mass [kg]                                         9.10938215000000E-31
 Electron g factor [ ]                                     -2.00231930436220E+00
 Proton mass [kg]                                           1.67262163700000E-27
 Fine-structure constant                                    7.29735253760000E-03
 Rydberg constant [1/m]                                     1.09737315685270E+07
 Avogadro constant [1/mol]                                  6.02214179000000E+23
 Boltzmann constant [J/K]                                   1.38065040000000E-23
 Atomic mass unit [kg]                                      1.66053878200000E-27
 Bohr radius [m]                                            5.29177208590000E-11

 *** Conversion factors ***

 [u] -> [a.u.]                                              1.82288848426455E+03
 [Angstrom] -> [Bohr] = [a.u.]                              1.88972613288564E+00
 [a.u.] = [Bohr] -> [Angstrom]                              5.29177208590000E-01
 [a.u.] -> [s]                                              2.41888432650478E-17
 [a.u.] -> [fs]                                             2.41888432650478E-02
 [a.u.] -> [J]                                              4.35974393937059E-18
 [a.u.] -> [N]                                              8.23872205491840E-08
 [a.u.] -> [K]                                              3.15774647902944E+05
 [a.u.] -> [kJ/mol]                                         2.62549961709828E+03
 [a.u.] -> [kcal/mol]                                       6.27509468713739E+02
 [a.u.] -> [Pa]                                             2.94210107994716E+13
 [a.u.] -> [bar]                                            2.94210107994716E+08
 [a.u.] -> [atm]                                            2.90362800883016E+08
 [a.u.] -> [eV]                                             2.72113838565563E+01
 [a.u.] -> [Hz]                                             6.57968392072181E+15
 [a.u.] -> [1/cm] (wave numbers)                            2.19474631370540E+05
 [a.u./Bohr**2] -> [1/cm]                                   5.14048714338585E+03
 
          ----------------------------------------------------------------------
 COLVARS| COLVAR INPUT INDEX:        1
 COLVARS| BOND          >>> ATOMS:                                     3       4
          ----------------------------------------------------------------------

 CELL_TOP| Volume [angstrom^3]:                                          125.000
 CELL_TOP| Vector a [angstrom     5.000     0.000     0.000    |a| =       5.000
 CELL_TOP| Vector b [angstrom     0.000     5.000     0.000    |b| =       5.000
 CELL_TOP| Vector c [angstrom     0.000     0.000     5.000    |c| =       5.000
 CELL_TOP| Angle (b,c), alpha [degree]:                                   90.000
 CELL_TOP| Angle (a,c), beta  [degree]:                                   90.000
 CELL_TOP| Angle (a,b), gamma [degree]:                                   90.000
 CELL_TOP| Numerically orthorhombic:                                         YES
 RESTRAINT| Active restraint on COLLECTIVE section Nr.     1. K [a.u.]=10.000000
 
 GENERATE|  Preliminary Number of Bonds generated:                             0
 GENERATE|  Achieved consistency in connectivity generation.

 CELL| Volume [angstrom^3]:                                              125.000
 CELL| Vector a [angstrom]:       5.000     0.000     0.000    |a| =       5.000
 CELL| Vector b [angstrom]:       0.000     5.000     0.000    |b| =       5.000
 CELL| Vector c [angstrom]:       0.000     0.000     5.000    |c| =       5.000
 CELL| Angle (b,c), alpha [degree]:                                       90.000
 CELL| Angle (a,c), beta  [degree]:                                       90.000
 CELL| Angle (a,b), gamma [degree]:                                       90.000
 CELL| Numerically orthorhombic:                                             YES

 CELL_REF| Volume [angstrom^3]:                                          125.000
 CELL_REF| Vector a [angstrom     5.000     0.000     0.000    |a| =       5.000
 CELL_REF| Vector b [angstrom     0.000     5.000     0.000    |b| =       5.000
 CELL_REF| Vector c [angstrom     0.000     0.000     5.000    |c| =       5.000
 CELL_REF| Angle (b,c), alpha [degree]:                                   90.000
 CELL_REF| Angle (a,c), beta  [degree]:                                   90.000
 CELL_REF| Angle (a,b), gamma [degree]:                                   90.000
 CELL_REF| Numerically orthorhombic:                                         YES

 *******************************************************************************
 *******************************************************************************
 **                                                                           **
 **     #####                         ##              ##                      **
 **    ##   ##            ##          ##              ##                      **
 **   ##     ##                       ##            ######                    **
 **   ##     ##  ##   ##  ##   #####  ##  ##   ####   ##    #####    #####    **
 **   ##     ##  ##   ##  ##  ##      ## ##   ##      ##   ##   ##  ##   ##   **
 **   ##  ## ##  ##   ##  ##  ##      ####     ###    ##   ######   ######    **
 **    ##  ###   ##   ##  ##  ##      ## ##      ##   ##   ##       ##        **
 **     #######   #####   ##   #####  ##  ##  ####    ##    #####   ##        **
 **           ##                                                    ##        **
 **                                                                           **
 **                                                ... make the atoms dance   **
 **                                                                           **
 **            Copyright (C) by CP2K developers group (2000 - 2018)           **
 **                                                                           **
 *******************************************************************************

 DFT| Spin unrestricted (spin-polarized) Kohn-Sham calculation               UKS
 DFT| Multiplicity                                                             1
 DFT| Number of spin states                                                    2
 DFT| Charge                                                                   0
 DFT| Self-interaction correction (SIC)                                       NO
 DFT| Cutoffs: density                                              1.000000E-10
 DFT|          gradient                                             1.000000E-10
 DFT|          tau                                                  1.000000E-10
 DFT|          cutoff_smoothing_range                               0.000000E+00
 DFT| XC density smoothing                                                  NONE
 DFT| XC derivatives                                                          PW
 FUNCTIONAL| ROUTINE=NEW
 FUNCTIONAL| PBE:
 FUNCTIONAL| J.P.Perdew, K.Burke, M.Ernzerhof, Phys. Rev. Letter, vol. 77, n 18,
 FUNCTIONAL|  pp. 3865-3868, (1996){spin polarized}                             
 vdW POTENTIAL|                                                   Pair Potential
 vdW POTENTIAL|          DFT-D3 (Version 3.1)
 vdW POTENTIAL|          Potential Form: S. Grimme et al, JCP 132: 154104 (2010)
 vdW POTENTIAL|          Zero Damping
 vdW POTENTIAL|          Cutoff Radius [Bohr]:                             18.90
 vdW POTENTIAL|          s6 Scaling Factor:                               1.0000
 vdW POTENTIAL|          sr6 Scaling Factor:                              1.2170
 vdW POTENTIAL|          s8 Scaling Factor:                               0.7220
 vdW POTENTIAL|          Cutoff for CN calculation:                   0.1000E-05

 QS| Method:                                                                 GPW
 QS| Density plane wave grid type                        NON-SPHERICAL FULLSPACE
 QS| Number of grid levels:                                                    5
 QS| Density cutoff [a.u.]:                                                150.0
 QS| Multi grid cutoff [a.u.]: 1) grid level                               150.0
 QS|                           2) grid level                                50.0
 QS|                           3) grid level                                16.7
 QS|                           4) grid level                                 5.6
 QS|                           5) grid level                                 1.9
 QS| Grid level progression factor:                                          3.0
 QS| Relative density cutoff [a.u.]:                                        20.0
 QS| Consistent realspace mapping and integration 
 QS| Interaction thresholds: eps_pgf_orb:                                1.0E-07
 QS|                         eps_filter_matrix:                          0.0E+00
 QS|                         eps_core_charge:                            1.0E-16
 QS|                         eps_rho_gspace:                             1.0E-14
 QS|                         eps_rho_rspace:                             1.0E-14
 QS|                         eps_gvg_rspace:                             1.0E-07
 QS|                         eps_ppl:                                    1.0E-02
 QS|                         eps_ppnl:                                   1.0E-09


 ATOMIC KIND INFORMATION

  1. Atomic kind: O                                     Number of atoms:       2

     Orbital Basis Set                                     DZVP-MOLOPT-SR-GTH-q6

       Number of orbital shell sets:                                           1
       Number of orbital shells:                                               5
       Number of primitive Cartesian functions:                                5
       Number of Cartesian basis functions:                                   14
       Number of spherical basis functions:                                   13
       Norm type:                                                              2

       Normalised Cartesian orbitals:

                        Set   Shell   Orbital            Exponent    Coefficient

                          1       1    2s               10.389228       0.396646
                                                         3.849621       0.208811
                                                         1.388401      -0.301641
                                                         0.496955      -0.274061
                                                         0.162492      -0.033677

                          1       2    3s               10.389228       0.303673
                                                         3.849621       0.240943
                                                         1.388401      -0.313066
                                                         0.496955      -0.043055
                                                         0.162492       0.213991

                          1       3    3px              10.389228      -1.530415
                                                         3.849621      -1.371928
                                                         1.388401      -0.761951
                                                         0.496955      -0.253695
                                                         0.162492      -0.035541
                          1       3    3py              10.389228      -1.530415
                                                         3.849621      -1.371928
                                                         1.388401      -0.761951
                                                         0.496955      -0.253695
                                                         0.162492      -0.035541
                          1       3    3pz              10.389228      -1.530415
                                                         3.849621      -1.371928
                                                         1.388401      -0.761951
                                                         0.496955      -0.253695
                                                         0.162492      -0.035541

                          1       4    4px              10.389228      -0.565392
                                                         3.849621      -0.038231
                                                         1.388401      -0.382373
                                                         0.496955       0.179070
                                                         0.162492       0.122714
                          1       4    4py              10.389228      -0.565392
                                                         3.849621      -0.038231
                                                         1.388401      -0.382373
                                                         0.496955       0.179070
                                                         0.162492       0.122714
                          1       4    4pz              10.389228      -0.565392
                                                         3.849621      -0.038231
                                                         1.388401      -0.382373
                                                         0.496955       0.179070
                                                         0.162492       0.122714

                          1       5    4dx2             10.389228       1.867377
                                                         3.849621       0.670994
                                                         1.388401       1.353441
                                                         0.496955       0.273538
                                                         0.162492       0.006620
                          1       5    4dxy             10.389228       3.234392
                                                         3.849621       1.162195
                                                         1.388401       2.344229
                                                         0.496955       0.473781
                                                         0.162492       0.011466
                          1       5    4dxz             10.389228       3.234392
                                                         3.849621       1.162195
                                                         1.388401       2.344229
                                                         0.496955       0.473781
                                                         0.162492       0.011466
                          1       5    4dy2             10.389228       1.867377
                                                         3.849621       0.670994
                                                         1.388401       1.353441
                                                         0.496955       0.273538
                                                         0.162492       0.006620
                          1       5    4dyz             10.389228       3.234392
                                                         3.849621       1.162195
                                                         1.388401       2.344229
                                                         0.496955       0.473781
                                                         0.162492       0.011466
                          1       5    4dz2             10.389228       1.867377
                                                         3.849621       0.670994
                                                         1.388401       1.353441
                                                         0.496955       0.273538
                                                         0.162492       0.006620

     GTH Potential information for                                    GTH-PBE-q6

       Description:                       Goedecker-Teter-Hutter pseudopotential
                                           Goedecker et al., PRB 54, 1703 (1996)
                                          Hartwigsen et al., PRB 58, 3641 (1998)
                                                      Krack, TCA 114, 145 (2005)

       Gaussian exponent of the core charge distribution:               8.360253
       Electronic configuration (s p d ...):                               2   4

       Parameters of the local part of the GTH pseudopotential:

                          rloc        C1          C2          C3          C4
                        0.244554  -16.667215    2.487311

       Parameters of the non-local part of the GTH pseudopotential:

                   l      r(l)      h(i,j,l)

                   0    0.220956   18.337458
                   1    0.211332

  2. Atomic kind: H                                     Number of atoms:       4

     Orbital Basis Set                                     DZVP-MOLOPT-SR-GTH-q1

       Number of orbital shell sets:                                           1
       Number of orbital shells:                                               3
       Number of primitive Cartesian functions:                                5
       Number of Cartesian basis functions:                                    5
       Number of spherical basis functions:                                    5
       Norm type:                                                              2

       Normalised Cartesian orbitals:

                        Set   Shell   Orbital            Exponent    Coefficient

                          1       1    2s               10.068468      -0.133023
                                                         2.680223      -0.177618
                                                         0.791502      -0.258419
                                                         0.239116      -0.107525
                                                         0.082193      -0.014019

                          1       2    3s               10.068468       0.344673
                                                         2.680223       1.819821
                                                         0.791502      -0.999069
                                                         0.239116       0.017430
                                                         0.082193       0.082660

                          1       3    3px              10.068468       0.155326
                                                         2.680223       0.367157
                                                         0.791502       0.311480
                                                         0.239116       0.080105
                                                         0.082193       0.033440
                          1       3    3py              10.068468       0.155326
                                                         2.680223       0.367157
                                                         0.791502       0.311480
                                                         0.239116       0.080105
                                                         0.082193       0.033440
                          1       3    3pz              10.068468       0.155326
                                                         2.680223       0.367157
                                                         0.791502       0.311480
                                                         0.239116       0.080105
                                                         0.082193       0.033440

     GTH Potential information for                                    GTH-PBE-q1

       Description:                       Goedecker-Teter-Hutter pseudopotential
                                           Goedecker et al., PRB 54, 1703 (1996)
                                          Hartwigsen et al., PRB 58, 3641 (1998)
                                                      Krack, TCA 114, 145 (2005)

       Gaussian exponent of the core charge distribution:              12.500000
       Electronic configuration (s p d ...):                                   1

       Parameters of the local part of the GTH pseudopotential:

                          rloc        C1          C2          C3          C4
                        0.200000   -4.178900    0.724463


 MOLECULE KIND INFORMATION


 All atoms are their own molecule, skipping detailed information


 TOTAL NUMBERS AND MAXIMUM NUMBERS

  Total number of            - Atomic kinds:                                   2
                             - Atoms:                                          6
                             - Shell sets:                                     6
                             - Shells:                                        22
                             - Primitive Cartesian functions:                 30
                             - Cartesian basis functions:                     48
                             - Spherical basis functions:                     46

  Maximum angular momentum of- Orbital basis functions:                        2
                             - Local part of the GTH pseudopotential:          2
                             - Non-local part of the GTH pseudopotential:      0


 MODULE QUICKSTEP:  ATOMIC COORDINATES IN angstrom

  Atom  Kind  Element       X           Y           Z          Z(eff)       Mass

       1     1 O    8   -1.302945   -0.088138   -0.846298      6.00      15.9994
       2     2 H    1   -1.415531    0.696783   -1.400453      1.00       1.0079
       3     2 H    1   -0.357175    0.070459   -0.367160      1.00       1.0079
       4     1 O    8    0.745784    0.273872    0.292568      6.00      15.9994
       5     2 H    1    0.704036   -0.216395    1.129545      1.00       1.0079
       6     2 H    1    1.658622    0.107953   -0.055186      1.00       1.0079




 SCF PARAMETERS         Density guess:                                    ATOMIC
                        --------------------------------------------------------
                        max_scf:                                              80
                        max_scf_history:                                       0
                        max_diis:                                              4
                        --------------------------------------------------------
                        eps_scf:                                        5.00E-06
                        eps_scf_history:                                0.00E+00
                        eps_diis:                                       1.00E-01
                        eps_eigval:                                     1.00E-05
                        --------------------------------------------------------
                        level_shift [a.u.]:                                 0.00
                        --------------------------------------------------------
                        Outer loop SCF in use 
                        No variables optimised in outer loop
                        eps_scf                                         5.00E-06
                        max_scf                                                4
                        No outer loop optimization
                        step_size                                       5.00E-01

 PW_GRID| Information for grid number                                          1
 PW_GRID| Grid distributed over                                    40 processors
 PW_GRID| Real space group dimensions                                    40    1
 PW_GRID| the grid is blocked:                                                NO
 PW_GRID| Cutoff [a.u.]                                                    150.0
 PW_GRID| spherical cutoff:                                                   NO
 PW_GRID|   Bounds   1            -27      26                Points:          54
 PW_GRID|   Bounds   2            -27      26                Points:          54
 PW_GRID|   Bounds   3            -27      26                Points:          54
 PW_GRID| Volume element (a.u.^3)  0.5357E-02     Volume (a.u.^3)       843.5418
 PW_GRID| Grid span                                                    FULLSPACE
 PW_GRID|   Distribution                         Average         Max         Min
 PW_GRID|   G-Vectors                             3936.6        3942        3888
 PW_GRID|   G-Rays                                  72.9          73          72
 PW_GRID|   Real Space Points                     3936.6        5832        2916

 PW_GRID| Information for grid number                                          2
 PW_GRID| Grid distributed over                                    40 processors
 PW_GRID| Real space group dimensions                                     5    8
 PW_GRID| the grid is blocked:                                                NO
 PW_GRID| Cutoff [a.u.]                                                     50.0
 PW_GRID| spherical cutoff:                                                   NO
 PW_GRID|   Bounds   1            -16      15                Points:          32
 PW_GRID|   Bounds   2            -16      15                Points:          32
 PW_GRID|   Bounds   3            -16      15                Points:          32
 PW_GRID| Volume element (a.u.^3)  0.2574E-01     Volume (a.u.^3)       843.5418
 PW_GRID| Grid span                                                    FULLSPACE
 PW_GRID|   Distribution                         Average         Max         Min
 PW_GRID|   G-Vectors                              819.2         896         768
 PW_GRID|   G-Rays                                  25.6          28          24
 PW_GRID|   Real Space Points                      819.2         896         768

 PW_GRID| Information for grid number                                          3
 PW_GRID| Grid distributed over                                    40 processors
 PW_GRID| Real space group dimensions                                     5    8
 PW_GRID| the grid is blocked:                                                NO
 PW_GRID| Cutoff [a.u.]                                                     16.7
 PW_GRID| spherical cutoff:                                                   NO
 PW_GRID|   Bounds   1             -9       8                Points:          18
 PW_GRID|   Bounds   2             -9       8                Points:          18
 PW_GRID|   Bounds   3             -9       8                Points:          18
 PW_GRID| Volume element (a.u.^3)  0.1446         Volume (a.u.^3)       843.5418
 PW_GRID| Grid span                                                    FULLSPACE
 PW_GRID|   Distribution                         Average         Max         Min
 PW_GRID|   G-Vectors                              145.8         180         126
 PW_GRID|   G-Rays                                   8.1          10           7
 PW_GRID|   Real Space Points                      145.8         216         108

 PW_GRID| Information for grid number                                          4
 PW_GRID| Grid distributed over                                    40 processors
 PW_GRID| Real space group dimensions                                     5    8
 PW_GRID| the grid is blocked:                                                NO
 PW_GRID| Cutoff [a.u.]                                                      5.6
 PW_GRID| spherical cutoff:                                                   NO
 PW_GRID|   Bounds   1             -6       5                Points:          12
 PW_GRID|   Bounds   2             -6       5                Points:          12
 PW_GRID|   Bounds   3             -6       5                Points:          12
 PW_GRID| Volume element (a.u.^3)  0.4882         Volume (a.u.^3)       843.5418
 PW_GRID| Grid span                                                    FULLSPACE
 PW_GRID|   Distribution                         Average         Max         Min
 PW_GRID|   G-Vectors                               43.2          60          36
 PW_GRID|   G-Rays                                   3.6           5           3
 PW_GRID|   Real Space Points                       43.2          72          24

 PW_GRID| Information for grid number                                          5
 PW_GRID| Grid distributed over                                    40 processors
 PW_GRID| Real space group dimensions                                     5    8
 PW_GRID| the grid is blocked:                                                NO
 PW_GRID| Cutoff [a.u.]                                                      1.9
 PW_GRID| spherical cutoff:                                                   NO
 PW_GRID|   Bounds   1             -3       2                Points:           6
 PW_GRID|   Bounds   2             -3       2                Points:           6
 PW_GRID|   Bounds   3             -3       2                Points:           6
 PW_GRID| Volume element (a.u.^3)   3.905         Volume (a.u.^3)       843.5418
 PW_GRID| Grid span                                                    FULLSPACE
 PW_GRID|   Distribution                         Average         Max         Min
 PW_GRID|   G-Vectors                                5.4          12           0
 PW_GRID|   G-Rays                                   0.9           2           0
 PW_GRID|   Real Space Points                        5.4          12           0

 POISSON| Solver                                                        PERIODIC
 POISSON| Periodicity                                                        XYZ

 RS_GRID| Information for grid number                                          1
 RS_GRID|   Bounds   1            -27      26                Points:          54
 RS_GRID|   Bounds   2            -27      26                Points:          54
 RS_GRID|   Bounds   3            -27      26                Points:          54
 RS_GRID| Real space fully replicated
 RS_GRID| Group size                                                           1

 RS_GRID| Information for grid number                                          2
 RS_GRID|   Bounds   1            -16      15                Points:          32
 RS_GRID|   Bounds   2            -16      15                Points:          32
 RS_GRID|   Bounds   3            -16      15                Points:          32
 RS_GRID| Real space fully replicated
 RS_GRID| Group size                                                           1

 RS_GRID| Information for grid number                                          3
 RS_GRID|   Bounds   1             -9       8                Points:          18
 RS_GRID|   Bounds   2             -9       8                Points:          18
 RS_GRID|   Bounds   3             -9       8                Points:          18
 RS_GRID| Real space fully replicated
 RS_GRID| Group size                                                           1

 RS_GRID| Information for grid number                                          4
 RS_GRID|   Bounds   1             -6       5                Points:          12
 RS_GRID|   Bounds   2             -6       5                Points:          12
 RS_GRID|   Bounds   3             -6       5                Points:          12
 RS_GRID| Real space fully replicated
 RS_GRID| Group size                                                           1

 RS_GRID| Information for grid number                                          5
 RS_GRID|   Bounds   1             -3       2                Points:           6
 RS_GRID|   Bounds   2             -3       2                Points:           6
 RS_GRID|   Bounds   3             -3       2                Points:           6
 RS_GRID| Real space fully replicated
 RS_GRID| Group size                                                           1

 BFGS| Use rational function optimization for step estimation:                NO
 BFGS| Use model Hessian for initial guess:                                  YES
 BFGS| Restart Hessian:                                                       NO
 BFGS| Trust radius:                                                       0.472

 *******************************************************************************
 ***                     STARTING GEOMETRY OPTIMIZATION                      ***
 ***                                   BFGS                                  ***
 *******************************************************************************

 Spin 1

 Number of electrons:                                                          8
 Number of occupied orbitals:                                                  8
 Number of molecular orbitals:                                                 8

 Spin 2

 Number of electrons:                                                          8
 Number of occupied orbitals:                                                  8
 Number of molecular orbitals:                                                 8

 Number of orbital functions:                                                 46
 Number of independent orbital functions:                                     46

 Extrapolation method: initial_guess

 Atomic guess: The first density matrix is obtained in terms of atomic orbitals
               and electronic configurations assigned to each atomic kind

 Guess for atomic kind: O

 Electronic structure
    Total number of core electrons                                          2.00
    Total number of valence electrons                                       6.00
    Total number of electrons                                               8.00
    Multiplicity                                                   not specified
    S   [  2.00] 2.00
    P      4.00
 

 *******************************************************************************
                  Iteration          Convergence                     Energy [au]
 *******************************************************************************
                          1        0.702811                     -15.577904332270
                          2        0.612408                     -15.588447180504
                          3        0.955344E-02                 -15.655871208406
                          4        0.223754E-02                 -15.655885053552
                          5        0.157183E-02                 -15.655885461027
                          6        0.124953E-02                 -15.655885607150
                          7        0.312011E-06                 -15.655885858066

 Energy components [Hartree]           Total Energy ::          -15.655885858066
                                        Band Energy ::           -2.983128125584
                                     Kinetic Energy ::           11.754765134683
                                   Potential Energy ::          -27.410650992750
                                      Virial (-V/T) ::            2.331875684345
                                        Core Energy ::          -26.153522949072
                                          XC Energy ::           -3.157392363346
                                     Coulomb Energy ::           13.655029454351
                       Total Pseudopotential Energy ::          -37.943026860963
                       Local Pseudopotential Energy ::          -39.220419683052
                    Nonlocal Pseudopotential Energy ::            1.277392822089
                                        Confinement ::            0.347387772086

 Orbital energies  State     L     Occupation   Energy[a.u.]          Energy[eV]

                       1     0          2.000      -0.861522          -23.443215
 
                       1     1          4.000      -0.315021           -8.572154
 

 Total Electron Density at R=0:                                         0.000093

 Guess for atomic kind: H

 Electronic structure
    Total number of core electrons                                          0.00
    Total number of valence electrons                                       1.00
    Total number of electrons                                               1.00
    Multiplicity                                                   not specified
    S      1.00
 

 *******************************************************************************
                  Iteration          Convergence                     Energy [au]
 *******************************************************************************
                          1        0.250972E-02                  -0.375256815885
                          2        0.570752E-04                  -0.375258666164
                          3        0.832405E-09                  -0.375258667122

 Energy components [Hartree]           Total Energy ::           -0.375258667122
                                        Band Energy ::           -0.076317618391
                                     Kinetic Energy ::            0.771356566341
                                   Potential Energy ::           -1.146615233463
                                      Virial (-V/T) ::            1.486491829455
                                        Core Energy ::           -0.456090715790
                                          XC Energy ::           -0.314218627334
                                     Coulomb Energy ::            0.395050676003
                       Total Pseudopotential Energy ::           -1.238482237174
                       Local Pseudopotential Energy ::           -1.238482237174
                    Nonlocal Pseudopotential Energy ::            0.000000000000
                                        Confinement ::            0.110349550431

 Orbital energies  State     L     Occupation   Energy[a.u.]          Energy[eV]

                       1     0          1.000      -0.076318           -2.076708
 

 Total Electron Density at R=0:                                         0.425022

 Spin 1
 Re-scaling the density matrix to get the right number of electrons for spin 1
                  # Electrons              Trace(P)               Scaling factor
                            8                 8.004                        0.999

 Spin 2
 Re-scaling the density matrix to get the right number of electrons for spin 2
                  # Electrons              Trace(P)               Scaling factor
                            8                 8.004                        0.999


 SCF WAVEFUNCTION OPTIMIZATION

  ----------------------------------- OT ---------------------------------------
  Minimizer      : CG                  : conjugate gradient
  Preconditioner : FULL_ALL            : diagonalization, state selective
  Precond_solver : DEFAULT
  Line search    : 2PNT                : 2 energies, one gradient
  stepsize       :    0.15000000                  energy_gap     :    0.08000000
  eps_taylor     :   0.10000E-15                  max_taylor     :             4
  ----------------------------------- OT ---------------------------------------

  Step     Update method      Time    Convergence         Total energy    Change
  ------------------------------------------------------------------------------
     1 OT CG       0.15E+00    0.6     0.16613877       -31.8727111757 -3.19E+01
     2 OT LS       0.13E+00    0.2                      -33.1025120488
     3 OT CG       0.13E+00    0.4     0.17815508       -33.1982177548 -1.33E+00
     4 OT LS       0.55E-01    0.2                      -32.8181639769
     5 OT CG       0.55E-01    0.5     0.10611482       -33.7807482359 -5.83E-01
     6 OT LS       0.12E+00    0.2                      -34.1326809053
     7 OT CG       0.12E+00    0.4     0.06112512       -34.2395025389 -4.59E-01
     8 OT LS       0.11E+00    0.3                      -34.3542267989
     9 OT CG       0.11E+00    0.4     0.04157691       -34.3575683048 -1.18E-01
    10 OT LS       0.85E-01    0.3                      -34.4082794329
    11 OT CG       0.85E-01    0.4     0.01738965       -34.4117986997 -5.42E-02
    12 OT LS       0.15E+00    0.2                      -34.4254103853
    13 OT CG       0.15E+00    0.4     0.00929037       -34.4289152610 -1.71E-02
    14 OT LS       0.24E+00    0.2                      -34.4355570487
    15 OT CG       0.24E+00    0.4     0.00592291       -34.4364470571 -7.53E-03
    16 OT LS       0.11E+00    0.2                      -34.4358060364
    17 OT CG       0.11E+00    0.4     0.00308937       -34.4378136402 -1.37E-03
    18 OT LS       0.15E+00    0.2                      -34.4382999484
    19 OT CG       0.15E+00    0.4     0.00171364       -34.4383493752 -5.36E-04
    20 OT LS       0.19E+00    0.2                      -34.4385473852
    21 OT CG       0.19E+00    0.4     0.00117169       -34.4385555766 -2.06E-04
    22 OT LS       0.14E+00    0.3                      -34.4386130421
    23 OT CG       0.14E+00    0.4     0.00061846       -34.4386241952 -6.86E-05
    24 OT LS       0.15E+00    0.2                      -34.4386448079
    25 OT CG       0.15E+00    0.5     0.00039024       -34.4386449300 -2.07E-05
    26 OT LS       0.15E+00    0.2                      -34.4386533779
    27 OT CG       0.15E+00    0.4     0.00025175       -34.4386533826 -8.45E-06
    28 OT LS       0.16E+00    0.2                      -34.4386569959
    29 OT CG       0.16E+00    0.4     0.00012750       -34.4386569986 -3.62E-06
    30 OT LS       0.16E+00    0.2                      -34.4386579353
    31 OT CG       0.16E+00    0.4     0.00007884       -34.4386579354 -9.37E-07
    32 OT LS       0.14E+00    0.3                      -34.4386582481
    33 OT CG       0.14E+00    0.4     0.00004884       -34.4386582532 -3.18E-07
    34 OT LS       0.17E+00    0.2                      -34.4386583955
    35 OT CG       0.17E+00    0.4     0.00002975       -34.4386583995 -1.46E-07
    36 OT LS       0.14E+00    0.2                      -34.4386584456
    37 OT CG       0.14E+00    0.4     0.00001890       -34.4386584467 -4.72E-08
    38 OT LS       0.15E+00    0.2                      -34.4386584669
    39 OT CG       0.15E+00    0.3     0.00001105       -34.4386584670 -2.03E-08
    40 OT LS       0.18E+00    0.2                      -34.4386584749
    41 OT CG       0.18E+00    0.3     0.00000643       -34.4386584750 -8.00E-09
    42 OT LS       0.15E+00    0.2                      -34.4386584771
    43 OT CG       0.15E+00    0.3     0.00000471       -34.4386584772 -2.21E-09

  *** SCF run converged in    43 steps ***


  Electronic density on regular grids:        -15.9999997873        0.0000002127
  Core density on regular grids:               16.0000000000        0.0000000000
  Total charge density on r-space grids:        0.0000002127
  Total charge density g-space grids:           0.0000002127

  Overlap energy of the core charge distribution:               0.00000005463160
  Self energy of the core charge distribution:                -88.69430999347530
  Core Hamiltonian energy:                                     25.91669207370336
  Hartree energy:                                              36.83221716639986
  Exchange-correlation energy:                                 -8.49067115565837
  Dispersion energy:                                           -0.00258662283624

  Total energy:                                               -34.43865847723509

  outer SCF iter =    1 RMS gradient =   0.47E-05 energy =        -34.4386584772
  outer SCF loop converged in   1 iterations or   43 steps


  Integrated absolute spin density  :                               0.0000000000
  Ideal and single determinant S**2 :                    0.000000      -0.000000

 !-----------------------------------------------------------------------------!
                     Mulliken Population Analysis

 #  Atom  Element  Kind  Atomic population (alpha,beta) Net charge  Spin moment
       1     O        1         3.207214     3.207214    -0.414428    -0.000000
       2     H        2         0.441983     0.441983     0.116033    -0.000000
       3     H        2         0.436760     0.436760     0.126481    -0.000000
       4     O        1         3.078665     3.078665    -0.157329    -0.000000
       5     H        2         0.417803     0.417803     0.164394    -0.000000
       6     H        2         0.417575     0.417575     0.164849    -0.000000
 # Total charge and spin        8.000000     8.000000    -0.000000    -0.000000

 !-----------------------------------------------------------------------------!

 !-----------------------------------------------------------------------------!
                           Hirshfeld Charges

  #Atom  Element  Kind  Ref Charge     Population       Spin moment  Net charge
      1       O      1       6.000    3.602   3.602           -0.000     -1.205
      2       H      2       1.000    0.225   0.225           -0.000      0.550
      3       H      2       1.000    0.195   0.195           -0.000      0.610
      4       O      1       6.000    3.558   3.558           -0.000     -1.117
      5       H      2       1.000    0.214   0.214           -0.000      0.573
      6       H      2       1.000    0.205   0.205           -0.000      0.589

  Total Charge                                                            0.001
 !-----------------------------------------------------------------------------!

 ENERGY| Total FORCE_EVAL ( QS ) energy (a.u.):              -32.992951439988317


 --------  Informations at step =     0 ------------
  Optimization Method        =                 BFGS
  Total Energy               =       -32.9929514400
  Used time                  =               15.795
 ---------------------------------------------------

 --------------------------
 OPTIMIZATION STEP:      1
 --------------------------

  Step is scaled; Scaling factor =  0.04045

 Spin 1

 Number of electrons:                                                          8
 Number of occupied orbitals:                                                  8
 Number of molecular orbitals:                                                 8

 Spin 2

 Number of electrons:                                                          8
 Number of occupied orbitals:                                                  8
 Number of molecular orbitals:                                                 8

 Number of orbital functions:                                                 46
 Number of independent orbital functions:                                     46

 Parameters for the always stable predictor-corrector (ASPC) method:

  ASPC order: 0

  B(1) =   1.000000

 Parameters for the always stable predictor-corrector (ASPC) method:

  ASPC order: 0

  B(1) =   1.000000

 Extrapolation method: ASPC


 SCF WAVEFUNCTION OPTIMIZATION

  ----------------------------------- OT ---------------------------------------
  Minimizer      : CG                  : conjugate gradient
  Preconditioner : FULL_ALL            : diagonalization, state selective
  Precond_solver : DEFAULT
  Line search    : 2PNT                : 2 energies, one gradient
  stepsize       :    0.15000000                  energy_gap     :    0.08000000
  eps_taylor     :   0.10000E-15                  max_taylor     :             4
  ----------------------------------- OT ---------------------------------------

  Step     Update method      Time    Convergence         Total energy    Change
  ------------------------------------------------------------------------------
     1 OT CG       0.15E+00    0.2     0.03261905       -33.9410961027 -3.39E+01
     2 OT LS       0.35E+00    0.2                      -34.0333964197
     3 OT CG       0.35E+00    0.3     0.01852516       -34.0757256571 -1.35E-01
     4 OT LS       0.20E+00    0.2                      -34.0872150492
     5 OT CG       0.20E+00    0.3     0.00385064       -34.1001388578 -2.44E-02
     6 OT LS       0.27E+00    0.2                      -34.1015106053
     7 OT CG       0.27E+00    0.3     0.00112664       -34.1015958091 -1.46E-03
     8 OT LS       0.22E+00    0.2                      -34.1016935427
     9 OT CG       0.22E+00    0.3     0.00025320       -34.1016982814 -1.02E-04
    10 OT LS       0.29E+00    0.2                      -34.1017047696
    11 OT CG       0.29E+00    0.3     0.00012491       -34.1017051997 -6.92E-06
    12 OT LS       0.21E+00    0.2                      -34.1017062203
    13 OT CG       0.21E+00    0.3     0.00002542       -34.1017064073 -1.21E-06
    14 OT LS       0.34E+00    0.2                      -34.1017064765
    15 OT CG       0.34E+00    0.3     0.00000475       -34.1017064884 -8.11E-08

  *** SCF run converged in    15 steps ***


  Electronic density on regular grids:        -15.9999999198        0.0000000802
  Core density on regular grids:               16.0000000000       -0.0000000000
  Total charge density on r-space grids:        0.0000000802
  Total charge density g-space grids:           0.0000000802

  Overlap energy of the core charge distribution:               0.00011399376497
  Self energy of the core charge distribution:                -88.69430999347530
  Core Hamiltonian energy:                                     26.83456216726740
  Hartree energy:                                              36.42976143252407
  Exchange-correlation energy:                                 -8.66930654468761
  Dispersion energy:                                           -0.00252754379427

  Total energy:                                               -34.10170648840074

  outer SCF iter =    1 RMS gradient =   0.48E-05 energy =        -34.1017064884
  outer SCF loop converged in   1 iterations or   15 steps


  Integrated absolute spin density  :                               0.0000000000
  Ideal and single determinant S**2 :                    0.000000      -0.000000

 !-----------------------------------------------------------------------------!
                     Mulliken Population Analysis

 #  Atom  Element  Kind  Atomic population (alpha,beta) Net charge  Spin moment
       1     O        1         3.323704     3.323704    -0.647409     0.000000
       2     H        2         0.456361     0.456361     0.087278     0.000000
       3     H        2         0.546585     0.546585    -0.093171     0.000000
       4     O        1         2.852029     2.852029     0.295943     0.000000
       5     H        2         0.411024     0.411024     0.177951     0.000000
       6     H        2         0.410297     0.410297     0.179407     0.000000
 # Total charge and spin        8.000000     8.000000    -0.000000     0.000000

 !-----------------------------------------------------------------------------!

 !-----------------------------------------------------------------------------!
                           Hirshfeld Charges

  #Atom  Element  Kind  Ref Charge     Population       Spin moment  Net charge
      1       O      1       6.000    3.647   3.647            0.000     -1.294
      2       H      2       1.000    0.231   0.231            0.000      0.538
      3       H      2       1.000    0.258   0.258            0.000      0.484
      4       O      1       6.000    3.462   3.462            0.000     -0.925
      5       H      2       1.000    0.206   0.206            0.000      0.588
      6       H      2       1.000    0.195   0.195            0.000      0.609

  Total Charge                                                            0.001
 !-----------------------------------------------------------------------------!

 ENERGY| Total FORCE_EVAL ( QS ) energy (a.u.):              -28.507506265914131


 --------  Informations at step =     1 ------------
  Optimization Method        =                 BFGS
  Total Energy               =       -28.5075062659
  Real energy change         =         4.4854451741
  Predicted change in energy =        -8.5573750961
  Scaling factor             =         0.0404498110
  Step size                  =         0.4724315332
  Trust radius               =         0.4724315332
  Decrease in energy         =                   NO
  Used time                  =                4.561

  Convergence check :
  Max. step size             =         0.4724315332
  Conv. limit for step size  =         0.0030000000
  Convergence in step size   =                   NO
  RMS step size              =         0.2435774124
  Conv. limit for RMS step   =         0.0015000000
  Convergence in RMS step    =                   NO
  Max. gradient              =        14.2851938656
  Conv. limit for gradients  =         0.0004500000
  Conv. for gradients        =                   NO
  RMS gradient               =         5.2829897171
  Conv. limit for RMS grad.  =         0.0003000000
  Conv. for gradients        =                   NO
 ---------------------------------------------------

 --------------------------
 OPTIMIZATION STEP:      2
 --------------------------

  Step is scaled; Scaling factor =  0.04797

 Spin 1

 Number of electrons:                                                          8
 Number of occupied orbitals:                                                  8
 Number of molecular orbitals:                                                 8

 Spin 2

 Number of electrons:                                                          8
 Number of occupied orbitals:                                                  8
 Number of molecular orbitals:                                                 8

 Number of orbital functions:                                                 46
 Number of independent orbital functions:                                     46

 Parameters for the always stable predictor-corrector (ASPC) method:

  ASPC order: 0

  B(1) =   2.000000
  B(2) =  -1.000000

 Parameters for the always stable predictor-corrector (ASPC) method:

  ASPC order: 0

  B(1) =   2.000000
  B(2) =  -1.000000

 Extrapolation method: ASPC


 SCF WAVEFUNCTION OPTIMIZATION

  ----------------------------------- OT ---------------------------------------
  Minimizer      : CG                  : conjugate gradient
  Preconditioner : FULL_ALL            : diagonalization, state selective
  Precond_solver : DEFAULT
  Line search    : 2PNT                : 2 energies, one gradient
  stepsize       :    0.15000000                  energy_gap     :    0.08000000
  eps_taylor     :   0.10000E-15                  max_taylor     :             4
  ----------------------------------- OT ---------------------------------------

  Step     Update method      Time    Convergence         Total energy    Change
  ------------------------------------------------------------------------------
     1 OT CG       0.15E+00    0.2     0.04350470       -33.9678285739 -3.40E+01
     2 OT LS       0.35E+00    0.2                      -34.1313981603
     3 OT CG       0.35E+00    0.3     0.02500199       -34.2022660339 -2.34E-01
     4 OT LS       0.21E+00    0.2                      -34.2278345497
     5 OT CG       0.21E+00    0.3     0.00454729       -34.2479065266 -4.56E-02
     6 OT LS       0.25E+00    0.2                      -34.2497742597
     7 OT CG       0.25E+00    0.3     0.00183796       -34.2498394200 -1.93E-03
     8 OT LS       0.22E+00    0.2                      -34.2501075598
     9 OT CG       0.22E+00    0.3     0.00046664       -34.2501140489 -2.75E-04
    10 OT LS       0.33E+00    0.2                      -34.2501373962
    11 OT CG       0.33E+00    0.3     0.00012691       -34.2501401419 -2.61E-05
    12 OT LS       0.31E+00    0.2                      -34.2501419747
    13 OT CG       0.31E+00    0.3     0.00006426       -34.2501419795 -1.84E-06
    14 OT LS       0.23E+00    0.2                      -34.2501422903
    15 OT CG       0.23E+00    0.3     0.00001818       -34.2501423309 -3.51E-07
    16 OT LS       0.30E+00    0.2                      -34.2501423653
    17 OT CG       0.30E+00    0.3     0.00000425       -34.2501423671 -3.62E-08

  *** SCF run converged in    17 steps ***


  Electronic density on regular grids:        -15.9999999946        0.0000000054
  Core density on regular grids:               16.0000000000        0.0000000000
  Total charge density on r-space grids:        0.0000000055
  Total charge density g-space grids:           0.0000000055

  Overlap energy of the core charge distribution:               0.00000022946542
  Self energy of the core charge distribution:                -88.69430999347530
  Core Hamiltonian energy:                                     26.17772020827115
  Hartree energy:                                              36.78517607308970
  Exchange-correlation energy:                                 -8.51617977968451
  Dispersion energy:                                           -0.00254910478488

  Total energy:                                               -34.25014236711840

  outer SCF iter =    1 RMS gradient =   0.43E-05 energy =        -34.2501423671
  outer SCF loop converged in   1 iterations or   17 steps


  Integrated absolute spin density  :                               0.0000000000
  Ideal and single determinant S**2 :                    0.000000      -0.000000

 !-----------------------------------------------------------------------------!
                     Mulliken Population Analysis

 #  Atom  Element  Kind  Atomic population (alpha,beta) Net charge  Spin moment
       1     O        1         3.297985     3.297985    -0.595970    -0.000000
       2     H        2         0.455053     0.455053     0.089895    -0.000000
       3     H        2         0.484089     0.484089     0.031821    -0.000000
       4     O        1         2.974520     2.974520     0.050960    -0.000000
       5     H        2         0.397896     0.397896     0.204208    -0.000000
       6     H        2         0.390457     0.390457     0.219086    -0.000000
 # Total charge and spin        8.000000     8.000000    -0.000000    -0.000000

 !-----------------------------------------------------------------------------!

 !-----------------------------------------------------------------------------!
                           Hirshfeld Charges

  #Atom  Element  Kind  Ref Charge     Population       Spin moment  Net charge
      1       O      1       6.000    3.630   3.630           -0.000     -1.260
      2       H      2       1.000    0.232   0.232           -0.000      0.536
      3       H      2       1.000    0.213   0.213           -0.000      0.574
      4       O      1       6.000    3.512   3.512           -0.000     -1.023
      5       H      2       1.000    0.212   0.212           -0.000      0.575
      6       H      2       1.000    0.200   0.200           -0.000      0.600

  Total Charge                                                            0.002
 !-----------------------------------------------------------------------------!

 ENERGY| Total FORCE_EVAL ( QS ) energy (a.u.):              -32.890358302449705


 --------  Informations at step =     2 ------------
  Optimization Method        =                 BFGS
  Total Energy               =       -32.8903583024
  Real energy change         =        -4.3828520365
  Predicted change in energy =        -1.4928245678
  Scaling factor             =         0.0479701846
  Step size                  =         0.4724315332
  Trust radius               =         0.4724315332
  Decrease in energy         =                   NO
  Used time                  =                5.350

  Convergence check :
  Max. step size             =         0.4724315332
  Conv. limit for step size  =         0.0030000000
  Convergence in step size   =                   NO
  RMS step size              =         0.1631245157
  Conv. limit for RMS step   =         0.0015000000
  Convergence in RMS step    =                   NO
  Max. gradient              =         6.4113147428
  Conv. limit for gradients  =         0.0004500000
  Conv. for gradients        =                   NO
  RMS gradient               =         2.5582487147
  Conv. limit for RMS grad.  =         0.0003000000
  Conv. for gradients        =                   NO
 ---------------------------------------------------

 --------------------------
 OPTIMIZATION STEP:      3
 --------------------------

  Step is scaled; Scaling factor =  0.00002

 Spin 1

 Number of electrons:                                                          8
 Number of occupied orbitals:                                                  8
 Number of molecular orbitals:                                                 8

 Spin 2

 Number of electrons:                                                          8
 Number of occupied orbitals:                                                  8
 Number of molecular orbitals:                                                 8

 Number of orbital functions:                                                 46
 Number of independent orbital functions:                                     46

 Parameters for the always stable predictor-corrector (ASPC) method:

  ASPC order: 1

  B(1) =   2.500000
  B(2) =  -2.000000
  B(3) =   0.500000

 Parameters for the always stable predictor-corrector (ASPC) method:

  ASPC order: 1

  B(1) =   2.500000
  B(2) =  -2.000000
  B(3) =   0.500000

 Extrapolation method: ASPC


 SCF WAVEFUNCTION OPTIMIZATION

  ----------------------------------- OT ---------------------------------------
  Minimizer      : CG                  : conjugate gradient
  Preconditioner : FULL_ALL            : diagonalization, state selective
  Precond_solver : DEFAULT
  Line search    : 2PNT                : 2 energies, one gradient
  stepsize       :    0.15000000                  energy_gap     :    0.08000000
  eps_taylor     :   0.10000E-15                  max_taylor     :             4
  ----------------------------------- OT ---------------------------------------

  Step     Update method      Time    Convergence         Total energy    Change
  ------------------------------------------------------------------------------
     1 OT CG       0.15E+00    0.2     0.04989598       -33.9456799395 -3.39E+01
     2 OT LS       0.40E+00    0.2                      -34.1686137852
     3 OT CG       0.40E+00    0.3     0.02025248       -34.3107578067 -3.65E-01
     4 OT LS       0.21E+00    0.2                      -34.3173176520
     5 OT CG       0.21E+00    0.3     0.00235000       -34.3431314991 -3.24E-02
     6 OT LS       0.33E+00    0.2                      -34.3437120754
     7 OT CG       0.33E+00    0.3     0.00079539       -34.3437981480 -6.67E-04
     8 OT LS       0.25E+00    0.2                      -34.3438521481
     9 OT CG       0.25E+00    0.3     0.00027223       -34.3438571820 -5.90E-05
    10 OT LS       0.32E+00    0.2                      -34.3438654660
    11 OT CG       0.32E+00    0.3     0.00003047       -34.3438658030 -8.62E-06
    12 OT LS       0.38E+00    0.2                      -34.3438659292
    13 OT CG       0.38E+00    0.3     0.00000776       -34.3438659328 -1.30E-07
    14 OT LS       0.25E+00    0.2                      -34.3438659369
    15 OT CG       0.25E+00    0.3     0.00000251       -34.3438659384 -5.56E-09

  *** SCF run converged in    15 steps ***


  Electronic density on regular grids:        -16.0000000480       -0.0000000480
  Core density on regular grids:               16.0000000001        0.0000000001
  Total charge density on r-space grids:       -0.0000000479
  Total charge density g-space grids:          -0.0000000479

  Overlap energy of the core charge distribution:               0.00001130079753
  Self energy of the core charge distribution:                -88.69430999347530
  Core Hamiltonian energy:                                     26.70335019957742
  Hartree energy:                                              36.33451226703734
  Exchange-correlation energy:                                 -8.68480486783974
  Dispersion energy:                                           -0.00262484449293

  Total energy:                                               -34.34386593839569

  outer SCF iter =    1 RMS gradient =   0.25E-05 energy =        -34.3438659384
  outer SCF loop converged in   1 iterations or   15 steps


  Integrated absolute spin density  :                               0.0000000000
  Ideal and single determinant S**2 :                    0.000000       0.000000

 !-----------------------------------------------------------------------------!
                     Mulliken Population Analysis

 #  Atom  Element  Kind  Atomic population (alpha,beta) Net charge  Spin moment
       1     O        1         3.094886     3.094886    -0.189773    -0.000000
       2     H        2         0.439062     0.439062     0.121877    -0.000000
       3     H        2         0.504983     0.504983    -0.009967    -0.000000
       4     O        1         3.066281     3.066281    -0.132563     0.000000
       5     H        2         0.440243     0.440243     0.119514    -0.000000
       6     H        2         0.454544     0.454544     0.090912     0.000000
 # Total charge and spin        8.000000     8.000000     0.000000     0.000000

 !-----------------------------------------------------------------------------!

 !-----------------------------------------------------------------------------!
                           Hirshfeld Charges

  #Atom  Element  Kind  Ref Charge     Population       Spin moment  Net charge
      1       O      1       6.000    3.539   3.539           -0.000     -1.079
      2       H      2       1.000    0.222   0.222           -0.000      0.557
      3       H      2       1.000    0.244   0.244           -0.000      0.512
      4       O      1       6.000    3.558   3.558            0.000     -1.116
      5       H      2       1.000    0.216   0.216           -0.000      0.568
      6       H      2       1.000    0.220   0.220            0.000      0.560

  Total Charge                                                            0.001
 !-----------------------------------------------------------------------------!

 ENERGY| Total FORCE_EVAL ( QS ) energy (a.u.):              -31.661169653785365


 --------  Informations at step =     3 ------------
  Optimization Method        =                 BFGS
  Total Energy               =       -31.6611696538
  Real energy change         =         1.2291886487
  Predicted change in energy =       -27.2392521541
  Scaling factor             =         0.0000214693
  Step size                  =         0.4724315332
  Trust radius               =         0.4724315332
  Decrease in energy         =                   NO
  Used time                  =                4.779

  Convergence check :
  Max. step size             =         0.4724315332
  Conv. limit for step size  =         0.0030000000
  Convergence in step size   =                   NO
  RMS step size              =         0.2296313067
  Conv. limit for RMS step   =         0.0015000000
  Convergence in RMS step    =                   NO
  Max. gradient              =         9.6046550135
  Conv. limit for gradients  =         0.0004500000
  Conv. for gradients        =                   NO
  RMS gradient               =         3.5083938833
  Conv. limit for RMS grad.  =         0.0003000000
  Conv. for gradients        =                   NO
 ---------------------------------------------------

 --------------------------
 OPTIMIZATION STEP:      4
 --------------------------

  Step is scaled; Scaling factor =  0.29674

 Spin 1

 Number of electrons:                                                          8
 Number of occupied orbitals:                                                  8
 Number of molecular orbitals:                                                 8

 Spin 2

 Number of electrons:                                                          8
 Number of occupied orbitals:                                                  8
 Number of molecular orbitals:                                                 8

 Number of orbital functions:                                                 46
 Number of independent orbital functions:                                     46

 Parameters for the always stable predictor-corrector (ASPC) method:

  ASPC order: 2

  B(1) =   2.800000
  B(2) =  -2.800000
  B(3) =   1.200000
  B(4) =  -0.200000

 Parameters for the always stable predictor-corrector (ASPC) method:

  ASPC order: 2

  B(1) =   2.800000
  B(2) =  -2.800000
  B(3) =   1.200000
  B(4) =  -0.200000

 Extrapolation method: ASPC


 SCF WAVEFUNCTION OPTIMIZATION

  ----------------------------------- OT ---------------------------------------
  Minimizer      : CG                  : conjugate gradient
  Preconditioner : FULL_ALL            : diagonalization, state selective
  Precond_solver : DEFAULT
  Line search    : 2PNT                : 2 energies, one gradient
  stepsize       :    0.15000000                  energy_gap     :    0.08000000
  eps_taylor     :   0.10000E-15                  max_taylor     :             4
  ----------------------------------- OT ---------------------------------------

  Step     Update method      Time    Convergence         Total energy    Change
  ------------------------------------------------------------------------------
     1 OT CG       0.15E+00    0.2     0.08679119       -33.3561158809 -3.34E+01
     2 OT LS       0.36E+00    0.2                      -34.0151001375
     3 OT CG       0.36E+00    0.3     0.05356433       -34.2152521489 -8.59E-01
     4 OT LS       0.15E+00    0.2                      -34.1217785226
     5 OT CG       0.15E+00    0.3     0.03261911       -34.3017922381 -8.65E-02
     6 OT LS       0.17E+00    0.2                      -34.3670496852
     7 OT CG       0.17E+00    0.3     0.01062706       -34.3682870209 -6.65E-02
     8 OT LS       0.21E+00    0.2                      -34.3768583562
     9 OT CG       0.21E+00    0.3     0.00276010       -34.3771827173 -8.90E-03
    10 OT LS       0.23E+00    0.2                      -34.3778179166
    11 OT CG       0.23E+00    0.3     0.00117998       -34.3778230367 -6.40E-04
    12 OT LS       0.18E+00    0.2                      -34.3779103413
    13 OT CG       0.18E+00    0.3     0.00042000       -34.3779168959 -9.39E-05
    14 OT LS       0.23E+00    0.2                      -34.3779314007
    15 OT CG       0.23E+00    0.3     0.00011215       -34.3779321295 -1.52E-05
    16 OT LS       0.24E+00    0.2                      -34.3779332295
    17 OT CG       0.24E+00    0.3     0.00004117       -34.3779332297 -1.10E-06
    18 OT LS       0.23E+00    0.2                      -34.3779333719
    19 OT CG       0.23E+00    0.3     0.00001432       -34.3779333722 -1.42E-07
    20 OT LS       0.25E+00    0.2                      -34.3779333906
    21 OT CG       0.25E+00    0.3     0.00000426       -34.3779333907 -1.86E-08

  *** SCF run converged in    21 steps ***


  Electronic density on regular grids:        -16.0000000632       -0.0000000632
  Core density on regular grids:               16.0000000000       -0.0000000000
  Total charge density on r-space grids:       -0.0000000632
  Total charge density g-space grids:          -0.0000000632

  Overlap energy of the core charge distribution:               0.00000002535361
  Self energy of the core charge distribution:                -88.69430999347530
  Core Hamiltonian energy:                                     25.77790910036129
  Hartree energy:                                              36.97684729515500
  Exchange-correlation energy:                                 -8.43579751965537
  Dispersion energy:                                           -0.00258229848806

  Total energy:                                               -34.37793339074883

  outer SCF iter =    1 RMS gradient =   0.43E-05 energy =        -34.3779333907
  outer SCF loop converged in   1 iterations or   21 steps


  Integrated absolute spin density  :                               0.0000000000
  Ideal and single determinant S**2 :                    0.000000      -0.000000

 !-----------------------------------------------------------------------------!
                     Mulliken Population Analysis

 #  Atom  Element  Kind  Atomic population (alpha,beta) Net charge  Spin moment
       1     O        1         3.221858     3.221858    -0.443717     0.000000
       2     H        2         0.451887     0.451887     0.096225    -0.000000
       3     H        2         0.422657     0.422657     0.154686    -0.000000
       4     O        1         3.099280     3.099280    -0.198561    -0.000000
       5     H        2         0.401936     0.401936     0.196128    -0.000000
       6     H        2         0.402381     0.402381     0.195238     0.000000
 # Total charge and spin        8.000000     8.000000    -0.000000     0.000000

 !-----------------------------------------------------------------------------!

 !-----------------------------------------------------------------------------!
                           Hirshfeld Charges

  #Atom  Element  Kind  Ref Charge     Population       Spin moment  Net charge
      1       O      1       6.000    3.598   3.598            0.000     -1.195
      2       H      2       1.000    0.230   0.230           -0.000      0.540
      3       H      2       1.000    0.196   0.196           -0.000      0.608
      4       O      1       6.000    3.564   3.564           -0.000     -1.128
      5       H      2       1.000    0.210   0.210           -0.000      0.580
      6       H      2       1.000    0.202   0.202            0.000      0.595

  Total Charge                                                            0.001
 !-----------------------------------------------------------------------------!

 ENERGY| Total FORCE_EVAL ( QS ) energy (a.u.):              -33.274669045465593


 --------  Informations at step =     4 ------------
  Optimization Method        =                 BFGS
  Total Energy               =       -33.2746690455
  Real energy change         =        -1.6134993917
  Predicted change in energy =        -3.7266671189
  Scaling factor             =         0.2967382346
  Step size                  =         0.4724315332
  Trust radius               =         0.4724315332
  Decrease in energy         =                  YES
  Used time                  =                6.350

  Convergence check :
  Max. step size             =         0.4724315332
  Conv. limit for step size  =         0.0030000000
  Convergence in step size   =                   NO
  RMS step size              =         0.1913022654
  Conv. limit for RMS step   =         0.0015000000
  Convergence in RMS step    =                   NO
[...]

 Parameters for the always stable predictor-corrector (ASPC) method:

  ASPC order: 3

  B(1) =   3.000000
  B(2) =  -3.428571
  B(3) =   1.928571
  B(4) =  -0.571429
  B(5) =   0.071429

 Parameters for the always stable predictor-corrector (ASPC) method:

  ASPC order: 3

  B(1) =   3.000000
  B(2) =  -3.428571
  B(3) =   1.928571
  B(4) =  -0.571429
  B(5) =   0.071429

 Extrapolation method: ASPC


 SCF WAVEFUNCTION OPTIMIZATION

  ----------------------------------- OT ---------------------------------------
  Minimizer      : CG                  : conjugate gradient
  Preconditioner : FULL_ALL            : diagonalization, state selective
  Precond_solver : DEFAULT
  Line search    : 2PNT                : 2 energies, one gradient
  stepsize       :    0.15000000                  energy_gap     :    0.08000000
  eps_taylor     :   0.10000E-15                  max_taylor     :             4
  ----------------------------------- OT ---------------------------------------

  Step     Update method      Time    Convergence         Total energy    Change
  ------------------------------------------------------------------------------
     1 OT CG       0.15E+00    0.2     0.00005290       -34.4156091101 -3.44E+01
     2 OT LS       0.49E+00    0.2                      -34.4156093716
     3 OT CG       0.49E+00    0.3     0.00000793       -34.4156096123 -5.02E-07
     4 OT LS       0.22E+00    0.2                      -34.4156096095
     5 OT CG       0.22E+00    0.3     0.00000202       -34.4156096173 -5.02E-09

  *** SCF run converged in     5 steps ***


  Electronic density on regular grids:        -15.9999997708        0.0000002292
  Core density on regular grids:               16.0000000000       -0.0000000000
  Total charge density on r-space grids:        0.0000002292
  Total charge density g-space grids:           0.0000002292

  Overlap energy of the core charge distribution:               0.00000005224421
  Self energy of the core charge distribution:                -88.69430999347530
  Core Hamiltonian energy:                                     25.94425815204335
  Hartree energy:                                              36.83156592732890
  Exchange-correlation energy:                                 -8.49455175399209
  Dispersion energy:                                           -0.00257200146730

  Total energy:                                               -34.41560961731822

  outer SCF iter =    1 RMS gradient =   0.20E-05 energy =        -34.4156096173
  outer SCF loop converged in   1 iterations or    5 steps


  Integrated absolute spin density  :                               0.0000000000
  Ideal and single determinant S**2 :                    0.000000       0.000000

 !-----------------------------------------------------------------------------!
                     Mulliken Population Analysis

 #  Atom  Element  Kind  Atomic population (alpha,beta) Net charge  Spin moment
       1     O        1         3.275856     3.275856    -0.551711    -0.000000
       2     H        2         0.452949     0.452949     0.094101    -0.000000
       3     H        2         0.445749     0.445749     0.108503    -0.000000
       4     O        1         3.002403     3.002403    -0.004806    -0.000000
       5     H        2         0.412224     0.412224     0.175553    -0.000000
       6     H        2         0.410820     0.410820     0.178361    -0.000000
 # Total charge and spin        8.000000     8.000000     0.000000    -0.000000

 !-----------------------------------------------------------------------------!

 !-----------------------------------------------------------------------------!
                           Hirshfeld Charges

  #Atom  Element  Kind  Ref Charge     Population       Spin moment  Net charge
      1       O      1       6.000    3.636   3.636           -0.000     -1.272
      2       H      2       1.000    0.227   0.227           -0.000      0.546
      3       H      2       1.000    0.194   0.194           -0.000      0.612
      4       O      1       6.000    3.531   3.531           -0.000     -1.061
      5       H      2       1.000    0.209   0.209           -0.000      0.583
      6       H      2       1.000    0.203   0.203           -0.000      0.593

  Total Charge                                                            0.001
 !-----------------------------------------------------------------------------!

 ENERGY| Total FORCE_EVAL ( QS ) energy (a.u.):              -34.415409504315306


 -------------------------------------------------------------------------------
 -                                                                             -
 -                                DBCSR STATISTICS                             -
 -                                                                             -
 -------------------------------------------------------------------------------
 COUNTER                                    TOTAL       BLAS       SMM       ACC
 flops     5 x     8 x     8              2251520     100.0%      0.0%      0.0%
 flops    10 x     8 x     5              3801600     100.0%      0.0%      0.0%
 flops     5 x     5 x     8              4424000     100.0%      0.0%      0.0%
 flops    10 x     8 x     8              4503040     100.0%      0.0%      0.0%
 flops     5 x    13 x     8              4600960     100.0%      0.0%      0.0%
 flops    13 x     5 x     8              4600960     100.0%      0.0%      0.0%
 flops    10 x     8 x    13              4942080     100.0%      0.0%      0.0%
 flops     8 x     8 x     8              5081088     100.0%      0.0%      0.0%
 flops     8 x     8 x     5              6579200     100.0%      0.0%      0.0%
 flops     8 x     8 x    13              8552960     100.0%      0.0%      0.0%
 flops    13 x    13 x     8              8971872     100.0%      0.0%      0.0%
 flops    31 x     8 x     5             11784960     100.0%      0.0%      0.0%
 flops    31 x     8 x     8             13959424     100.0%      0.0%      0.0%
 flops    31 x     8 x    13             15320448     100.0%      0.0%      0.0%
 flops     5 x     8 x     5             16979200     100.0%      0.0%      0.0%
 flops    13 x     8 x     5             19601920     100.0%      0.0%      0.0%
 flops     5 x     8 x    13             22072960     100.0%      0.0%      0.0%
 flops    13 x     8 x    13             25482496     100.0%      0.0%      0.0%
 flops inhomo. stacks                           0       0.0%      0.0%      0.0%
 flops total                       183.510688E+06     100.0%      0.0%      0.0%
 flops max/rank                    125.154688E+06     100.0%      0.0%      0.0%
 matmuls inhomo. stacks                         0       0.0%      0.0%      0.0%
 matmuls total                             160362     100.0%      0.0%      0.0%
 number of processed stacks                126560     100.0%      0.0%      0.0%
 average stack size                                     1.3       0.0       0.0
 marketing flops                   198.830640E+06
 -------------------------------------------------------------------------------
 # multiplications                          15780
 max memory usage/rank             218.288128E+06
 # max total images/rank                        5
 # max 3D layers                                1
 # MPI messages exchanged                39765600
 MPI messages size (bytes):
  total size                       983.789568E+06
  min size                           0.000000E+00
  max size                           3.224000E+03
  average size                      24.739714E+00
 MPI breakdown and total messages size (bytes):
             size <=      128            38426940                        0
       128 < size <=     8192             1338660                983789568
      8192 < size <=    32768                   0                        0
     32768 < size <=   131072                   0                        0
    131072 < size <=  4194304                   0                        0
   4194304 < size <= 16777216                   0                        0
  16777216 < size                               0                        0
 -------------------------------------------------------------------------------

 *** WARNING in dbcsr/mm/dbcsr_mm.F:268 :: Using a non-square number of ***
 *** MPI ranks might lead to poor performance.                          ***
 *** Used ranks: 40                                                     ***
 *** Suggested: 36 81                                                   ***

 -------------------------------------------------------------------------------
 
 MEMORY| Estimated peak process memory [MiB]                                 209

 -------------------------------------------------------------------------------
 ----                             MULTIGRID INFO                            ----
 -------------------------------------------------------------------------------
 count for grid        1:         284969          cutoff [a.u.]          150.00
 count for grid        2:         123172          cutoff [a.u.]           50.00
 count for grid        3:         131202          cutoff [a.u.]           16.67
 count for grid        4:          72628          cutoff [a.u.]            5.56
 count for grid        5:            600          cutoff [a.u.]            1.85
 total gridlevel count  :         612571

 -------------------------------------------------------------------------------
 -                                                                             -
 -                         MESSAGE PASSING PERFORMANCE                         -
 -                                                                             -
 -------------------------------------------------------------------------------

 ROUTINE             CALLS      AVE VOLUME [Bytes]
 MP_Group             1768
 MP_Bcast             9181                  16914.
 MP_Allreduce       106405                     15.
 MP_Sync              7152
 MP_Alltoall         87938                  26499.
 MP_SendRecv          6084                    224.
 MP_ISendRecv       323661                  12094.
 MP_Wait           1845021
 MP_comm_split         667
 MP_ISend          2101872                    111.
 MP_IRecv          2092340                     92.
 MP_Recv               304                    288.
 MP_Memory         1998124
 -------------------------------------------------------------------------------


 -------------------------------------------------------------------------------
 -                                                                             -
 -                           R E F E R E N C E S                               -
 -                                                                             -
 -------------------------------------------------------------------------------
 
 CP2K version 7.0 (Development Version), the CP2K developers group (2018).
 CP2K is freely available from https://www.cp2k.org/ .

 Schuett, Ole; Messmer, Peter; Hutter, Juerg; VandeVondele, Joost. 
 Electronic Structure Calculations on Graphics Processing Units, John Wiley & Sons, Ltd, 173-190 (2016). 
 GPU-Accelerated Sparse Matrix-Matrix Multiplication for Linear Scaling Density Functional Theory.
 http://dx.doi.org/10.1002/9781118670712.ch8


 Borstnik, U; VandeVondele, J; Weber, V; Hutter, J. 
 PARALLEL COMPUTING, 40 (5-6), 47-58 (2014). 
 Sparse matrix multiplication: The distributed block-compressed sparse
 row library.
 http://dx.doi.org/10.1016/j.parco.2014.03.012


 Hutter, J; Iannuzzi, M; Schiffmann, F; VandeVondele, J. 
 WILEY INTERDISCIPLINARY REVIEWS-COMPUTATIONAL MOLECULAR SCIENCE, 4 (1), 15-25 (2014). 
 CP2K: atomistic simulations of condensed matter systems.
 http://dx.doi.org/10.1002/wcms.1159


 Grimme, S; Ehrlich, S; Goerigk, L. 
 JOURNAL OF COMPUTATIONAL CHEMISTRY, 32, 1456 (2011). 
 Effect of the damping function in dispersion corrected density functional theory.
 http://dx.doi.org/10.1002/jcc.21759


 Grimme, S; Antony, J; Ehrlich, S; Krieg, H. 
 JOURNAL OF CHEMICAL PHYSICS, 132 (15), 154104 (2010). 
 A consistent and accurate ab initio parametrization of density
 functional dispersion correction (DFT-D) for the 94 elements H-Pu.
 http://dx.doi.org/10.1063/1.3382344


 VandeVondele, J; Hutter, J. 
 JOURNAL OF CHEMICAL PHYSICS, 127 (11), 114105 (2007). 
 Gaussian basis sets for accurate calculations on molecular systems in
 gas and condensed phases.
 http://dx.doi.org/10.1063/1.2770708


 Krack, M. 
 THEORETICAL CHEMISTRY ACCOUNTS, 114 (1-3), 145-152 (2005). 
 Pseudopotentials for H to Kr optimized for gradient-corrected
 exchange-correlation functionals.
 http://dx.doi.org/10.1007/s00214-005-0655-y


 VandeVondele, J; Krack, M; Mohamed, F; Parrinello, M; Chassaing, T;
 Hutter, J. COMPUTER PHYSICS COMMUNICATIONS, 167 (2), 103-128 (2005). 
 QUICKSTEP: Fast and accurate density functional calculations using a
 mixed Gaussian and plane waves approach.
 http://dx.doi.org/10.1016/j.cpc.2004.12.014


 Frigo, M; Johnson, SG. 
 PROCEEDINGS OF THE IEEE, 93 (2), 216-231 (2005). 
 The design and implementation of FFTW3.
 http://dx.doi.org/10.1109/JPROC.2004.840301


 Kolafa, J. 
 JOURNAL OF COMPUTATIONAL CHEMISTRY, 25 (3), 335-342 (2004). 
 Time-reversible always stable predictor-corrector method for molecular dynamics of polarizable molecules.
 http://dx.doi.org/10.1002/jcc.10385


 VandeVondele, J; Hutter, J. 
 JOURNAL OF CHEMICAL PHYSICS, 118 (10), 4365-4369 (2003). 
 An efficient orbital transformation method for electronic structure
 calculations.
 http://dx.doi.org/10.1063/1.1543154


 Hartwigsen, C; Goedecker, S; Hutter, J. 
 PHYSICAL REVIEW B, 58 (7), 3641-3662 (1998). 
 Relativistic separable dual-space Gaussian pseudopotentials from H to Rn.
 http://dx.doi.org/10.1103/PhysRevB.58.3641


 Lippert, G; Hutter, J; Parrinello, M. 
 MOLECULAR PHYSICS, 92 (3), 477-487 (1997). 
 A hybrid Gaussian and plane wave density functional scheme.
 http://dx.doi.org/10.1080/002689797170220


 Perdew, JP; Burke, K; Ernzerhof, M. 
 PHYSICAL REVIEW LETTERS, 77 (18), 3865-3868 (1996). 
 Generalized gradient approximation made simple.
 http://dx.doi.org/10.1103/PhysRevLett.77.3865


 Goedecker, S; Teter, M; Hutter, J. 
 PHYSICAL REVIEW B, 54 (3), 1703-1710 (1996). 
 Separable dual-space Gaussian pseudopotentials.
 http://dx.doi.org/10.1103/PhysRevB.54.1703


 -------------------------------------------------------------------------------
 -                                                                             -
 -                                T I M I N G                                  -
 -                                                                             -
 -------------------------------------------------------------------------------
 SUBROUTINE                       CALLS  ASD         SELF TIME        TOTAL TIME
                                MAXIMUM       AVERAGE  MAXIMUM  AVERAGE  MAXIMUM
 CP2K                                 1  1.0    0.060    0.097  171.791  171.792
 cp_geo_opt                           1  2.0    0.001    0.001  170.987  170.992
 geoopt_bfgs                          1  3.0    0.018    0.039  170.987  170.991
 cp_eval_at                          40  4.0    0.004    0.007  157.110  157.123
 qs_forces                           39  5.0    0.005    0.024  155.333  155.342
 qs_energies                         40  6.0    0.003    0.013  147.323  147.334
 scf_env_do_scf                      40  7.0    0.002    0.004  131.352  131.352
 scf_env_do_scf_inner_loop          474  8.0    0.017    0.031  125.654  125.654
 rs_pw_transfer                    8299 12.9    0.032    0.036   82.262   95.226
 mp_waitall_1                   1845021 16.7   81.416   94.797   81.416   94.797
 qs_rho_update_rho                  514  9.1    0.004    0.004   91.344   91.355
 calculate_rho_elec                1028 10.1   12.894   81.609   91.340   91.351
 density_rs2pw                     1028 11.1    0.034    0.047   77.911   90.817
 rs_pw_transfer_RS2PW_150          1108 12.9    0.701    0.819   75.378   88.357
 dbcsr_multiply_generic           15780 13.7    0.551    0.587   31.830   33.440
 rebuild_ks_matrix                  513  9.8    0.002    0.012   29.734   29.764
 qs_ks_build_kohn_sham_matrix       513 10.8    0.041    0.051   29.732   29.763
 sum_up_and_integrate               296 11.6    0.025    0.031   16.478   24.284
 integrate_v_rspace                 592 12.6    2.986   18.649   16.452   24.261
 qs_scf_new_mos                     474  9.0    0.002    0.003   23.350   23.367
 qs_scf_loop_do_ot                  474 10.0    0.003    0.017   23.347   23.364
 ot_scf_mini                        474 11.0    0.020    0.035   21.857   21.877
 qs_ks_update_qs_env                514  9.0    0.004    0.004   21.214   21.238
 pw_transfer                      15936 13.3    0.768    0.802   13.658   15.237
 potential_pw2rs                    592 13.6    0.019    0.020   13.424   14.934
 fft_wrap_pw1pw2                  14910 14.4    0.044    0.057   12.879   14.479
 fft3d_ps                         14910 16.4    0.850    1.115   12.383   14.016
 fft_wrap_pw1pw2_150               8430 15.6    0.208    0.252   11.767   13.371
 mp_alltoall_z22v                 14910 18.4   10.486   12.330   10.486   12.330
 multiply_cannon                  15780 14.7    2.859    2.983   11.831   12.302
 mp_sum_l                         74219 14.8   10.451   12.243   10.451   12.243
 ot_mini                            474 12.0    0.002    0.005   11.911   11.920
 mp_sum_dm                         1599  6.1   11.349   11.642   11.349   11.642
 virial_evaluate                     38  4.0    0.000    0.000   11.314   11.606
 yz_to_x                           3436 17.3    0.070    0.100    9.430   11.136
 qs_ot_get_derivative               514 13.0    0.003    0.003   10.076   10.120
 write_restart                       39  4.0    0.242    9.555    0.245    9.561
 init_scf_run                        40  7.0    0.001    0.003    8.674    8.674
 scf_env_initial_rho_setup           40  8.0    0.001    0.002    8.673    8.673
 qs_ks_update_qs_env_forces          39  6.0    0.000    0.000    8.609    8.619
 wfi_extrapolate                     40  9.0    0.004    0.011    8.036    8.036
 make_m2s                         31560 14.7    0.566    0.592    7.568    7.682
 mp_sum_d                         14175 13.9    6.061    7.039    6.061    7.039
 qs_energies_init_hamiltonians       40  7.0    0.001    0.001    5.930    5.941
 qs_ot_get_p                       1028 11.8    0.004    0.005    5.871    5.918
 init_scf_loop                       40  8.0    0.002    0.012    5.629    5.630
 make_images                      31560 15.7    0.675    0.736    5.133    5.220
 calculate_dispersion_pairpot        40  8.0    0.598    4.590    4.885    4.892
 rs_pw_transfer_PW2RS_150           711 14.9    0.554    0.617    4.471    4.527
 qs_ot_get_derivative_taylor        324 14.0    0.006    0.007    4.161    4.193
 qs_vxc_create                      513 11.8    0.007    0.020    3.878    3.885
 -------------------------------------------------------------------------------

 The number of warnings for this run is : 1
 
 -------------------------------------------------------------------------------
  **** **** ******  **  PROGRAM ENDED AT                 2019-07-08 14:43:39.150
 ***** ** ***  *** **   PROGRAM RAN ON            blg9211.int.ets1.calculquebec.
 **    ****   ******    PROGRAM RAN BY                                       rzk
 ***** **    ** ** **   PROGRAM PROCESS ID                                 19733
  **** **  *******  **  PROGRAM STOPPED IN /lustre04/scratch/rzk/rzk/GaN-carbene
                                           /443-adatoms-both-2x2/09-BondBreaking
                                           -CH/02-0401-CH-to-NTop-PES/PRACTICE
