 DBCSR| Multiplication driver                                               BLAS
 DBCSR| Multrec recursion limit                                              512
 DBCSR| Multiplication stack size                                           1000
 DBCSR| Maximum elements for images                                    UNLIMITED
 DBCSR| Multiplicative factor virtual images                                   1
 DBCSR| Multiplication size stacks                                             3
 DBCSR| Number of 3D layers                                               SINGLE
 DBCSR| Use MPI memory allocation                                              T
 DBCSR| Use RMA algorithm                                                      F
 DBCSR| Use Communication thread                                               T
 DBCSR| Communication thread load                                             87


  **** **** ******  **  PROGRAM STARTED AT               2019-07-08 13:46:21.341
 ***** ** ***  *** **   PROGRAM STARTED ON        blg9147.int.ets1.calculquebec.
 **    ****   ******    PROGRAM STARTED BY                                   rzk
 ***** **    ** ** **   PROGRAM PROCESS ID                                128865
  **** **  *******  **  PROGRAM STARTED IN /lustre04/scratch/rzk/rzk/GaN-carbene
                                           /443-adatoms-both-2x2/09-BondBreaking
                                           -CH/02-0401-CH-to-NTop-PES/PRACTICE

 CP2K| version string:                    CP2K version 7.0 (Development Version)
 CP2K| source code revision number:                                    svn:18619
 CP2K| cp2kflags: libint fftw3 libxc parallel mpi3 scalapack mkl                
 CP2K| is freely available from                            https://www.cp2k.org/
 CP2K| Program compiled at                          Sun Apr  7 00:48:11 EDT 2019
 CP2K| Program compiled on                      beluga2.int.ets1.calculquebec.ca
 CP2K| Program compiled for                    Beluga-Linux-x86-64-intel-openmpi
 CP2K| Data directory path    /home/rzk/projects/def-rzk/group/cp2k/cp2k-mcgill/
 CP2K| Input file name                                                 start.inp
 
 GLOBAL| Force Environment number                                              1
 GLOBAL| Basis set file name                                        BASIS_MOLOPT
 GLOBAL| Potential file name                                      GTH_POTENTIALS
 GLOBAL| MM Potential file name                                     MM_POTENTIAL
 GLOBAL| Coordinate file name                                      __STD_INPUT__
 GLOBAL| Method name                                                        CP2K
 GLOBAL| Project name                                                       TEST
 GLOBAL| Preferred FFT library                                             FFTW3
 GLOBAL| Preferred diagonalization lib.                                       SL
 GLOBAL| Run type                                                        GEO_OPT
 GLOBAL| All-to-all communication in single precision                          F
 GLOBAL| FFTs using library dependent lengths                                  F
 GLOBAL| Global print level                                               MEDIUM
 GLOBAL| MPI I/O enabled                                                       T
 GLOBAL| Total number of message passing processes                            40
 GLOBAL| Number of threads for this process                                    1
 GLOBAL| This output is from process                                           0
 GLOBAL| CPU model name :  Intel(R) Xeon(R) Gold 6148 CPU @ 2.40GHz

 MEMORY| system memory details [Kb]
 MEMORY|                        rank 0           min           max       average
 MEMORY| MemTotal            196614300     196614300     196614300     196614300
 MEMORY| MemFree             178976376     178974516     178977616     178976763
 MEMORY| Buffers                     0             0             0             0
 MEMORY| Cached                1919632       1919632       1919632       1919632
 MEMORY| Slab                  1104732       1104732       1104732       1104732
 MEMORY| SReclaimable           130384        130384        130384        130384
 MEMORY| MemLikelyFree       181026392     181024532     181027632     181026779


 *** Fundamental physical constants (SI units) ***

 *** Literature: B. J. Mohr and B. N. Taylor,
 ***             CODATA recommended values of the fundamental physical
 ***             constants: 2006, Web Version 5.1
 ***             http://physics.nist.gov/constants

 Speed of light in vacuum [m/s]                             2.99792458000000E+08
 Magnetic constant or permeability of vacuum [N/A**2]       1.25663706143592E-06
 Electric constant or permittivity of vacuum [F/m]          8.85418781762039E-12
 Planck constant (h) [J*s]                                  6.62606896000000E-34
 Planck constant (h-bar) [J*s]                              1.05457162825177E-34
 Elementary charge [C]                                      1.60217648700000E-19
 Electron mass [kg]                                         9.10938215000000E-31
 Electron g factor [ ]                                     -2.00231930436220E+00
 Proton mass [kg]                                           1.67262163700000E-27
 Fine-structure constant                                    7.29735253760000E-03
 Rydberg constant [1/m]                                     1.09737315685270E+07
 Avogadro constant [1/mol]                                  6.02214179000000E+23
 Boltzmann constant [J/K]                                   1.38065040000000E-23
 Atomic mass unit [kg]                                      1.66053878200000E-27
 Bohr radius [m]                                            5.29177208590000E-11

 *** Conversion factors ***

 [u] -> [a.u.]                                              1.82288848426455E+03
 [Angstrom] -> [Bohr] = [a.u.]                              1.88972613288564E+00
 [a.u.] = [Bohr] -> [Angstrom]                              5.29177208590000E-01
 [a.u.] -> [s]                                              2.41888432650478E-17
 [a.u.] -> [fs]                                             2.41888432650478E-02
 [a.u.] -> [J]                                              4.35974393937059E-18
 [a.u.] -> [N]                                              8.23872205491840E-08
 [a.u.] -> [K]                                              3.15774647902944E+05
 [a.u.] -> [kJ/mol]                                         2.62549961709828E+03
 [a.u.] -> [kcal/mol]                                       6.27509468713739E+02
 [a.u.] -> [Pa]                                             2.94210107994716E+13
 [a.u.] -> [bar]                                            2.94210107994716E+08
 [a.u.] -> [atm]                                            2.90362800883016E+08
 [a.u.] -> [eV]                                             2.72113838565563E+01
 [a.u.] -> [Hz]                                             6.57968392072181E+15
 [a.u.] -> [1/cm] (wave numbers)                            2.19474631370540E+05
 [a.u./Bohr**2] -> [1/cm]                                   5.14048714338585E+03
 
          ----------------------------------------------------------------------
 COLVARS| COLVAR INPUT INDEX:        1
 COLVARS| BOND          >>> ATOMS:                                     3       4
          ----------------------------------------------------------------------

 CELL_TOP| Volume [angstrom^3]:                                          125.000
 CELL_TOP| Vector a [angstrom     5.000     0.000     0.000    |a| =       5.000
 CELL_TOP| Vector b [angstrom     0.000     5.000     0.000    |b| =       5.000
 CELL_TOP| Vector c [angstrom     0.000     0.000     5.000    |c| =       5.000
 CELL_TOP| Angle (b,c), alpha [degree]:                                   90.000
 CELL_TOP| Angle (a,c), beta  [degree]:                                   90.000
 CELL_TOP| Angle (a,b), gamma [degree]:                                   90.000
 CELL_TOP| Numerically orthorhombic:                                         YES
 RESTRAINT| Active restraint on COLLECTIVE section Nr.     1. K [a.u.]=10.000000
 
 GENERATE|  Preliminary Number of Bonds generated:                             0
 GENERATE|  Achieved consistency in connectivity generation.

 CELL| Volume [angstrom^3]:                                              125.000
 CELL| Vector a [angstrom]:       5.000     0.000     0.000    |a| =       5.000
 CELL| Vector b [angstrom]:       0.000     5.000     0.000    |b| =       5.000
 CELL| Vector c [angstrom]:       0.000     0.000     5.000    |c| =       5.000
 CELL| Angle (b,c), alpha [degree]:                                       90.000
 CELL| Angle (a,c), beta  [degree]:                                       90.000
 CELL| Angle (a,b), gamma [degree]:                                       90.000
 CELL| Numerically orthorhombic:                                             YES

 CELL_REF| Volume [angstrom^3]:                                          125.000
 CELL_REF| Vector a [angstrom     5.000     0.000     0.000    |a| =       5.000
 CELL_REF| Vector b [angstrom     0.000     5.000     0.000    |b| =       5.000
 CELL_REF| Vector c [angstrom     0.000     0.000     5.000    |c| =       5.000
 CELL_REF| Angle (b,c), alpha [degree]:                                   90.000
 CELL_REF| Angle (a,c), beta  [degree]:                                   90.000
 CELL_REF| Angle (a,b), gamma [degree]:                                   90.000
 CELL_REF| Numerically orthorhombic:                                         YES

 *******************************************************************************
 *******************************************************************************
 **                                                                           **
 **     #####                         ##              ##                      **
 **    ##   ##            ##          ##              ##                      **
 **   ##     ##                       ##            ######                    **
 **   ##     ##  ##   ##  ##   #####  ##  ##   ####   ##    #####    #####    **
 **   ##     ##  ##   ##  ##  ##      ## ##   ##      ##   ##   ##  ##   ##   **
 **   ##  ## ##  ##   ##  ##  ##      ####     ###    ##   ######   ######    **
 **    ##  ###   ##   ##  ##  ##      ## ##      ##   ##   ##       ##        **
 **     #######   #####   ##   #####  ##  ##  ####    ##    #####   ##        **
 **           ##                                                    ##        **
 **                                                                           **
 **                                                ... make the atoms dance   **
 **                                                                           **
 **            Copyright (C) by CP2K developers group (2000 - 2018)           **
 **                                                                           **
 *******************************************************************************

 DFT| Spin unrestricted (spin-polarized) Kohn-Sham calculation               UKS
 DFT| Multiplicity                                                             1
 DFT| Number of spin states                                                    2
 DFT| Charge                                                                   0
 DFT| Self-interaction correction (SIC)                                       NO
 DFT| Cutoffs: density                                              1.000000E-10
 DFT|          gradient                                             1.000000E-10
 DFT|          tau                                                  1.000000E-10
 DFT|          cutoff_smoothing_range                               0.000000E+00
 DFT| XC density smoothing                                                  NONE
 DFT| XC derivatives                                                          PW
 FUNCTIONAL| ROUTINE=NEW
 FUNCTIONAL| PBE:
 FUNCTIONAL| J.P.Perdew, K.Burke, M.Ernzerhof, Phys. Rev. Letter, vol. 77, n 18,
 FUNCTIONAL|  pp. 3865-3868, (1996){spin polarized}                             
 vdW POTENTIAL|                                                   Pair Potential
 vdW POTENTIAL|          DFT-D3 (Version 3.1)
 vdW POTENTIAL|          Potential Form: S. Grimme et al, JCP 132: 154104 (2010)
 vdW POTENTIAL|          Zero Damping
 vdW POTENTIAL|          Cutoff Radius [Bohr]:                             18.90
 vdW POTENTIAL|          s6 Scaling Factor:                               1.0000
 vdW POTENTIAL|          sr6 Scaling Factor:                              1.2170
 vdW POTENTIAL|          s8 Scaling Factor:                               0.7220
 vdW POTENTIAL|          Cutoff for CN calculation:                   0.1000E-05

 QS| Method:                                                                 GPW
 QS| Density plane wave grid type                        NON-SPHERICAL FULLSPACE
 QS| Number of grid levels:                                                    5
 QS| Density cutoff [a.u.]:                                                150.0
 QS| Multi grid cutoff [a.u.]: 1) grid level                               150.0
 QS|                           2) grid level                                50.0
 QS|                           3) grid level                                16.7
 QS|                           4) grid level                                 5.6
 QS|                           5) grid level                                 1.9
 QS| Grid level progression factor:                                          3.0
 QS| Relative density cutoff [a.u.]:                                        20.0
 QS| Consistent realspace mapping and integration 
 QS| Interaction thresholds: eps_pgf_orb:                                1.0E-07
 QS|                         eps_filter_matrix:                          0.0E+00
 QS|                         eps_core_charge:                            1.0E-16
 QS|                         eps_rho_gspace:                             1.0E-14
 QS|                         eps_rho_rspace:                             1.0E-14
 QS|                         eps_gvg_rspace:                             1.0E-07
 QS|                         eps_ppl:                                    1.0E-02
 QS|                         eps_ppnl:                                   1.0E-09


 ATOMIC KIND INFORMATION

  1. Atomic kind: O                                     Number of atoms:       2

     Orbital Basis Set                                     DZVP-MOLOPT-SR-GTH-q6

       Number of orbital shell sets:                                           1
       Number of orbital shells:                                               5
       Number of primitive Cartesian functions:                                5
       Number of Cartesian basis functions:                                   14
       Number of spherical basis functions:                                   13
       Norm type:                                                              2

       Normalised Cartesian orbitals:

                        Set   Shell   Orbital            Exponent    Coefficient

                          1       1    2s               10.389228       0.396646
                                                         3.849621       0.208811
                                                         1.388401      -0.301641
                                                         0.496955      -0.274061
                                                         0.162492      -0.033677

                          1       2    3s               10.389228       0.303673
                                                         3.849621       0.240943
                                                         1.388401      -0.313066
                                                         0.496955      -0.043055
                                                         0.162492       0.213991

                          1       3    3px              10.389228      -1.530415
                                                         3.849621      -1.371928
                                                         1.388401      -0.761951
                                                         0.496955      -0.253695
                                                         0.162492      -0.035541
                          1       3    3py              10.389228      -1.530415
                                                         3.849621      -1.371928
                                                         1.388401      -0.761951
                                                         0.496955      -0.253695
                                                         0.162492      -0.035541
                          1       3    3pz              10.389228      -1.530415
                                                         3.849621      -1.371928
                                                         1.388401      -0.761951
                                                         0.496955      -0.253695
                                                         0.162492      -0.035541

                          1       4    4px              10.389228      -0.565392
                                                         3.849621      -0.038231
                                                         1.388401      -0.382373
                                                         0.496955       0.179070
                                                         0.162492       0.122714
                          1       4    4py              10.389228      -0.565392
                                                         3.849621      -0.038231
                                                         1.388401      -0.382373
                                                         0.496955       0.179070
                                                         0.162492       0.122714
                          1       4    4pz              10.389228      -0.565392
                                                         3.849621      -0.038231
                                                         1.388401      -0.382373
                                                         0.496955       0.179070
                                                         0.162492       0.122714

                          1       5    4dx2             10.389228       1.867377
                                                         3.849621       0.670994
                                                         1.388401       1.353441
                                                         0.496955       0.273538
                                                         0.162492       0.006620
                          1       5    4dxy             10.389228       3.234392
                                                         3.849621       1.162195
                                                         1.388401       2.344229
                                                         0.496955       0.473781
                                                         0.162492       0.011466
                          1       5    4dxz             10.389228       3.234392
                                                         3.849621       1.162195
                                                         1.388401       2.344229
                                                         0.496955       0.473781
                                                         0.162492       0.011466
                          1       5    4dy2             10.389228       1.867377
                                                         3.849621       0.670994
                                                         1.388401       1.353441
                                                         0.496955       0.273538
                                                         0.162492       0.006620
                          1       5    4dyz             10.389228       3.234392
                                                         3.849621       1.162195
                                                         1.388401       2.344229
                                                         0.496955       0.473781
                                                         0.162492       0.011466
                          1       5    4dz2             10.389228       1.867377
                                                         3.849621       0.670994
                                                         1.388401       1.353441
                                                         0.496955       0.273538
                                                         0.162492       0.006620

     GTH Potential information for                                    GTH-PBE-q6

       Description:                       Goedecker-Teter-Hutter pseudopotential
                                           Goedecker et al., PRB 54, 1703 (1996)
                                          Hartwigsen et al., PRB 58, 3641 (1998)
                                                      Krack, TCA 114, 145 (2005)

       Gaussian exponent of the core charge distribution:               8.360253
       Electronic configuration (s p d ...):                               2   4

       Parameters of the local part of the GTH pseudopotential:

                          rloc        C1          C2          C3          C4
                        0.244554  -16.667215    2.487311

       Parameters of the non-local part of the GTH pseudopotential:

                   l      r(l)      h(i,j,l)

                   0    0.220956   18.337458
                   1    0.211332

  2. Atomic kind: H                                     Number of atoms:       4

     Orbital Basis Set                                     DZVP-MOLOPT-SR-GTH-q1

       Number of orbital shell sets:                                           1
       Number of orbital shells:                                               3
       Number of primitive Cartesian functions:                                5
       Number of Cartesian basis functions:                                    5
       Number of spherical basis functions:                                    5
       Norm type:                                                              2

       Normalised Cartesian orbitals:

                        Set   Shell   Orbital            Exponent    Coefficient

                          1       1    2s               10.068468      -0.133023
                                                         2.680223      -0.177618
                                                         0.791502      -0.258419
                                                         0.239116      -0.107525
                                                         0.082193      -0.014019

                          1       2    3s               10.068468       0.344673
                                                         2.680223       1.819821
                                                         0.791502      -0.999069
                                                         0.239116       0.017430
                                                         0.082193       0.082660

                          1       3    3px              10.068468       0.155326
                                                         2.680223       0.367157
                                                         0.791502       0.311480
                                                         0.239116       0.080105
                                                         0.082193       0.033440
                          1       3    3py              10.068468       0.155326
                                                         2.680223       0.367157
                                                         0.791502       0.311480
                                                         0.239116       0.080105
                                                         0.082193       0.033440
                          1       3    3pz              10.068468       0.155326
                                                         2.680223       0.367157
                                                         0.791502       0.311480
                                                         0.239116       0.080105
                                                         0.082193       0.033440

     GTH Potential information for                                    GTH-PBE-q1

       Description:                       Goedecker-Teter-Hutter pseudopotential
                                           Goedecker et al., PRB 54, 1703 (1996)
                                          Hartwigsen et al., PRB 58, 3641 (1998)
                                                      Krack, TCA 114, 145 (2005)

       Gaussian exponent of the core charge distribution:              12.500000
       Electronic configuration (s p d ...):                                   1

       Parameters of the local part of the GTH pseudopotential:

                          rloc        C1          C2          C3          C4
                        0.200000   -4.178900    0.724463


 MOLECULE KIND INFORMATION


 All atoms are their own molecule, skipping detailed information


 TOTAL NUMBERS AND MAXIMUM NUMBERS

  Total number of            - Atomic kinds:                                   2
                             - Atoms:                                          6
                             - Shell sets:                                     6
                             - Shells:                                        22
                             - Primitive Cartesian functions:                 30
                             - Cartesian basis functions:                     48
                             - Spherical basis functions:                     46

  Maximum angular momentum of- Orbital basis functions:                        2
                             - Local part of the GTH pseudopotential:          2
                             - Non-local part of the GTH pseudopotential:      0


 MODULE QUICKSTEP:  ATOMIC COORDINATES IN angstrom

  Atom  Kind  Element       X           Y           Z          Z(eff)       Mass

       1     1 O    8   -1.393428   -0.183387   -0.927985      6.00      15.9994
       2     2 H    1   -1.395010    0.555296   -1.555027      1.00       1.0079
       3     2 H    1   -0.525672   -0.093838   -0.465860      1.00       1.0079
       4     1 O    8    1.114148    0.090971    0.464483      6.00      15.9994
       5     2 H    1    1.112516   -0.654666    1.083204      1.00       1.0079
       6     2 H    1    1.982473    0.002160   -0.002753      1.00       1.0079




 SCF PARAMETERS         Density guess:                                    ATOMIC
                        --------------------------------------------------------
                        max_scf:                                              80
                        max_scf_history:                                       0
                        max_diis:                                              4
                        --------------------------------------------------------
                        eps_scf:                                        5.00E-06
                        eps_scf_history:                                0.00E+00
                        eps_diis:                                       1.00E-01
                        eps_eigval:                                     1.00E-05
                        --------------------------------------------------------
                        level_shift [a.u.]:                                 0.00
                        --------------------------------------------------------
                        Outer loop SCF in use 
                        No variables optimised in outer loop
                        eps_scf                                         5.00E-06
                        max_scf                                                4
                        No outer loop optimization
                        step_size                                       5.00E-01

 PW_GRID| Information for grid number                                          1
 PW_GRID| Grid distributed over                                    40 processors
 PW_GRID| Real space group dimensions                                    40    1
 PW_GRID| the grid is blocked:                                                NO
 PW_GRID| Cutoff [a.u.]                                                    150.0
 PW_GRID| spherical cutoff:                                                   NO
 PW_GRID|   Bounds   1            -27      26                Points:          54
 PW_GRID|   Bounds   2            -27      26                Points:          54
 PW_GRID|   Bounds   3            -27      26                Points:          54
 PW_GRID| Volume element (a.u.^3)  0.5357E-02     Volume (a.u.^3)       843.5418
 PW_GRID| Grid span                                                    FULLSPACE
 PW_GRID|   Distribution                         Average         Max         Min
 PW_GRID|   G-Vectors                             3936.6        3942        3888
 PW_GRID|   G-Rays                                  72.9          73          72
 PW_GRID|   Real Space Points                     3936.6        5832        2916

 PW_GRID| Information for grid number                                          2
 PW_GRID| Grid distributed over                                    40 processors
 PW_GRID| Real space group dimensions                                     5    8
 PW_GRID| the grid is blocked:                                                NO
 PW_GRID| Cutoff [a.u.]                                                     50.0
 PW_GRID| spherical cutoff:                                                   NO
 PW_GRID|   Bounds   1            -16      15                Points:          32
 PW_GRID|   Bounds   2            -16      15                Points:          32
 PW_GRID|   Bounds   3            -16      15                Points:          32
 PW_GRID| Volume element (a.u.^3)  0.2574E-01     Volume (a.u.^3)       843.5418
 PW_GRID| Grid span                                                    FULLSPACE
 PW_GRID|   Distribution                         Average         Max         Min
 PW_GRID|   G-Vectors                              819.2         896         768
 PW_GRID|   G-Rays                                  25.6          28          24
 PW_GRID|   Real Space Points                      819.2         896         768

 PW_GRID| Information for grid number                                          3
 PW_GRID| Grid distributed over                                    40 processors
 PW_GRID| Real space group dimensions                                     5    8
 PW_GRID| the grid is blocked:                                                NO
 PW_GRID| Cutoff [a.u.]                                                     16.7
 PW_GRID| spherical cutoff:                                                   NO
 PW_GRID|   Bounds   1             -9       8                Points:          18
 PW_GRID|   Bounds   2             -9       8                Points:          18
 PW_GRID|   Bounds   3             -9       8                Points:          18
 PW_GRID| Volume element (a.u.^3)  0.1446         Volume (a.u.^3)       843.5418
 PW_GRID| Grid span                                                    FULLSPACE
 PW_GRID|   Distribution                         Average         Max         Min
 PW_GRID|   G-Vectors                              145.8         180         126
 PW_GRID|   G-Rays                                   8.1          10           7
 PW_GRID|   Real Space Points                      145.8         216         108

 PW_GRID| Information for grid number                                          4
 PW_GRID| Grid distributed over                                    40 processors
 PW_GRID| Real space group dimensions                                     5    8
 PW_GRID| the grid is blocked:                                                NO
 PW_GRID| Cutoff [a.u.]                                                      5.6
 PW_GRID| spherical cutoff:                                                   NO
 PW_GRID|   Bounds   1             -6       5                Points:          12
 PW_GRID|   Bounds   2             -6       5                Points:          12
 PW_GRID|   Bounds   3             -6       5                Points:          12
 PW_GRID| Volume element (a.u.^3)  0.4882         Volume (a.u.^3)       843.5418
 PW_GRID| Grid span                                                    FULLSPACE
 PW_GRID|   Distribution                         Average         Max         Min
 PW_GRID|   G-Vectors                               43.2          60          36
 PW_GRID|   G-Rays                                   3.6           5           3
 PW_GRID|   Real Space Points                       43.2          72          24

 PW_GRID| Information for grid number                                          5
 PW_GRID| Grid distributed over                                    40 processors
 PW_GRID| Real space group dimensions                                     5    8
 PW_GRID| the grid is blocked:                                                NO
 PW_GRID| Cutoff [a.u.]                                                      1.9
 PW_GRID| spherical cutoff:                                                   NO
 PW_GRID|   Bounds   1             -3       2                Points:           6
 PW_GRID|   Bounds   2             -3       2                Points:           6
 PW_GRID|   Bounds   3             -3       2                Points:           6
 PW_GRID| Volume element (a.u.^3)   3.905         Volume (a.u.^3)       843.5418
 PW_GRID| Grid span                                                    FULLSPACE
 PW_GRID|   Distribution                         Average         Max         Min
 PW_GRID|   G-Vectors                                5.4          12           0
 PW_GRID|   G-Rays                                   0.9           2           0
 PW_GRID|   Real Space Points                        5.4          12           0

 POISSON| Solver                                                        PERIODIC
 POISSON| Periodicity                                                        XYZ

 RS_GRID| Information for grid number                                          1
 RS_GRID|   Bounds   1            -27      26                Points:          54
 RS_GRID|   Bounds   2            -27      26                Points:          54
 RS_GRID|   Bounds   3            -27      26                Points:          54
 RS_GRID| Real space fully replicated
 RS_GRID| Group size                                                           1

 RS_GRID| Information for grid number                                          2
 RS_GRID|   Bounds   1            -16      15                Points:          32
 RS_GRID|   Bounds   2            -16      15                Points:          32
 RS_GRID|   Bounds   3            -16      15                Points:          32
 RS_GRID| Real space fully replicated
 RS_GRID| Group size                                                           1

 RS_GRID| Information for grid number                                          3
 RS_GRID|   Bounds   1             -9       8                Points:          18
 RS_GRID|   Bounds   2             -9       8                Points:          18
 RS_GRID|   Bounds   3             -9       8                Points:          18
 RS_GRID| Real space fully replicated
 RS_GRID| Group size                                                           1

 RS_GRID| Information for grid number                                          4
 RS_GRID|   Bounds   1             -6       5                Points:          12
 RS_GRID|   Bounds   2             -6       5                Points:          12
 RS_GRID|   Bounds   3             -6       5                Points:          12
 RS_GRID| Real space fully replicated
 RS_GRID| Group size                                                           1

 RS_GRID| Information for grid number                                          5
 RS_GRID|   Bounds   1             -3       2                Points:           6
 RS_GRID|   Bounds   2             -3       2                Points:           6
 RS_GRID|   Bounds   3             -3       2                Points:           6
 RS_GRID| Real space fully replicated
 RS_GRID| Group size                                                           1

 BFGS| Use rational function optimization for step estimation:                NO
 BFGS| Use model Hessian for initial guess:                                  YES
 BFGS| Restart Hessian:                                                       NO
 BFGS| Trust radius:                                                       0.472

 *******************************************************************************
 ***                     STARTING GEOMETRY OPTIMIZATION                      ***
 ***                                   BFGS                                  ***
 *******************************************************************************

 Spin 1

 Number of electrons:                                                          8
 Number of occupied orbitals:                                                  8
 Number of molecular orbitals:                                                 8

 Spin 2

 Number of electrons:                                                          8
 Number of occupied orbitals:                                                  8
 Number of molecular orbitals:                                                 8

 Number of orbital functions:                                                 46
 Number of independent orbital functions:                                     46

 Extrapolation method: initial_guess

 Atomic guess: The first density matrix is obtained in terms of atomic orbitals
               and electronic configurations assigned to each atomic kind

 Guess for atomic kind: O

 Electronic structure
    Total number of core electrons                                          2.00
    Total number of valence electrons                                       6.00
    Total number of electrons                                               8.00
    Multiplicity                                                   not specified
    S   [  2.00] 2.00
    P      4.00
 

 *******************************************************************************
                  Iteration          Convergence                     Energy [au]
 *******************************************************************************
                          1        0.702811                     -15.577904332270
                          2        0.612408                     -15.588447180504
                          3        0.955344E-02                 -15.655871208406
                          4        0.223754E-02                 -15.655885053552
                          5        0.157183E-02                 -15.655885461027
                          6        0.124953E-02                 -15.655885607150
                          7        0.312011E-06                 -15.655885858066

 Energy components [Hartree]           Total Energy ::          -15.655885858066
                                        Band Energy ::           -2.983128125584
                                     Kinetic Energy ::           11.754765134683
                                   Potential Energy ::          -27.410650992750
                                      Virial (-V/T) ::            2.331875684345
                                        Core Energy ::          -26.153522949072
                                          XC Energy ::           -3.157392363346
                                     Coulomb Energy ::           13.655029454351
                       Total Pseudopotential Energy ::          -37.943026860963
                       Local Pseudopotential Energy ::          -39.220419683052
                    Nonlocal Pseudopotential Energy ::            1.277392822089
                                        Confinement ::            0.347387772086

 Orbital energies  State     L     Occupation   Energy[a.u.]          Energy[eV]

                       1     0          2.000      -0.861522          -23.443215
 
                       1     1          4.000      -0.315021           -8.572154
 

 Total Electron Density at R=0:                                         0.000093

 Guess for atomic kind: H

 Electronic structure
    Total number of core electrons                                          0.00
    Total number of valence electrons                                       1.00
    Total number of electrons                                               1.00
    Multiplicity                                                   not specified
    S      1.00
 

 *******************************************************************************
                  Iteration          Convergence                     Energy [au]
 *******************************************************************************
                          1        0.250972E-02                  -0.375256815885
                          2        0.570752E-04                  -0.375258666164
                          3        0.832405E-09                  -0.375258667122

 Energy components [Hartree]           Total Energy ::           -0.375258667122
                                        Band Energy ::           -0.076317618391
                                     Kinetic Energy ::            0.771356566341
                                   Potential Energy ::           -1.146615233463
                                      Virial (-V/T) ::            1.486491829455
                                        Core Energy ::           -0.456090715790
                                          XC Energy ::           -0.314218627334
                                     Coulomb Energy ::            0.395050676003
                       Total Pseudopotential Energy ::           -1.238482237174
                       Local Pseudopotential Energy ::           -1.238482237174
                    Nonlocal Pseudopotential Energy ::            0.000000000000
                                        Confinement ::            0.110349550431

 Orbital energies  State     L     Occupation   Energy[a.u.]          Energy[eV]

                       1     0          1.000      -0.076318           -2.076708
 

 Total Electron Density at R=0:                                         0.425022

 Spin 1
 Re-scaling the density matrix to get the right number of electrons for spin 1
                  # Electrons              Trace(P)               Scaling factor
                            8                 8.004                        0.999

 Spin 2
 Re-scaling the density matrix to get the right number of electrons for spin 2
                  # Electrons              Trace(P)               Scaling factor
                            8                 8.004                        0.999


 SCF WAVEFUNCTION OPTIMIZATION

  ----------------------------------- OT ---------------------------------------
  Minimizer      : CG                  : conjugate gradient
  Preconditioner : FULL_ALL            : diagonalization, state selective
  Precond_solver : DEFAULT
  Line search    : 2PNT                : 2 energies, one gradient
  stepsize       :    0.15000000                  energy_gap     :    0.08000000
  eps_taylor     :   0.10000E-15                  max_taylor     :             4
  ----------------------------------- OT ---------------------------------------

  Step     Update method      Time    Convergence         Total energy    Change
  ------------------------------------------------------------------------------
     1 OT CG       0.15E+00    0.6     0.17165454       -31.9136530852 -3.19E+01
     2 OT LS       0.91E-01    0.3                      -32.4892159917
     3 OT CG       0.91E-01    0.5     0.15114986       -32.8717308958 -9.58E-01
     4 OT LS       0.16E+00    0.2                      -33.8608561942
     5 OT CG       0.16E+00    0.4     0.13153946       -33.4258403751 -5.54E-01
     6 OT LS       0.12E+00    0.3                      -34.1075013099
     7 OT CG       0.12E+00    0.4     0.05481436       -34.2266888778 -8.01E-01
     8 OT LS       0.13E+00    0.2                      -34.3616764247
     9 OT CG       0.13E+00    0.4     0.03418599       -34.3613530903 -1.35E-01
    10 OT LS       0.15E+00    0.2                      -34.4221346108
    11 OT CG       0.15E+00    0.4     0.02390859       -34.4231555402 -6.18E-02
    12 OT LS       0.11E+00    0.3                      -34.4441867911
    13 OT CG       0.11E+00    0.4     0.01167722       -34.4465449728 -2.34E-02
    14 OT LS       0.15E+00    0.2                      -34.4537418891
    15 OT CG       0.15E+00    0.4     0.00677821       -34.4542077352 -7.66E-03
    16 OT LS       0.15E+00    0.3                      -34.4567653512
    17 OT CG       0.15E+00    0.5     0.00437649       -34.4567653642 -2.56E-03
    18 OT LS       0.12E+00    0.2                      -34.4574897284
    19 OT CG       0.12E+00    0.4     0.00227021       -34.4575747503 -8.09E-04
    20 OT LS       0.18E+00    0.3                      -34.4578720932
    21 OT CG       0.18E+00    0.4     0.00155526       -34.4579156660 -3.41E-04
    22 OT LS       0.14E+00    0.3                      -34.4580238505
    23 OT CG       0.14E+00    0.5     0.00095843       -34.4580364635 -1.21E-04
    24 OT LS       0.14E+00    0.2                      -34.4580825968
    25 OT CG       0.14E+00    0.4     0.00052642       -34.4580825979 -4.61E-05
    26 OT LS       0.16E+00    0.2                      -34.4580982905
    27 OT CG       0.16E+00    0.4     0.00036561       -34.4580985488 -1.60E-05
    28 OT LS       0.13E+00    0.3                      -34.4581048778
    29 OT CG       0.13E+00    0.4     0.00020024       -34.4581050826 -6.53E-06
    30 OT LS       0.16E+00    0.3                      -34.4581073667
    31 OT CG       0.16E+00    0.4     0.00012938       -34.4581074307 -2.35E-06
    32 OT LS       0.13E+00    0.3                      -34.4581081991
    33 OT CG       0.13E+00    0.4     0.00007720       -34.4581082368 -8.06E-07
    34 OT LS       0.14E+00    0.2                      -34.4581085345
    35 OT CG       0.14E+00    0.4     0.00004079       -34.4581085349 -2.98E-07
    36 OT LS       0.16E+00    0.2                      -34.4581086321
    37 OT CG       0.16E+00    0.4     0.00002702       -34.4581086349 -1.00E-07
    38 OT LS       0.12E+00    0.3                      -34.4581086643
    39 OT CG       0.12E+00    0.4     0.00001627       -34.4581086679 -3.30E-08
    40 OT LS       0.16E+00    0.2                      -34.4581086827
    41 OT CG       0.16E+00    0.4     0.00000918       -34.4581086836 -1.57E-08
    42 OT LS       0.16E+00    0.3                      -34.4581086885
    43 OT CG       0.16E+00    0.5     0.00000667       -34.4581086885 -4.91E-09
    44 OT LS       0.13E+00    0.3                      -34.4581086905
    45 OT CG       0.13E+00    0.4     0.00000368       -34.4581086906 -2.10E-09

  *** SCF run converged in    45 steps ***


  Electronic density on regular grids:        -15.9999997508        0.0000002492
  Core density on regular grids:               16.0000000001        0.0000000001
  Total charge density on r-space grids:        0.0000002492
  Total charge density g-space grids:           0.0000002492

  Overlap energy of the core charge distribution:               0.00000006611053
  Self energy of the core charge distribution:                -88.69430999347530
  Core Hamiltonian energy:                                     25.83984934687820
  Hartree energy:                                              36.87535683968400
  Exchange-correlation energy:                                 -8.47629746505228
  Dispersion energy:                                           -0.00270748472936

  Total energy:                                               -34.45810869058420

  outer SCF iter =    1 RMS gradient =   0.37E-05 energy =        -34.4581086906
  outer SCF loop converged in   1 iterations or   45 steps


  Integrated absolute spin density  :                               0.0000000000
  Ideal and single determinant S**2 :                    0.000000      -0.000000

 !-----------------------------------------------------------------------------!
                     Mulliken Population Analysis

 #  Atom  Element  Kind  Atomic population (alpha,beta) Net charge  Spin moment
       1     O        1         3.140884     3.140884    -0.281769     0.000000
       2     H        2         0.429205     0.429205     0.141589     0.000000
       3     H        2         0.429085     0.429085     0.141831    -0.000000
       4     O        1         3.142589     3.142589    -0.285178     0.000000
       5     H        2         0.429571     0.429571     0.140857     0.000000
       6     H        2         0.428665     0.428665     0.142670     0.000000
 # Total charge and spin        8.000000     8.000000    -0.000000     0.000000

 !-----------------------------------------------------------------------------!

 !-----------------------------------------------------------------------------!
                           Hirshfeld Charges

  #Atom  Element  Kind  Ref Charge     Population       Spin moment  Net charge
      1       O      1       6.000    3.572   3.572            0.000     -1.145
      2       H      2       1.000    0.219   0.219            0.000      0.562
      3       H      2       1.000    0.208   0.208           -0.000      0.583
      4       O      1       6.000    3.573   3.573            0.000     -1.145
      5       H      2       1.000    0.219   0.219            0.000      0.562
      6       H      2       1.000    0.208   0.208            0.000      0.584

  Total Charge                                                            0.001
 !-----------------------------------------------------------------------------!

 ENERGY| Total FORCE_EVAL ( QS ) energy (a.u.):              -34.456983383636754


 --------  Informations at step =     0 ------------
  Optimization Method        =                 BFGS
  Total Energy               =       -34.4569833836
  Used time                  =               17.251
 ---------------------------------------------------

 --------------------------
 OPTIMIZATION STEP:      1
 --------------------------

  Step is scaled; Scaling factor =  0.35497

 Spin 1

 Number of electrons:                                                          8
 Number of occupied orbitals:                                                  8
 Number of molecular orbitals:                                                 8

 Spin 2

 Number of electrons:                                                          8
 Number of occupied orbitals:                                                  8
 Number of molecular orbitals:                                                 8

 Number of orbital functions:                                                 46
 Number of independent orbital functions:                                     46

 Parameters for the always stable predictor-corrector (ASPC) method:

  ASPC order: 0

  B(1) =   1.000000

 Parameters for the always stable predictor-corrector (ASPC) method:

  ASPC order: 0

  B(1) =   1.000000

 Extrapolation method: ASPC


 SCF WAVEFUNCTION OPTIMIZATION

  ----------------------------------- OT ---------------------------------------
  Minimizer      : CG                  : conjugate gradient
  Preconditioner : FULL_ALL            : diagonalization, state selective
  Precond_solver : DEFAULT
  Line search    : 2PNT                : 2 energies, one gradient
  stepsize       :    0.15000000                  energy_gap     :    0.08000000
  eps_taylor     :   0.10000E-15                  max_taylor     :             4
  ----------------------------------- OT ---------------------------------------

  Step     Update method      Time    Convergence         Total energy    Change
  ------------------------------------------------------------------------------
     1 OT CG       0.15E+00    0.3     0.01481117       -34.4069491214 -3.44E+01
     2 OT LS       0.40E+00    0.2                      -34.4266596686
     3 OT CG       0.40E+00    0.4     0.00781417       -34.4388591262 -3.19E-02
     4 OT LS       0.20E+00    0.2                      -34.4387657940
     5 OT CG       0.20E+00    0.4     0.00091838       -34.4431539276 -4.29E-03
     6 OT LS       0.27E+00    0.2                      -34.4432318971
     7 OT CG       0.27E+00    0.4     0.00034277       -34.4432372741 -8.33E-05
     8 OT LS       0.25E+00    0.2                      -34.4432479694
     9 OT CG       0.25E+00    0.4     0.00007366       -34.4432480374 -1.08E-05
    10 OT LS       0.34E+00    0.2                      -34.4432486631
    11 OT CG       0.34E+00    0.3     0.00002503       -34.4432487085 -6.71E-07
    12 OT LS       0.19E+00    0.2                      -34.4432487260
    13 OT CG       0.19E+00    0.3     0.00000306       -34.4432487522 -4.37E-08

  *** SCF run converged in    13 steps ***


  Electronic density on regular grids:        -15.9999999425        0.0000000575
  Core density on regular grids:               16.0000000000        0.0000000000
  Total charge density on r-space grids:        0.0000000575
  Total charge density g-space grids:           0.0000000575

  Overlap energy of the core charge distribution:               0.00000005775705
  Self energy of the core charge distribution:                -88.69430999347530
  Core Hamiltonian energy:                                     25.74851009018710
  Hartree energy:                                              36.95481349674900
  Exchange-correlation energy:                                 -8.44946829074748
  Dispersion energy:                                           -0.00279411265975

  Total energy:                                               -34.44324875218938

  outer SCF iter =    1 RMS gradient =   0.31E-05 energy =        -34.4432487522
  outer SCF loop converged in   1 iterations or   13 steps


  Integrated absolute spin density  :                               0.0000000000
  Ideal and single determinant S**2 :                    0.000000       0.000000

 !-----------------------------------------------------------------------------!
                     Mulliken Population Analysis

 #  Atom  Element  Kind  Atomic population (alpha,beta) Net charge  Spin moment
       1     O        1         3.110394     3.110394    -0.220788    -0.000000
       2     H        2         0.424993     0.424993     0.150015     0.000000
       3     H        2         0.437530     0.437530     0.124939    -0.000000
       4     O        1         3.181296     3.181296    -0.362593    -0.000000
       5     H        2         0.421708     0.421708     0.156583    -0.000000
       6     H        2         0.424078     0.424078     0.151844    -0.000000
 # Total charge and spin        8.000000     8.000000     0.000000    -0.000000

 !-----------------------------------------------------------------------------!

 !-----------------------------------------------------------------------------!
                           Hirshfeld Charges

  #Atom  Element  Kind  Ref Charge     Population       Spin moment  Net charge
      1       O      1       6.000    3.564   3.564           -0.000     -1.129
      2       H      2       1.000    0.218   0.218            0.000      0.564
      3       H      2       1.000    0.218   0.218           -0.000      0.564
      4       O      1       6.000    3.579   3.579           -0.000     -1.157
      5       H      2       1.000    0.217   0.217            0.000      0.566
      6       H      2       1.000    0.203   0.203           -0.000      0.593

  Total Charge                                                            0.001
 !-----------------------------------------------------------------------------!

 ENERGY| Total FORCE_EVAL ( QS ) energy (a.u.):              -24.261287003195633


 --------  Informations at step =     1 ------------
  Optimization Method        =                 BFGS
  Total Energy               =       -24.2612870032
  Real energy change         =        10.1956963804
  Predicted change in energy =        -0.1756627199
  Scaling factor             =         0.3549700059
  Step size                  =         0.4724315332
  Trust radius               =         0.4724315332
  Decrease in energy         =                   NO
  Used time                  =                4.686

  Convergence check :
  Max. step size             =         0.4724315332
  Conv. limit for step size  =         0.0030000000
  Convergence in step size   =                   NO
  RMS step size              =         0.2013105078
  Conv. limit for RMS step   =         0.0015000000
  Convergence in RMS step    =                   NO
  Max. gradient              =        17.1960682103
  Conv. limit for gradients  =         0.0004500000
  Conv. for gradients        =                   NO
  RMS gradient               =         6.7338362838
  Conv. limit for RMS grad.  =         0.0003000000
  Conv. for gradients        =                   NO
 ---------------------------------------------------

 --------------------------
 OPTIMIZATION STEP:      2
 --------------------------

 Spin 1

 Number of electrons:                                                          8
 Number of occupied orbitals:                                                  8
 Number of molecular orbitals:                                                 8

 Spin 2

 Number of electrons:                                                          8
 Number of occupied orbitals:                                                  8
 Number of molecular orbitals:                                                 8

 Number of orbital functions:                                                 46
 Number of independent orbital functions:                                     46

 Parameters for the always stable predictor-corrector (ASPC) method:

  ASPC order: 0

  B(1) =   2.000000
  B(2) =  -1.000000

 Parameters for the always stable predictor-corrector (ASPC) method:

  ASPC order: 0

  B(1) =   2.000000
  B(2) =  -1.000000

 Extrapolation method: ASPC


 SCF WAVEFUNCTION OPTIMIZATION

  ----------------------------------- OT ---------------------------------------
  Minimizer      : CG                  : conjugate gradient
  Preconditioner : FULL_ALL            : diagonalization, state selective
  Precond_solver : DEFAULT
  Line search    : 2PNT                : 2 energies, one gradient
  stepsize       :    0.15000000                  energy_gap     :    0.08000000
  eps_taylor     :   0.10000E-15                  max_taylor     :             4
  ----------------------------------- OT ---------------------------------------

  Step     Update method      Time    Convergence         Total energy    Change
  ------------------------------------------------------------------------------
     1 OT CG       0.15E+00    0.2     0.02759644       -34.3251495396 -3.43E+01
     2 OT LS       0.47E+00    0.2                      -34.3958561061
     3 OT CG       0.47E+00    0.3     0.00530034       -34.4553761043 -1.30E-01
     4 OT LS       0.20E+00    0.2                      -34.4537967015
     5 OT CG       0.20E+00    0.3     0.00181250       -34.4573868385 -2.01E-03
     6 OT LS       0.29E+00    0.2                      -34.4577050471
     7 OT CG       0.29E+00    0.3     0.00034564       -34.4577373826 -3.51E-04
     8 OT LS       0.34E+00    0.2                      -34.4577519878
     9 OT CG       0.34E+00    0.3     0.00013924       -34.4577523048 -1.49E-05
    10 OT LS       0.22E+00    0.2                      -34.4577533459
    11 OT CG       0.22E+00    0.3     0.00002541       -34.4577538454 -1.54E-06
    12 OT LS       0.33E+00    0.2                      -34.4577539143
    13 OT CG       0.33E+00    0.3     0.00000598       -34.4577539233 -7.79E-08
    14 OT LS       0.30E+00    0.2                      -34.4577539273
    15 OT CG       0.30E+00    0.3     0.00000241       -34.4577539273 -4.00E-09

  *** SCF run converged in    15 steps ***


  Electronic density on regular grids:        -15.9999998238        0.0000001762
  Core density on regular grids:               16.0000000001        0.0000000001
  Total charge density on r-space grids:        0.0000001762
  Total charge density g-space grids:           0.0000001762

  Overlap energy of the core charge distribution:               0.00000006811348
  Self energy of the core charge distribution:                -88.69430999347530
  Core Hamiltonian energy:                                     25.84836593249700
  Hartree energy:                                              36.86910824401547
  Exchange-correlation energy:                                 -8.47821299042096
  Dispersion energy:                                           -0.00270518807545

  Total energy:                                               -34.45775392734576

  outer SCF iter =    1 RMS gradient =   0.24E-05 energy =        -34.4577539273
  outer SCF loop converged in   1 iterations or   15 steps


  Integrated absolute spin density  :                               0.0000000000
  Ideal and single determinant S**2 :                    0.000000       0.000000

 !-----------------------------------------------------------------------------!
                     Mulliken Population Analysis

 #  Atom  Element  Kind  Atomic population (alpha,beta) Net charge  Spin moment
       1     O        1         3.139522     3.139522    -0.279044    -0.000000
       2     H        2         0.429223     0.429223     0.141553    -0.000000
       3     H        2         0.428770     0.428770     0.142460     0.000000
       4     O        1         3.143234     3.143234    -0.286468     0.000000
       5     H        2         0.429683     0.429683     0.140635    -0.000000
       6     H        2         0.429568     0.429568     0.140864    -0.000000
 # Total charge and spin        8.000000     8.000000     0.000000     0.000000

 !-----------------------------------------------------------------------------!

 !-----------------------------------------------------------------------------!
                           Hirshfeld Charges

  #Atom  Element  Kind  Ref Charge     Population       Spin moment  Net charge
      1       O      1       6.000    3.571   3.571           -0.000     -1.143
      2       H      2       1.000    0.219   0.219           -0.000      0.562
      3       H      2       1.000    0.209   0.209            0.000      0.583
      4       O      1       6.000    3.574   3.574            0.000     -1.148
      5       H      2       1.000    0.219   0.219           -0.000      0.562
      6       H      2       1.000    0.208   0.208           -0.000      0.584

  Total Charge                                                            0.001
 !-----------------------------------------------------------------------------!

 ENERGY| Total FORCE_EVAL ( QS ) energy (a.u.):              -34.457402952140967


 --------  Informations at step =     2 ------------
  Optimization Method        =                 BFGS
  Total Energy               =       -34.4574029521
  Real energy change         =       -10.1961159489
  Predicted change in energy =       -10.2195937890
  Scaling factor             =         0.3549700059
  Step size                  =         0.4505877813
  Trust radius               =         0.4724315332
  Decrease in energy         =                  YES
  Used time                  =                4.765

  Convergence check :
  Max. step size             =         0.4505877813
  Conv. limit for step size  =         0.0030000000
  Convergence in step size   =                   NO
  RMS step size              =         0.2000268846
  Conv. limit for RMS step   =         0.0015000000
  Convergence in RMS step    =                   NO
  Max. gradient              =         0.1109290794
  Conv. limit for gradients  =         0.0004500000
  Conv. for gradients        =                   NO
  RMS gradient               =         0.0406929772
  Conv. limit for RMS grad.  =         0.0003000000
  Conv. for gradients        =                   NO
 ---------------------------------------------------

 --------------------------
 OPTIMIZATION STEP:      3
 --------------------------

 Spin 1

 Number of electrons:                                                          8
 Number of occupied orbitals:                                                  8
 Number of molecular orbitals:                                                 8

 Spin 2

 Number of electrons:                                                          8
 Number of occupied orbitals:                                                  8
 Number of molecular orbitals:                                                 8

 Number of orbital functions:                                                 46
 Number of independent orbital functions:                                     46

 Parameters for the always stable predictor-corrector (ASPC) method:

  ASPC order: 1

  B(1) =   2.500000
  B(2) =  -2.000000
  B(3) =   0.500000

 Parameters for the always stable predictor-corrector (ASPC) method:

  ASPC order: 1

  B(1) =   2.500000
  B(2) =  -2.000000
  B(3) =   0.500000

 Extrapolation method: ASPC


 SCF WAVEFUNCTION OPTIMIZATION

  ----------------------------------- OT ---------------------------------------
  Minimizer      : CG                  : conjugate gradient
  Preconditioner : FULL_ALL            : diagonalization, state selective
  Precond_solver : DEFAULT
  Line search    : 2PNT                : 2 energies, one gradient
  stepsize       :    0.15000000                  energy_gap     :    0.08000000
  eps_taylor     :   0.10000E-15                  max_taylor     :             4
  ----------------------------------- OT ---------------------------------------

  Step     Update method      Time    Convergence         Total energy    Change
  ------------------------------------------------------------------------------
     1 OT CG       0.15E+00    0.2     0.02652669       -34.3354506389 -3.43E+01
     2 OT LS       0.46E+00    0.2                      -34.4004580140
     3 OT CG       0.46E+00    0.3     0.00573467       -34.4545359879 -1.19E-01
     4 OT LS       0.22E+00    0.2                      -34.4539081235
     5 OT CG       0.22E+00    0.3     0.00146708       -34.4571834772 -2.65E-03
     6 OT LS       0.29E+00    0.2                      -34.4573970778
     7 OT CG       0.29E+00    0.3     0.00023031       -34.4574099369 -2.26E-04
     8 OT LS       0.39E+00    0.2                      -34.4574170496
     9 OT CG       0.39E+00    0.4     0.00006364       -34.4574176338 -7.70E-06
    10 OT LS       0.20E+00    0.3                      -34.4574176702
    11 OT CG       0.20E+00    0.3     0.00001805       -34.4574179368 -3.03E-07
    12 OT LS       0.30E+00    0.2                      -34.4574179691
    13 OT CG       0.30E+00    0.3     0.00000306       -34.4574179730 -3.63E-08

  *** SCF run converged in    13 steps ***


  Electronic density on regular grids:        -15.9999998451        0.0000001549
  Core density on regular grids:               16.0000000001        0.0000000001
  Total charge density on r-space grids:        0.0000001550
  Total charge density g-space grids:           0.0000001550

  Overlap energy of the core charge distribution:               0.00000006362482
  Self energy of the core charge distribution:                -88.69430999347530
  Core Hamiltonian energy:                                     25.82768871479994
  Hartree energy:                                              36.88490924143023
  Exchange-correlation energy:                                 -8.47299280595909
  Dispersion energy:                                           -0.00271319344097

  Total energy:                                               -34.45741797302037

  outer SCF iter =    1 RMS gradient =   0.31E-05 energy =        -34.4574179730
  outer SCF loop converged in   1 iterations or   13 steps


  Integrated absolute spin density  :                               0.0000000000
  Ideal and single determinant S**2 :                    0.000000       0.000000

 !-----------------------------------------------------------------------------!
                     Mulliken Population Analysis

 #  Atom  Element  Kind  Atomic population (alpha,beta) Net charge  Spin moment
       1     O        1         3.142287     3.142287    -0.284573     0.000000
       2     H        2         0.428651     0.428651     0.142697     0.000000
       3     H        2         0.429060     0.429060     0.141879     0.000000
       4     O        1         3.141977     3.141977    -0.283954     0.000000
       5     H        2         0.430133     0.430133     0.139734     0.000000
       6     H        2         0.427892     0.427892     0.144216     0.000000
 # Total charge and spin        8.000000     8.000000     0.000000     0.000000

 !-----------------------------------------------------------------------------!

 !-----------------------------------------------------------------------------!
                           Hirshfeld Charges

  #Atom  Element  Kind  Ref Charge     Population       Spin moment  Net charge
      1       O      1       6.000    3.574   3.574            0.000     -1.147
      2       H      2       1.000    0.219   0.219            0.000      0.563
      3       H      2       1.000    0.208   0.208            0.000      0.583
      4       O      1       6.000    3.571   3.571            0.000     -1.142
      5       H      2       1.000    0.220   0.220            0.000      0.560
      6       H      2       1.000    0.209   0.209            0.000      0.583

  Total Charge                                                            0.001
 !-----------------------------------------------------------------------------!

 ENERGY| Total FORCE_EVAL ( QS ) energy (a.u.):              -34.456748509484250


 --------  Informations at step =     3 ------------
  Optimization Method        =                 BFGS
  Total Energy               =       -34.4567485095
  Real energy change         =         0.0006544427
  Predicted change in energy =        -0.0018225698
  Scaling factor             =         0.3549700059
  Step size                  =         0.0873543704
  Trust radius               =         0.4724315332
  Decrease in energy         =                   NO
  Used time                  =                4.637

  Convergence check :
  Max. step size             =         0.0873543704
  Conv. limit for step size  =         0.0030000000
  Convergence in step size   =                   NO
  RMS step size              =         0.0396665319
  Conv. limit for RMS step   =         0.0015000000
  Convergence in RMS step    =                   NO
  Max. gradient              =         0.1464542985
  Conv. limit for gradients  =         0.0004500000
  Conv. for gradients        =                   NO
  RMS gradient               =         0.0547505087
  Conv. limit for RMS grad.  =         0.0003000000
  Conv. for gradients        =                   NO
 ---------------------------------------------------

 --------------------------
 OPTIMIZATION STEP:      4
 --------------------------

 Spin 1

 Number of electrons:                                                          8
 Number of occupied orbitals:                                                  8
 Number of molecular orbitals:                                                 8

 Spin 2

 Number of electrons:                                                          8
 Number of occupied orbitals:                                                  8
 Number of molecular orbitals:                                                 8

 Number of orbital functions:                                                 46
 Number of independent orbital functions:                                     46

 Parameters for the always stable predictor-corrector (ASPC) method:

  ASPC order: 2

  B(1) =   2.800000
  B(2) =  -2.800000
  B(3) =   1.200000
  B(4) =  -0.200000

 Parameters for the always stable predictor-corrector (ASPC) method:

  ASPC order: 2

  B(1) =   2.800000
  B(2) =  -2.800000
  B(3) =   1.200000
  B(4) =  -0.200000

 Extrapolation method: ASPC


 SCF WAVEFUNCTION OPTIMIZATION

  ----------------------------------- OT ---------------------------------------
  Minimizer      : CG                  : conjugate gradient
  Preconditioner : FULL_ALL            : diagonalization, state selective
  Precond_solver : DEFAULT
  Line search    : 2PNT                : 2 energies, one gradient
  stepsize       :    0.15000000                  energy_gap     :    0.08000000
  eps_taylor     :   0.10000E-15                  max_taylor     :             4
  ----------------------------------- OT ---------------------------------------

  Step     Update method      Time    Convergence         Total energy    Change
  ------------------------------------------------------------------------------
     1 OT CG       0.15E+00    0.2     0.01997639       -34.3872350084 -3.44E+01
     2 OT LS       0.48E+00    0.2                      -34.4243412092
     3 OT CG       0.48E+00    0.3     0.00408033       -34.4567779848 -6.95E-02
     4 OT LS       0.18E+00    0.2                      -34.4551201538
     5 OT CG       0.18E+00    0.3     0.00093105       -34.4579053560 -1.13E-03
     6 OT LS       0.31E+00    0.2                      -34.4579883117
     7 OT CG       0.31E+00    0.3     0.00016526       -34.4580046395 -9.93E-05
     8 OT LS       0.32E+00    0.2                      -34.4580078807
     9 OT CG       0.32E+00    0.3     0.00006670       -34.4580078853 -3.25E-06
    10 OT LS       0.23E+00    0.2                      -34.4580082082
    11 OT CG       0.23E+00    0.3     0.00001022       -34.4580082658 -3.81E-07
    12 OT LS       0.31E+00    0.2                      -34.4580082771
    13 OT CG       0.31E+00    0.3     0.00000311       -34.4580082779 -1.21E-08

  *** SCF run converged in    13 steps ***


  Electronic density on regular grids:        -15.9999997661        0.0000002339
  Core density on regular grids:               16.0000000001        0.0000000001
  Total charge density on r-space grids:        0.0000002340
  Total charge density g-space grids:           0.0000002340

  Overlap energy of the core charge distribution:               0.00000006501737
  Self energy of the core charge distribution:                -88.69430999347530
  Core Hamiltonian energy:                                     25.83431232443784
  Hartree energy:                                              36.87949494091697
  Exchange-correlation energy:                                 -8.47479570343120
  Dispersion energy:                                           -0.00270991138753

  Total energy:                                               -34.45800827792184

  outer SCF iter =    1 RMS gradient =   0.31E-05 energy =        -34.4580082779
  outer SCF loop converged in   1 iterations or   13 steps


  Integrated absolute spin density  :                               0.0000000000
  Ideal and single determinant S**2 :                    0.000000       0.000000

 !-----------------------------------------------------------------------------!
                     Mulliken Population Analysis

 #  Atom  Element  Kind  Atomic population (alpha,beta) Net charge  Spin moment
       1     O        1         3.141389     3.141389    -0.282779     0.000000
       2     H        2         0.429076     0.429076     0.141849     0.000000
       3     H        2         0.428977     0.428977     0.142045     0.000000
       4     O        1         3.142768     3.142768    -0.285536     0.000000
       5     H        2         0.429596     0.429596     0.140807     0.000000
       6     H        2         0.428193     0.428193     0.143614     0.000000
 # Total charge and spin        8.000000     8.000000     0.000000     0.000000

 !-----------------------------------------------------------------------------!

 !-----------------------------------------------------------------------------!
                           Hirshfeld Charges

  #Atom  Element  Kind  Ref Charge     Population       Spin moment  Net charge
      1       O      1       6.000    3.573   3.573            0.000     -1.145
      2       H      2       1.000    0.219   0.219            0.000      0.562
      3       H      2       1.000    0.208   0.208            0.000      0.583
      4       O      1       6.000    3.572   3.572            0.000     -1.145
      5       H      2       1.000    0.219   0.219            0.000      0.562
      6       H      2       1.000    0.208   0.208            0.000      0.584

  Total Charge                                                            0.001
 !-----------------------------------------------------------------------------!

 ENERGY| Total FORCE_EVAL ( QS ) energy (a.u.):              -34.457899577667845


 --------  Informations at step =     4 ------------
  Optimization Method        =                 BFGS
  Total Energy               =       -34.4578995777
  Real energy change         =        -0.0011510682
  Predicted change in energy =        -0.0008128040
  Scaling factor             =         0.3549700059
  Step size                  =         0.0363492592
  Trust radius               =         0.4724315332
  Decrease in energy         =                  YES
  Used time                  =                4.234

  Convergence check :
  Max. step size             =         0.0363492592
  Conv. limit for step size  =         0.0030000000
  Convergence in step size   =                   NO
  RMS step size              =         0.0156639091
  Conv. limit for RMS step   =         0.0015000000
  Convergence in RMS step    =                   NO
  Max. gradient              =         0.0562287025
  Conv. limit for gradients  =         0.0004500000
  Conv. for gradients        =                   NO
  RMS gradient               =         0.0211409793
  Conv. limit for RMS grad.  =         0.0003000000
  Conv. for gradients        =                   NO
 ---------------------------------------------------

 --------------------------
 OPTIMIZATION STEP:      5
 --------------------------

 Spin 1

 Number of electrons:                                                          8
 Number of occupied orbitals:                                                  8
 Number of molecular orbitals:                                                 8

 Spin 2

 Number of electrons:                                                          8
 Number of occupied orbitals:                                                  8
 Number of molecular orbitals:                                                 8

 Number of orbital functions:                                                 46
[...]
  eps_taylor     :   0.10000E-15                  max_taylor     :             4
  ----------------------------------- OT ---------------------------------------

  Step     Update method      Time    Convergence         Total energy    Change
  ------------------------------------------------------------------------------
     1 OT CG       0.15E+00    0.3     0.00022067       -34.4580724711 -3.45E+01
     2 OT LS       0.50E+00    0.2                      -34.4580770341
     3 OT CG       0.50E+00    0.4     0.00001602       -34.4580813570 -8.89E-06
     4 OT LS       0.20E+00    0.3                      -34.4580813367
     5 OT CG       0.20E+00    0.4     0.00000382       -34.4580813762 -1.92E-08

  *** SCF run converged in     5 steps ***


  Electronic density on regular grids:        -15.9999997552        0.0000002448
  Core density on regular grids:               16.0000000001        0.0000000001
  Total charge density on r-space grids:        0.0000002449
  Total charge density g-space grids:           0.0000002449

  Overlap energy of the core charge distribution:               0.00000006661359
  Self energy of the core charge distribution:                -88.69430999347530
  Core Hamiltonian energy:                                     25.84126837464239
  Hartree energy:                                              36.87434439090828
  Exchange-correlation energy:                                 -8.47667555607597
  Dispersion energy:                                           -0.00270865882074

  Total energy:                                               -34.45808137620777

  outer SCF iter =    1 RMS gradient =   0.38E-05 energy =        -34.4580813762
  outer SCF loop converged in   1 iterations or    5 steps


  Integrated absolute spin density  :                               0.0000000000
  Ideal and single determinant S**2 :                    0.000000       0.000000

 !-----------------------------------------------------------------------------!
                     Mulliken Population Analysis

 #  Atom  Element  Kind  Atomic population (alpha,beta) Net charge  Spin moment
       1     O        1         3.140316     3.140316    -0.280631     0.000000
       2     H        2         0.429143     0.429143     0.141714     0.000000
       3     H        2         0.429348     0.429348     0.141304     0.000000
       4     O        1         3.142820     3.142820    -0.285640    -0.000000
       5     H        2         0.429647     0.429647     0.140706    -0.000000
       6     H        2         0.428727     0.428727     0.142547     0.000000
 # Total charge and spin        8.000000     8.000000     0.000000     0.000000

 !-----------------------------------------------------------------------------!

 !-----------------------------------------------------------------------------!
                           Hirshfeld Charges

  #Atom  Element  Kind  Ref Charge     Population       Spin moment  Net charge
      1       O      1       6.000    3.572   3.572            0.000     -1.145
      2       H      2       1.000    0.219   0.219            0.000      0.562
      3       H      2       1.000    0.209   0.209            0.000      0.583
      4       O      1       6.000    3.573   3.573            0.000     -1.145
      5       H      2       1.000    0.219   0.219           -0.000      0.562
      6       H      2       1.000    0.208   0.208           -0.000      0.584

  Total Charge                                                            0.001
 !-----------------------------------------------------------------------------!

 ENERGY| Total FORCE_EVAL ( QS ) energy (a.u.):              -34.458081173332964


 -------------------------------------------------------------------------------
 -                                                                             -
 -                                DBCSR STATISTICS                             -
 -                                                                             -
 -------------------------------------------------------------------------------
 COUNTER                                    TOTAL       BLAS       SMM       ACC
 flops     5 x     8 x     8               711680     100.0%      0.0%      0.0%
 flops    10 x     8 x     5              1177600     100.0%      0.0%      0.0%
 flops     5 x     5 x     8              1376000     100.0%      0.0%      0.0%
 flops    10 x     8 x     8              1423360     100.0%      0.0%      0.0%
 flops     5 x    13 x     8              1431040     100.0%      0.0%      0.0%
 flops    13 x     5 x     8              1431040     100.0%      0.0%      0.0%
 flops    10 x     8 x    13              1530880     100.0%      0.0%      0.0%
 flops     8 x     8 x     8              1638400     100.0%      0.0%      0.0%
 flops     8 x     8 x     5              2073600     100.0%      0.0%      0.0%
 flops     8 x     8 x    13              2695680     100.0%      0.0%      0.0%
 flops    13 x    13 x     8              2790528     100.0%      0.0%      0.0%
 flops    31 x     8 x     5              3650560     100.0%      0.0%      0.0%
 flops    31 x     8 x     8              4412416     100.0%      0.0%      0.0%
 flops    31 x     8 x    13              4745728     100.0%      0.0%      0.0%
 flops     5 x     8 x     5              5011200     100.0%      0.0%      0.0%
 flops    13 x     8 x     5              5749120     100.0%      0.0%      0.0%
 flops     5 x     8 x    13              6514560     100.0%      0.0%      0.0%
 flops    13 x     8 x    13              7473856     100.0%      0.0%      0.0%
 flops inhomo. stacks                           0       0.0%      0.0%      0.0%
 flops total                        55.837248E+06     100.0%      0.0%      0.0%
 flops max/rank                     38.130528E+06     100.0%      0.0%      0.0%
 matmuls inhomo. stacks                         0       0.0%      0.0%      0.0%
 matmuls total                              48520     100.0%      0.0%      0.0%
 number of processed stacks                 38508     100.0%      0.0%      0.0%
 average stack size                                     1.3       0.0       0.0
 marketing flops                    60.585268E+06
 -------------------------------------------------------------------------------
 # multiplications                           4947
 max memory usage/rank             206.757888E+06
 # max total images/rank                        5
 # max 3D layers                                1
 # MPI messages exchanged                12466440
 MPI messages size (bytes):
  total size                       299.886048E+06
  min size                           0.000000E+00
  max size                           3.224000E+03
  average size                      24.055468E+00
 MPI breakdown and total messages size (bytes):
             size <=      128            12056616                        0
       128 < size <=     8192              409824                299886048
      8192 < size <=    32768                   0                        0
     32768 < size <=   131072                   0                        0
    131072 < size <=  4194304                   0                        0
   4194304 < size <= 16777216                   0                        0
  16777216 < size                               0                        0
 -------------------------------------------------------------------------------

 *** WARNING in dbcsr/mm/dbcsr_mm.F:268 :: Using a non-square number of ***
 *** MPI ranks might lead to poor performance.                          ***
 *** Used ranks: 40                                                     ***
 *** Suggested: 36 81                                                   ***

 -------------------------------------------------------------------------------
 
 MEMORY| Estimated peak process memory [MiB]                                 198

 -------------------------------------------------------------------------------
 ----                             MULTIGRID INFO                            ----
 -------------------------------------------------------------------------------
 count for grid        1:         232562          cutoff [a.u.]          150.00
 count for grid        2:          80903          cutoff [a.u.]           50.00
 count for grid        3:          65050          cutoff [a.u.]           16.67
 count for grid        4:          26812          cutoff [a.u.]            5.56
 count for grid        5:            600          cutoff [a.u.]            1.85
 total gridlevel count  :         405927

 -------------------------------------------------------------------------------
 -                                                                             -
 -                         MESSAGE PASSING PERFORMANCE                         -
 -                                                                             -
 -------------------------------------------------------------------------------

 ROUTINE             CALLS      AVE VOLUME [Bytes]
 MP_Group              553
 MP_Bcast             3180                 116979.
 MP_Allreduce        34089                     16.
 MP_Sync              2293
 MP_Alltoall         27269                  26587.
 MP_SendRecv          1560                    238.
 MP_ISendRecv       100776                  11985.
 MP_Wait            577712
 MP_comm_split         264
 MP_ISend           658820                    110.
 MP_IRecv           655802                     92.
 MP_Recv                72                    288.
 MP_Memory          628922
 -------------------------------------------------------------------------------


 -------------------------------------------------------------------------------
 -                                                                             -
 -                           R E F E R E N C E S                               -
 -                                                                             -
 -------------------------------------------------------------------------------
 
 CP2K version 7.0 (Development Version), the CP2K developers group (2018).
 CP2K is freely available from https://www.cp2k.org/ .

 Schuett, Ole; Messmer, Peter; Hutter, Juerg; VandeVondele, Joost. 
 Electronic Structure Calculations on Graphics Processing Units, John Wiley & Sons, Ltd, 173-190 (2016). 
 GPU-Accelerated Sparse Matrix-Matrix Multiplication for Linear Scaling Density Functional Theory.
 http://dx.doi.org/10.1002/9781118670712.ch8


 Borstnik, U; VandeVondele, J; Weber, V; Hutter, J. 
 PARALLEL COMPUTING, 40 (5-6), 47-58 (2014). 
 Sparse matrix multiplication: The distributed block-compressed sparse
 row library.
 http://dx.doi.org/10.1016/j.parco.2014.03.012


 Hutter, J; Iannuzzi, M; Schiffmann, F; VandeVondele, J. 
 WILEY INTERDISCIPLINARY REVIEWS-COMPUTATIONAL MOLECULAR SCIENCE, 4 (1), 15-25 (2014). 
 CP2K: atomistic simulations of condensed matter systems.
 http://dx.doi.org/10.1002/wcms.1159


 Grimme, S; Ehrlich, S; Goerigk, L. 
 JOURNAL OF COMPUTATIONAL CHEMISTRY, 32, 1456 (2011). 
 Effect of the damping function in dispersion corrected density functional theory.
 http://dx.doi.org/10.1002/jcc.21759


 Grimme, S; Antony, J; Ehrlich, S; Krieg, H. 
 JOURNAL OF CHEMICAL PHYSICS, 132 (15), 154104 (2010). 
 A consistent and accurate ab initio parametrization of density
 functional dispersion correction (DFT-D) for the 94 elements H-Pu.
 http://dx.doi.org/10.1063/1.3382344


 VandeVondele, J; Hutter, J. 
 JOURNAL OF CHEMICAL PHYSICS, 127 (11), 114105 (2007). 
 Gaussian basis sets for accurate calculations on molecular systems in
 gas and condensed phases.
 http://dx.doi.org/10.1063/1.2770708


 Krack, M. 
 THEORETICAL CHEMISTRY ACCOUNTS, 114 (1-3), 145-152 (2005). 
 Pseudopotentials for H to Kr optimized for gradient-corrected
 exchange-correlation functionals.
 http://dx.doi.org/10.1007/s00214-005-0655-y


 VandeVondele, J; Krack, M; Mohamed, F; Parrinello, M; Chassaing, T;
 Hutter, J. COMPUTER PHYSICS COMMUNICATIONS, 167 (2), 103-128 (2005). 
 QUICKSTEP: Fast and accurate density functional calculations using a
 mixed Gaussian and plane waves approach.
 http://dx.doi.org/10.1016/j.cpc.2004.12.014


 Frigo, M; Johnson, SG. 
 PROCEEDINGS OF THE IEEE, 93 (2), 216-231 (2005). 
 The design and implementation of FFTW3.
 http://dx.doi.org/10.1109/JPROC.2004.840301


 Kolafa, J. 
 JOURNAL OF COMPUTATIONAL CHEMISTRY, 25 (3), 335-342 (2004). 
 Time-reversible always stable predictor-corrector method for molecular dynamics of polarizable molecules.
 http://dx.doi.org/10.1002/jcc.10385


 VandeVondele, J; Hutter, J. 
 JOURNAL OF CHEMICAL PHYSICS, 118 (10), 4365-4369 (2003). 
 An efficient orbital transformation method for electronic structure
 calculations.
 http://dx.doi.org/10.1063/1.1543154


 Hartwigsen, C; Goedecker, S; Hutter, J. 
 PHYSICAL REVIEW B, 58 (7), 3641-3662 (1998). 
 Relativistic separable dual-space Gaussian pseudopotentials from H to Rn.
 http://dx.doi.org/10.1103/PhysRevB.58.3641


 Lippert, G; Hutter, J; Parrinello, M. 
 MOLECULAR PHYSICS, 92 (3), 477-487 (1997). 
 A hybrid Gaussian and plane wave density functional scheme.
 http://dx.doi.org/10.1080/002689797170220


 Perdew, JP; Burke, K; Ernzerhof, M. 
 PHYSICAL REVIEW LETTERS, 77 (18), 3865-3868 (1996). 
 Generalized gradient approximation made simple.
 http://dx.doi.org/10.1103/PhysRevLett.77.3865


 Goedecker, S; Teter, M; Hutter, J. 
 PHYSICAL REVIEW B, 54 (3), 1703-1710 (1996). 
 Separable dual-space Gaussian pseudopotentials.
 http://dx.doi.org/10.1103/PhysRevB.54.1703


 -------------------------------------------------------------------------------
 -                                                                             -
 -                                T I M I N G                                  -
 -                                                                             -
 -------------------------------------------------------------------------------
 SUBROUTINE                       CALLS  ASD         SELF TIME        TOTAL TIME
                                MAXIMUM       AVERAGE  MAXIMUM  AVERAGE  MAXIMUM
 CP2K                                 1  1.0    0.036    0.048   61.259   61.261
 cp_geo_opt                           1  2.0    0.000    0.000   60.710   60.875
 geoopt_bfgs                          1  3.0    0.014    0.021   60.709   60.875
 cp_eval_at                          11  4.0    0.002    0.012   56.229   56.258
 qs_energies                         11  5.9    0.002    0.021   53.585   53.614
 qs_forces                           10  5.0    0.002    0.018   53.357   53.367
 scf_env_do_scf                      11  6.9    0.001    0.002   47.634   47.634
 scf_env_do_scf_inner_loop          151  8.0    0.007    0.022   45.492   45.504
 mp_waitall_1                    577712 16.7   28.341   32.767   28.341   32.767
 rs_pw_transfer                    2584 12.9    0.010    0.011   28.172   32.315
 qs_rho_update_rho                  162  9.0    0.001    0.001   30.234   30.247
 calculate_rho_elec                 324 10.0    4.097   25.512   30.233   30.246
 density_rs2pw                      324 11.0    0.013    0.023   25.918   30.025
 rs_pw_transfer_RS2PW_150           346 12.9    0.221    0.237   25.499   29.667
 dbcsr_multiply_generic            4947 13.7    0.179    0.230   12.695   13.203
 qs_scf_new_mos                     151  9.0    0.001    0.001   10.335   10.348
 qs_scf_loop_do_ot                  151 10.0    0.004    0.083   10.334   10.347
 rebuild_ks_matrix                  161  9.8    0.001    0.005   10.318   10.335
 qs_ks_build_kohn_sham_matrix       161 10.8    0.013    0.025   10.318   10.335
 ot_scf_mini                        151 11.0    0.008    0.031    9.578    9.601
 qs_ks_update_qs_env                162  9.0    0.001    0.001    8.050    8.067
 sum_up_and_integrate                91 11.6    0.008    0.009    5.587    7.977
 integrate_v_rspace                 182 12.6    0.881    5.682    5.579    7.970
 pw_transfer                       4972 13.3    0.242    0.281    5.008    5.496
 fft_wrap_pw1pw2                   4650 14.3    0.014    0.017    4.762    5.250
 ot_mini                            151 12.0    0.001    0.011    5.115    5.126
 potential_pw2rs                    182 13.6    0.006    0.006    4.684    5.125
 fft3d_ps                          4650 16.3    0.265    0.369    4.607    5.103
 mp_sum_l                         23384 14.8    4.415    5.000    4.415    5.000
 fft_wrap_pw1pw2_150               2626 15.6    0.065    0.088    4.304    4.791
 multiply_cannon                   4947 14.7    0.897    0.951    4.352    4.620
 mp_alltoall_z22v                  4650 18.3    3.917    4.471    3.917    4.471
 qs_ot_get_derivative               162 13.0    0.001    0.011    4.166    4.184
 yz_to_x                           1063 17.3    0.021    0.031    3.404    3.910
 make_m2s                          9894 14.7    0.179    0.195    3.280    3.348
 init_scf_run                        11  6.9    0.000    0.002    2.841    2.841
 scf_env_initial_rho_setup           11  7.9    0.000    0.000    2.841    2.841
 qs_ot_get_p                        324 11.8    0.001    0.002    2.764    2.804
 mp_sum_dm                          410  6.1    2.582    2.650    2.582    2.650
 virial_evaluate                      9  4.0    0.000    0.000    2.547    2.614
 qs_energies_init_hamiltonians       11  6.9    0.001    0.013    2.562    2.595
 make_images                       9894 15.7    0.213    0.239    2.501    2.552
 mp_sum_d                          4818 13.2    2.141    2.474    2.141    2.474
 write_restart                       10  4.0    0.060    2.356    0.061    2.357
 qs_ks_update_qs_env_forces          10  6.0    0.000    0.000    2.297    2.298
 wfi_extrapolate                     11  8.9    0.002    0.029    2.266    2.266
 init_scf_loop                       11  7.9    0.001    0.011    2.101    2.101
 cp_fm_syevd                        264 13.9    0.001    0.001    1.956    2.008
 qs_ot_get_derivative_diag           92 14.0    0.002    0.012    1.854    1.867
 write_bfgs_hessian                   9  4.0    0.006    0.236    0.239    1.774
 rs_pw_transfer_PW2RS_150           214 15.0    0.169    0.188    1.655    1.699
 make_images_sizes                 9894 16.7    0.008    0.009    1.542    1.612
 qs_vxc_create                      161 11.8    0.002    0.002    1.601    1.612
 mp_alltoall_i44                   9894 17.7    1.534    1.604    1.534    1.604
 cp_fm_redistribute_start           264 14.9    0.098    0.101    1.526    1.568
 calculate_dispersion_pairpot        11  7.9    0.174    1.352    1.553    1.568
 cp_fm_write_unformatted              9  5.0    0.233    1.538    0.233    1.538
 mp_comm_split                      264 15.9    1.427    1.468    1.428    1.469
 qs_ot_p2m_diag                     188 13.0    0.003    0.024    1.273    1.293
 xc_vxc_pw_create                    91 12.6    0.123    0.160    1.242    1.245
 qs_ot_get_orbitals                 302 12.0    0.001    0.001    1.188    1.228
 -------------------------------------------------------------------------------

 The number of warnings for this run is : 1
 
 -------------------------------------------------------------------------------
  **** **** ******  **  PROGRAM ENDED AT                 2019-07-08 13:47:45.313
 ***** ** ***  *** **   PROGRAM RAN ON            blg9147.int.ets1.calculquebec.
 **    ****   ******    PROGRAM RAN BY                                       rzk
 ***** **    ** ** **   PROGRAM PROCESS ID                                128865
  **** **  *******  **  PROGRAM STOPPED IN /lustre04/scratch/rzk/rzk/GaN-carbene
                                           /443-adatoms-both-2x2/09-BondBreaking
                                           -CH/02-0401-CH-to-NTop-PES/PRACTICE
