 DBCSR| Multiplication driver                                               BLAS
 DBCSR| Multrec recursion limit                                              512
 DBCSR| Multiplication stack size                                           1000
 DBCSR| Maximum elements for images                                    UNLIMITED
 DBCSR| Multiplicative factor virtual images                                   1
 DBCSR| Multiplication size stacks                                             3
 DBCSR| Number of 3D layers                                               SINGLE
 DBCSR| Use MPI memory allocation                                              T
 DBCSR| Use RMA algorithm                                                      F
 DBCSR| Use Communication thread                                               T
 DBCSR| Communication thread load                                             87


  **** **** ******  **  PROGRAM STARTED AT               2019-05-23 15:29:15.543
 ***** ** ***  *** **   PROGRAM STARTED ON        blg9120.int.ets1.calculquebec.
 **    ****   ******    PROGRAM STARTED BY                                   rzk
 ***** **    ** ** **   PROGRAM PROCESS ID                                118785
  **** **  *******  **  PROGRAM STARTED IN /lustre03/project/6004141/rzk/GaN-car
                                           bene/01-Methanol/03-both-ads

 CP2K| version string:                    CP2K version 7.0 (Development Version)
 CP2K| source code revision number:                                    svn:18619
 CP2K| cp2kflags: libint fftw3 libxc parallel mpi3 scalapack mkl                
 CP2K| is freely available from                            https://www.cp2k.org/
 CP2K| Program compiled at                          Sun Apr  7 00:48:11 EDT 2019
 CP2K| Program compiled on                      beluga2.int.ets1.calculquebec.ca
 CP2K| Program compiled for                    Beluga-Linux-x86-64-intel-openmpi
 CP2K| Data directory path    /home/rzk/projects/def-rzk/group/cp2k/cp2k-mcgill/
 CP2K| Input file name                                                 start.inp
 
 GLOBAL| Force Environment number                                              1
 GLOBAL| Basis set file name                                        BASIS_MOLOPT
 GLOBAL| Potential file name                                      GTH_POTENTIALS
 GLOBAL| MM Potential file name                                     MM_POTENTIAL
 GLOBAL| Coordinate file name                                      __STD_INPUT__
 GLOBAL| Method name                                                        CP2K
 GLOBAL| Project name                                                       TEST
 GLOBAL| Preferred FFT library                                             FFTW3
 GLOBAL| Preferred diagonalization lib.                                       SL
 GLOBAL| Run type                                                        GEO_OPT
 GLOBAL| All-to-all communication in single precision                          F
 GLOBAL| FFTs using library dependent lengths                                  F
 GLOBAL| Global print level                                               MEDIUM
 GLOBAL| MPI I/O enabled                                                       T
 GLOBAL| Total number of message passing processes                            80
 GLOBAL| Number of threads for this process                                    1
 GLOBAL| This output is from process                                           0
 GLOBAL| CPU model name :  Intel(R) Xeon(R) Gold 6148 CPU @ 2.40GHz

 MEMORY| system memory details [Kb]
 MEMORY|                        rank 0           min           max       average
 MEMORY| MemTotal            196614300     196614300     196614300     196614300
 MEMORY| MemFree             132969320     132969320     176707264     154770342
 MEMORY| Buffers                     0             0            76            38
 MEMORY| Cached               42124476       1534252      42124476      21829374
 MEMORY| Slab                  6541616       4722756       6541616       5632186
 MEMORY| SReclaimable           316464        316464       2274360       1295412
 MEMORY| MemLikelyFree       175410260     175410260     180515952     177895166


 *** Fundamental physical constants (SI units) ***

 *** Literature: B. J. Mohr and B. N. Taylor,
 ***             CODATA recommended values of the fundamental physical
 ***             constants: 2006, Web Version 5.1
 ***             http://physics.nist.gov/constants

 Speed of light in vacuum [m/s]                             2.99792458000000E+08
 Magnetic constant or permeability of vacuum [N/A**2]       1.25663706143592E-06
 Electric constant or permittivity of vacuum [F/m]          8.85418781762039E-12
 Planck constant (h) [J*s]                                  6.62606896000000E-34
 Planck constant (h-bar) [J*s]                              1.05457162825177E-34
 Elementary charge [C]                                      1.60217648700000E-19
 Electron mass [kg]                                         9.10938215000000E-31
 Electron g factor [ ]                                     -2.00231930436220E+00
 Proton mass [kg]                                           1.67262163700000E-27
 Fine-structure constant                                    7.29735253760000E-03
 Rydberg constant [1/m]                                     1.09737315685270E+07
 Avogadro constant [1/mol]                                  6.02214179000000E+23
 Boltzmann constant [J/K]                                   1.38065040000000E-23
 Atomic mass unit [kg]                                      1.66053878200000E-27
 Bohr radius [m]                                            5.29177208590000E-11

 *** Conversion factors ***

 [u] -> [a.u.]                                              1.82288848426455E+03
 [Angstrom] -> [Bohr] = [a.u.]                              1.88972613288564E+00
 [a.u.] = [Bohr] -> [Angstrom]                              5.29177208590000E-01
 [a.u.] -> [s]                                              2.41888432650478E-17
 [a.u.] -> [fs]                                             2.41888432650478E-02
 [a.u.] -> [J]                                              4.35974393937059E-18
 [a.u.] -> [N]                                              8.23872205491840E-08
 [a.u.] -> [K]                                              3.15774647902944E+05
 [a.u.] -> [kJ/mol]                                         2.62549961709828E+03
 [a.u.] -> [kcal/mol]                                       6.27509468713739E+02
 [a.u.] -> [Pa]                                             2.94210107994716E+13
 [a.u.] -> [bar]                                            2.94210107994716E+08
 [a.u.] -> [atm]                                            2.90362800883016E+08
 [a.u.] -> [eV]                                             2.72113838565563E+01
 [a.u.] -> [Hz]                                             6.57968392072181E+15
 [a.u.] -> [1/cm] (wave numbers)                            2.19474631370540E+05
 [a.u./Bohr**2] -> [1/cm]                                   5.14048714338585E+03
 

 CELL_TOP| Volume [angstrom^3]:                                         2519.385
 CELL_TOP| Vector a [angstrom     9.737     0.000     0.000    |a| =       9.737
 CELL_TOP| Vector b [angstrom    -4.859     8.416     0.000    |b| =       9.718
 CELL_TOP| Vector c [angstrom     0.000     0.000    30.744    |c| =      30.744
 CELL_TOP| Angle (b,c), alpha [degree]:                                   90.000
 CELL_TOP| Angle (a,c), beta  [degree]:                                   90.000
 CELL_TOP| Angle (a,b), gamma [degree]:                                  120.000
 CELL_TOP| Numerically orthorhombic:                                          NO
 
 GENERATE|  Preliminary Number of Bonds generated:                             0
 GENERATE|  Achieved consistency in connectivity generation.

 CELL| Volume [angstrom^3]:                                             2519.385
 CELL| Vector a [angstrom]:       9.737     0.000     0.000    |a| =       9.737
 CELL| Vector b [angstrom]:      -4.859     8.416     0.000    |b| =       9.718
 CELL| Vector c [angstrom]:       0.000     0.000    30.744    |c| =      30.744
 CELL| Angle (b,c), alpha [degree]:                                       90.000
 CELL| Angle (a,c), beta  [degree]:                                       90.000
 CELL| Angle (a,b), gamma [degree]:                                      120.000
 CELL| Numerically orthorhombic:                                              NO

 CELL_REF| Volume [angstrom^3]:                                         2432.344
 CELL_REF| Vector a [angstrom     9.558     0.000     0.000    |a| =       9.558
 CELL_REF| Vector b [angstrom    -4.779     8.277     0.000    |b| =       9.558
 CELL_REF| Vector c [angstrom     0.000     0.000    30.744    |c| =      30.744
 CELL_REF| Angle (b,c), alpha [degree]:                                   90.000
 CELL_REF| Angle (a,c), beta  [degree]:                                   90.000
 CELL_REF| Angle (a,b), gamma [degree]:                                  120.000
 CELL_REF| Numerically orthorhombic:                                          NO

 *******************************************************************************
 *******************************************************************************
 **                                                                           **
 **     #####                         ##              ##                      **
 **    ##   ##            ##          ##              ##                      **
 **   ##     ##                       ##            ######                    **
 **   ##     ##  ##   ##  ##   #####  ##  ##   ####   ##    #####    #####    **
 **   ##     ##  ##   ##  ##  ##      ## ##   ##      ##   ##   ##  ##   ##   **
 **   ##  ## ##  ##   ##  ##  ##      ####     ###    ##   ######   ######    **
 **    ##  ###   ##   ##  ##  ##      ## ##      ##   ##   ##       ##        **
 **     #######   #####   ##   #####  ##  ##  ####    ##    #####   ##        **
 **           ##                                                    ##        **
 **                                                                           **
 **                                                ... make the atoms dance   **
 **                                                                           **
 **            Copyright (C) by CP2K developers group (2000 - 2018)           **
 **                                                                           **
 *******************************************************************************

 DFT| Spin restricted Kohn-Sham (RKS) calculation                            RKS
 DFT| Multiplicity                                                             1
 DFT| Number of spin states                                                    1
 DFT| Charge                                                                   0
 DFT| Self-interaction correction (SIC)                                       NO
 DFT| Cutoffs: density                                              1.000000E-10
 DFT|          gradient                                             1.000000E-10
 DFT|          tau                                                  1.000000E-10
 DFT|          cutoff_smoothing_range                               0.000000E+00
 DFT| XC density smoothing                                                  NONE
 DFT| XC derivatives                                                          PW
 FUNCTIONAL| ROUTINE=NEW
 FUNCTIONAL| PBE:
 FUNCTIONAL| J.P.Perdew, K.Burke, M.Ernzerhof, Phys. Rev. Letter, vol. 77, n 18,
 FUNCTIONAL|  pp. 3865-3868, (1996){spin unpolarized}                           
 vdW POTENTIAL|                                                   Pair Potential
 vdW POTENTIAL|          DFT-D3 (Version 3.1)
 vdW POTENTIAL|          Potential Form: S. Grimme et al, JCP 132: 154104 (2010)
 vdW POTENTIAL|          Zero Damping
 vdW POTENTIAL|          Cutoff Radius [Bohr]:                             18.90
 vdW POTENTIAL|          s6 Scaling Factor:                               1.0000
 vdW POTENTIAL|          sr6 Scaling Factor:                              1.2170
 vdW POTENTIAL|          s8 Scaling Factor:                               0.7220
 vdW POTENTIAL|          Cutoff for CN calculation:                   0.1000E-05

 QS| Method:                                                                 GPW
 QS| Density plane wave grid type                        NON-SPHERICAL FULLSPACE
 QS| Number of grid levels:                                                    5
 QS| Density cutoff [a.u.]:                                                600.0
 QS| Multi grid cutoff [a.u.]: 1) grid level                               600.0
 QS|                           2) grid level                               200.0
 QS|                           3) grid level                                66.7
 QS|                           4) grid level                                22.2
 QS|                           5) grid level                                 7.4
 QS| Grid level progression factor:                                          3.0
 QS| Relative density cutoff [a.u.]:                                        20.0
 QS| Consistent realspace mapping and integration 
 QS| Interaction thresholds: eps_pgf_orb:                                1.0E-07
 QS|                         eps_filter_matrix:                          0.0E+00
 QS|                         eps_core_charge:                            1.0E-16
 QS|                         eps_rho_gspace:                             1.0E-14
 QS|                         eps_rho_rspace:                             1.0E-14
 QS|                         eps_gvg_rspace:                             1.0E-07
 QS|                         eps_ppl:                                    1.0E-02
 QS|                         eps_ppnl:                                   1.0E-09


 ATOMIC KIND INFORMATION

  1. Atomic kind: Ga                                    Number of atoms:      72

     Orbital Basis Set                                    DZVP-MOLOPT-SR-GTH-q13

       Number of orbital shell sets:                                           1
       Number of orbital shells:                                               7
       Number of primitive Cartesian functions:                                6
       Number of Cartesian basis functions:                                   30
       Number of spherical basis functions:                                   25
       Norm type:                                                              2

       Normalised Cartesian orbitals:

                        Set   Shell   Orbital            Exponent    Coefficient

                          1       1    2s                7.066654       0.013136
                                                         3.428369      -0.094392
                                                         1.430064       0.265435
                                                         0.571611       0.056465
                                                         0.232197      -0.192187
                                                         0.076562      -0.044987

                          1       2    3s                7.066654      -0.098564
                                                         3.428369       0.010390
                                                         1.430064       0.351249
                                                         0.571611       0.182615
                                                         0.232197      -0.425358
                                                         0.076562       0.190349

                          1       3    3px               7.066654       0.002364
                                                         3.428369       0.019222
                                                         1.430064       0.250132
                                                         0.571611      -0.058486
                                                         0.232197      -0.159451
                                                         0.076562      -0.020696
                          1       3    3py               7.066654       0.002364
                                                         3.428369       0.019222
                                                         1.430064       0.250132
                                                         0.571611      -0.058486
                                                         0.232197      -0.159451
                                                         0.076562      -0.020696
                          1       3    3pz               7.066654       0.002364
                                                         3.428369       0.019222
                                                         1.430064       0.250132
                                                         0.571611      -0.058486
                                                         0.232197      -0.159451
                                                         0.076562      -0.020696

                          1       4    4px               7.066654       0.492448
                                                         3.428369      -0.614736
                                                         1.430064      -0.191654
                                                         0.571611       0.037801
                                                         0.232197       0.302315
                                                         0.076562      -0.071336
                          1       4    4py               7.066654       0.492448
                                                         3.428369      -0.614736
                                                         1.430064      -0.191654
                                                         0.571611       0.037801
                                                         0.232197       0.302315
                                                         0.076562      -0.071336
                          1       4    4pz               7.066654       0.492448
                                                         3.428369      -0.614736
                                                         1.430064      -0.191654
                                                         0.571611       0.037801
                                                         0.232197       0.302315
                                                         0.076562      -0.071336

                          1       5    4dx2              7.066654     -15.264855
                                                         3.428369      -5.345726
                                                         1.430064      -1.022732
                                                         0.571611      -0.123148
                                                         0.232197      -0.006983
                                                         0.076562      -0.000022
                          1       5    4dxy              7.066654     -26.439504
                                                         3.428369      -9.259069
                                                         1.430064      -1.771423
                                                         0.571611      -0.213299
                                                         0.232197      -0.012094
                                                         0.076562      -0.000037
                          1       5    4dxz              7.066654     -26.439504
                                                         3.428369      -9.259069
                                                         1.430064      -1.771423
                                                         0.571611      -0.213299
                                                         0.232197      -0.012094
                                                         0.076562      -0.000037
                          1       5    4dy2              7.066654     -15.264855
                                                         3.428369      -5.345726
                                                         1.430064      -1.022732
                                                         0.571611      -0.123148
                                                         0.232197      -0.006983
                                                         0.076562      -0.000022
                          1       5    4dyz              7.066654     -26.439504
                                                         3.428369      -9.259069
                                                         1.430064      -1.771423
                                                         0.571611      -0.213299
                                                         0.232197      -0.012094
                                                         0.076562      -0.000037
                          1       5    4dz2              7.066654     -15.264855
                                                         3.428369      -5.345726
                                                         1.430064      -1.022732
                                                         0.571611      -0.123148
                                                         0.232197      -0.006983
                                                         0.076562      -0.000022

                          1       6    5dx2              7.066654      -5.739265
                                                         3.428369      -2.129289
                                                         1.430064      -0.700423
                                                         0.571611       0.161606
                                                         0.232197       0.043513
                                                         0.076562       0.011205
                          1       6    5dxy              7.066654      -9.940698
                                                         3.428369      -3.688037
                                                         1.430064      -1.213168
                                                         0.571611       0.279909
                                                         0.232197       0.075368
                                                         0.076562       0.019407
                          1       6    5dxz              7.066654      -9.940698
                                                         3.428369      -3.688037
                                                         1.430064      -1.213168
                                                         0.571611       0.279909
                                                         0.232197       0.075368
                                                         0.076562       0.019407
                          1       6    5dy2              7.066654      -5.739265
                                                         3.428369      -2.129289
                                                         1.430064      -0.700423
                                                         0.571611       0.161606
                                                         0.232197       0.043513
                                                         0.076562       0.011205
                          1       6    5dyz              7.066654      -9.940698
                                                         3.428369      -3.688037
                                                         1.430064      -1.213168
                                                         0.571611       0.279909
                                                         0.232197       0.075368
                                                         0.076562       0.019407
                          1       6    5dz2              7.066654      -5.739265
                                                         3.428369      -2.129289
                                                         1.430064      -0.700423
                                                         0.571611       0.161606
                                                         0.232197       0.043513
                                                         0.076562       0.011205

                          1       7    5fx3              7.066654       0.705879
                                                         3.428369      -0.273976
                                                         1.430064       0.113667
                                                         0.571611       0.132480
                                                         0.232197       0.012437
                                                         0.076562       0.003241
                          1       7    5fx2y             7.066654       1.578393
                                                         3.428369      -0.612629
                                                         1.430064       0.254167
                                                         0.571611       0.296234
                                                         0.232197       0.027811
                                                         0.076562       0.007246
                          1       7    5fx2z             7.066654       1.578393
                                                         3.428369      -0.612629
                                                         1.430064       0.254167
                                                         0.571611       0.296234
                                                         0.232197       0.027811
                                                         0.076562       0.007246
                          1       7    5fxy2             7.066654       1.578393
                                                         3.428369      -0.612629
                                                         1.430064       0.254167
                                                         0.571611       0.296234
                                                         0.232197       0.027811
                                                         0.076562       0.007246
                          1       7    5fxyz             7.066654       2.733856
                                                         3.428369      -1.061105
                                                         1.430064       0.440230
                                                         0.571611       0.513092
                                                         0.232197       0.048170
                                                         0.076562       0.012551
                          1       7    5fxz2             7.066654       1.578393
                                                         3.428369      -0.612629
                                                         1.430064       0.254167
                                                         0.571611       0.296234
                                                         0.232197       0.027811
                                                         0.076562       0.007246
                          1       7    5fy3              7.066654       0.705879
                                                         3.428369      -0.273976
                                                         1.430064       0.113667
                                                         0.571611       0.132480
                                                         0.232197       0.012437
                                                         0.076562       0.003241
                          1       7    5fy2z             7.066654       1.578393
                                                         3.428369      -0.612629
                                                         1.430064       0.254167
                                                         0.571611       0.296234
                                                         0.232197       0.027811
                                                         0.076562       0.007246
                          1       7    5fyz2             7.066654       1.578393
                                                         3.428369      -0.612629
                                                         1.430064       0.254167
                                                         0.571611       0.296234
                                                         0.232197       0.027811
                                                         0.076562       0.007246
                          1       7    5fz3              7.066654       0.705879
                                                         3.428369      -0.273976
                                                         1.430064       0.113667
                                                         0.571611       0.132480
                                                         0.232197       0.012437
                                                         0.076562       0.003241

     GTH Potential information for                                   GTH-PBE-q13

       Description:                       Goedecker-Teter-Hutter pseudopotential
                                           Goedecker et al., PRB 54, 1703 (1996)
                                          Hartwigsen et al., PRB 58, 3641 (1998)
                                                      Krack, TCA 114, 145 (2005)

       Gaussian exponent of the core charge distribution:               2.082466
       Electronic configuration (s p d ...):                           2   1  10

       Parameters of the local part of the GTH pseudopotential:

                          rloc        C1          C2          C3          C4
                        0.490000

       Parameters of the non-local part of the GTH pseudopotential:

                   l      r(l)      h(i,j,l)

                   0    0.416777   10.475690   -4.921768    0.870706
                                   -4.921768    7.770178   -2.248152
                                    0.870706   -2.248152    1.784415
                   1    0.569627    1.777985    0.195860
                                    0.195860   -0.231744
                   2    0.238126  -16.248680

  2. Atomic kind: N                                     Number of atoms:      72

     Orbital Basis Set                                     DZVP-MOLOPT-SR-GTH-q5

       Number of orbital shell sets:                                           1
       Number of orbital shells:                                               5
       Number of primitive Cartesian functions:                                5
       Number of Cartesian basis functions:                                   14
       Number of spherical basis functions:                                   13
       Norm type:                                                              2

       Normalised Cartesian orbitals:

                        Set   Shell   Orbital            Exponent    Coefficient

                          1       1    2s                7.341988       0.360561
                                                         2.542637       0.139177
                                                         0.888575      -0.289383
                                                         0.333802      -0.182244
                                                         0.112012      -0.019197

                          1       2    3s                7.341988       0.282000
                                                         2.542637       0.177875
                                                         0.888575      -0.278381
                                                         0.333802       0.008577
                                                         0.112012       0.154176

                          1       3    3px               7.341988      -1.188719
                                                         2.542637      -0.973969
                                                         0.888575      -0.501079
                                                         0.333802      -0.144894
                                                         0.112012      -0.013986
                          1       3    3py               7.341988      -1.188719
                                                         2.542637      -0.973969
                                                         0.888575      -0.501079
                                                         0.333802      -0.144894
                                                         0.112012      -0.013986
                          1       3    3pz               7.341988      -1.188719
                                                         2.542637      -0.973969
                                                         0.888575      -0.501079
                                                         0.333802      -0.144894
                                                         0.112012      -0.013986

                          1       4    4px               7.341988      -0.094798
                                                         2.542637       0.050069
                                                         0.888575      -0.114797
                                                         0.333802       0.144793
                                                         0.112012       0.066710
                          1       4    4py               7.341988      -0.094798
                                                         2.542637       0.050069
                                                         0.888575      -0.114797
                                                         0.333802       0.144793
                                                         0.112012       0.066710
                          1       4    4pz               7.341988      -0.094798
                                                         2.542637       0.050069
                                                         0.888575      -0.114797
                                                         0.333802       0.144793
                                                         0.112012       0.066710

                          1       5    4dx2              7.341988       1.354688
                                                         2.542637       0.690378
                                                         0.888575       0.855359
                                                         0.333802       0.091746
                                                         0.112012       0.001253
                          1       5    4dxy              7.341988       2.346389
                                                         2.542637       1.195770
                                                         0.888575       1.481524
                                                         0.333802       0.158910
                                                         0.112012       0.002169
                          1       5    4dxz              7.341988       2.346389
                                                         2.542637       1.195770
                                                         0.888575       1.481524
                                                         0.333802       0.158910
                                                         0.112012       0.002169
                          1       5    4dy2              7.341988       1.354688
                                                         2.542637       0.690378
                                                         0.888575       0.855359
                                                         0.333802       0.091746
                                                         0.112012       0.001253
                          1       5    4dyz              7.341988       2.346389
                                                         2.542637       1.195770
                                                         0.888575       1.481524
                                                         0.333802       0.158910
                                                         0.112012       0.002169
                          1       5    4dz2              7.341988       1.354688
                                                         2.542637       0.690378
                                                         0.888575       0.855359
                                                         0.333802       0.091746
                                                         0.112012       0.001253

     GTH Potential information for                                    GTH-PBE-q5

       Description:                       Goedecker-Teter-Hutter pseudopotential
                                           Goedecker et al., PRB 54, 1703 (1996)
                                          Hartwigsen et al., PRB 58, 3641 (1998)
                                                      Krack, TCA 114, 145 (2005)

       Gaussian exponent of the core charge distribution:               6.208322
       Electronic configuration (s p d ...):                               2   3

       Parameters of the local part of the GTH pseudopotential:

                          rloc        C1          C2          C3          C4
                        0.283791  -12.415226    1.868096

       Parameters of the non-local part of the GTH pseudopotential:

                   l      r(l)      h(i,j,l)

                   0    0.255405   13.630263
                   1    0.245495

  3. Atomic kind: O                                     Number of atoms:       1

     Orbital Basis Set                                     DZVP-MOLOPT-SR-GTH-q6

       Number of orbital shell sets:                                           1
       Number of orbital shells:                                               5
       Number of primitive Cartesian functions:                                5
       Number of Cartesian basis functions:                                   14
       Number of spherical basis functions:                                   13
       Norm type:                                                              2

       Normalised Cartesian orbitals:

                        Set   Shell   Orbital            Exponent    Coefficient

                          1       1    2s               10.389228       0.396646
                                                         3.849621       0.208811
                                                         1.388401      -0.301641
                                                         0.496955      -0.274061
                                                         0.162492      -0.033677

                          1       2    3s               10.389228       0.303673
                                                         3.849621       0.240943
                                                         1.388401      -0.313066
                                                         0.496955      -0.043055
                                                         0.162492       0.213991

                          1       3    3px              10.389228      -1.530415
                                                         3.849621      -1.371928
                                                         1.388401      -0.761951
                                                         0.496955      -0.253695
                                                         0.162492      -0.035541
                          1       3    3py              10.389228      -1.530415
                                                         3.849621      -1.371928
                                                         1.388401      -0.761951
                                                         0.496955      -0.253695
                                                         0.162492      -0.035541
                          1       3    3pz              10.389228      -1.530415
                                                         3.849621      -1.371928
                                                         1.388401      -0.761951
                                                         0.496955      -0.253695
                                                         0.162492      -0.035541

                          1       4    4px              10.389228      -0.565392
                                                         3.849621      -0.038231
                                                         1.388401      -0.382373
                                                         0.496955       0.179070
                                                         0.162492       0.122714
                          1       4    4py              10.389228      -0.565392
                                                         3.849621      -0.038231
                                                         1.388401      -0.382373
                                                         0.496955       0.179070
                                                         0.162492       0.122714
                          1       4    4pz              10.389228      -0.565392
                                                         3.849621      -0.038231
                                                         1.388401      -0.382373
                                                         0.496955       0.179070
                                                         0.162492       0.122714

                          1       5    4dx2             10.389228       1.867377
                                                         3.849621       0.670994
                                                         1.388401       1.353441
                                                         0.496955       0.273538
                                                         0.162492       0.006620
                          1       5    4dxy             10.389228       3.234392
                                                         3.849621       1.162195
                                                         1.388401       2.344229
                                                         0.496955       0.473781
                                                         0.162492       0.011466
                          1       5    4dxz             10.389228       3.234392
                                                         3.849621       1.162195
                                                         1.388401       2.344229
                                                         0.496955       0.473781
                                                         0.162492       0.011466
                          1       5    4dy2             10.389228       1.867377
                                                         3.849621       0.670994
                                                         1.388401       1.353441
                                                         0.496955       0.273538
                                                         0.162492       0.006620
                          1       5    4dyz             10.389228       3.234392
                                                         3.849621       1.162195
                                                         1.388401       2.344229
                                                         0.496955       0.473781
                                                         0.162492       0.011466
                          1       5    4dz2             10.389228       1.867377
                                                         3.849621       0.670994
                                                         1.388401       1.353441
                                                         0.496955       0.273538
                                                         0.162492       0.006620

     GTH Potential information for                                    GTH-PBE-q6

       Description:                       Goedecker-Teter-Hutter pseudopotential
                                           Goedecker et al., PRB 54, 1703 (1996)
                                          Hartwigsen et al., PRB 58, 3641 (1998)
                                                      Krack, TCA 114, 145 (2005)

       Gaussian exponent of the core charge distribution:               8.360253
       Electronic configuration (s p d ...):                               2   4

       Parameters of the local part of the GTH pseudopotential:

                          rloc        C1          C2          C3          C4
                        0.244554  -16.667215    2.487311

       Parameters of the non-local part of the GTH pseudopotential:

                   l      r(l)      h(i,j,l)

                   0    0.220956   18.337458
                   1    0.211332

  4. Atomic kind: H                                     Number of atoms:       4

     Orbital Basis Set                                     DZVP-MOLOPT-SR-GTH-q1

       Number of orbital shell sets:                                           1
       Number of orbital shells:                                               3
       Number of primitive Cartesian functions:                                5
       Number of Cartesian basis functions:                                    5
       Number of spherical basis functions:                                    5
       Norm type:                                                              2

       Normalised Cartesian orbitals:

                        Set   Shell   Orbital            Exponent    Coefficient

                          1       1    2s               10.068468      -0.133023
                                                         2.680223      -0.177618
                                                         0.791502      -0.258419
                                                         0.239116      -0.107525
                                                         0.082193      -0.014019

                          1       2    3s               10.068468       0.344673
                                                         2.680223       1.819821
                                                         0.791502      -0.999069
                                                         0.239116       0.017430
                                                         0.082193       0.082660

                          1       3    3px              10.068468       0.155326
                                                         2.680223       0.367157
                                                         0.791502       0.311480
                                                         0.239116       0.080105
                                                         0.082193       0.033440
                          1       3    3py              10.068468       0.155326
                                                         2.680223       0.367157
                                                         0.791502       0.311480
                                                         0.239116       0.080105
                                                         0.082193       0.033440
                          1       3    3pz              10.068468       0.155326
                                                         2.680223       0.367157
                                                         0.791502       0.311480
                                                         0.239116       0.080105
                                                         0.082193       0.033440

     GTH Potential information for                                    GTH-PBE-q1

       Description:                       Goedecker-Teter-Hutter pseudopotential
                                           Goedecker et al., PRB 54, 1703 (1996)
                                          Hartwigsen et al., PRB 58, 3641 (1998)
                                                      Krack, TCA 114, 145 (2005)

       Gaussian exponent of the core charge distribution:              12.500000
       Electronic configuration (s p d ...):                                   1

       Parameters of the local part of the GTH pseudopotential:

                          rloc        C1          C2          C3          C4
                        0.200000   -4.178900    0.724463

  5. Atomic kind: C                                     Number of atoms:       1

     Orbital Basis Set                                     DZVP-MOLOPT-SR-GTH-q4

       Number of orbital shell sets:                                           1
       Number of orbital shells:                                               5
       Number of primitive Cartesian functions:                                5
       Number of Cartesian basis functions:                                   14
       Number of spherical basis functions:                                   13
       Norm type:                                                              2

       Normalised Cartesian orbitals:

                        Set   Shell   Orbital            Exponent    Coefficient

                          1       1    2s                5.605331       0.322515
                                                         2.113016       0.213043
                                                         0.769911      -0.209686
                                                         0.348157      -0.219794
                                                         0.128212      -0.022789

                          1       2    3s                5.605331       0.552234
                                                         2.113016       0.082072
                                                         0.769911       0.007843
                                                         0.348157       0.136893
                                                         0.128212       0.074283

                          1       3    3px               5.605331      -0.703879
                                                         2.113016      -0.642521
                                                         0.769911      -0.374851
                                                         0.348157      -0.139743
                                                         0.128212      -0.027849
                          1       3    3py               5.605331      -0.703879
                                                         2.113016      -0.642521
                                                         0.769911      -0.374851
                                                         0.348157      -0.139743
                                                         0.128212      -0.027849
                          1       3    3pz               5.605331      -0.703879
                                                         2.113016      -0.642521
                                                         0.769911      -0.374851
                                                         0.348157      -0.139743
                                                         0.128212      -0.027849

                          1       4    4px               5.605331      -0.480376
                                                         2.113016      -0.552894
                                                         0.769911      -0.316145
                                                         0.348157       0.210505
                                                         0.128212       0.076095
                          1       4    4py               5.605331      -0.480376
                                                         2.113016      -0.552894
                                                         0.769911      -0.316145
                                                         0.348157       0.210505
                                                         0.128212       0.076095
                          1       4    4pz               5.605331      -0.480376
                                                         2.113016      -0.552894
                                                         0.769911      -0.316145
                                                         0.348157       0.210505
                                                         0.128212       0.076095

                          1       5    4dx2              5.605331       0.640026
                                                         2.113016       0.274300
                                                         0.769911       0.446711
                                                         0.348157       0.028674
                                                         0.128212       0.029790
                          1       5    4dxy              5.605331       1.108557
                                                         2.113016       0.475102
                                                         0.769911       0.773726
                                                         0.348157       0.049666
                                                         0.128212       0.051599
                          1       5    4dxz              5.605331       1.108557
                                                         2.113016       0.475102
                                                         0.769911       0.773726
                                                         0.348157       0.049666
                                                         0.128212       0.051599
                          1       5    4dy2              5.605331       0.640026
                                                         2.113016       0.274300
                                                         0.769911       0.446711
                                                         0.348157       0.028674
                                                         0.128212       0.029790
                          1       5    4dyz              5.605331       1.108557
                                                         2.113016       0.475102
                                                         0.769911       0.773726
                                                         0.348157       0.049666
                                                         0.128212       0.051599
                          1       5    4dz2              5.605331       0.640026
                                                         2.113016       0.274300
                                                         0.769911       0.446711
                                                         0.348157       0.028674
                                                         0.128212       0.029790

     GTH Potential information for                                    GTH-PBE-q4

       Description:                       Goedecker-Teter-Hutter pseudopotential
                                           Goedecker et al., PRB 54, 1703 (1996)
                                          Hartwigsen et al., PRB 58, 3641 (1998)
                                                      Krack, TCA 114, 145 (2005)

       Gaussian exponent of the core charge distribution:               4.364419
       Electronic configuration (s p d ...):                               2   2

       Parameters of the local part of the GTH pseudopotential:

                          rloc        C1          C2          C3          C4
                        0.338471   -8.803674    1.339211

       Parameters of the non-local part of the GTH pseudopotential:

                   l      r(l)      h(i,j,l)

                   0    0.302576    9.622487
                   1    0.291507


 MOLECULE KIND INFORMATION


 All atoms are their own molecule, skipping detailed information


 TOTAL NUMBERS AND MAXIMUM NUMBERS

  Total number of            - Atomic kinds:                                   5
                             - Atoms:                                        150
                             - Shell sets:                                   150
                             - Shells:                                       886
                             - Primitive Cartesian functions:                822
                             - Cartesian basis functions:                   3216
                             - Spherical basis functions:                   2782

  Maximum angular momentum of- Orbital basis functions:                        3
                             - Local part of the GTH pseudopotential:          2
                             - Non-local part of the GTH pseudopotential:      4


 MODULE QUICKSTEP:  ATOMIC COORDINATES IN angstrom

  Atom  Kind  Element       X           Y           Z          Z(eff)       Mass

       1     1 Ga  31    0.018708    0.008457   -0.554572     13.00      69.7230
       2     2 N    7    0.020927    1.881204    0.561634      5.00      14.0067
       3     1 Ga  31    0.019583    1.850284    2.595432     13.00      69.7230
       4     2 N    7    0.016418    0.006083    3.224888      5.00      14.0067
       5     1 Ga  31    0.016256    0.006480    5.216930     13.00      69.7230
       6     2 N    7    0.018899    1.881166    5.803045      5.00      14.0067
       7     1 Ga  31    0.016998    1.878259    7.802625     13.00      69.7230
       8     2 N    7    0.013215    0.004762    8.403367      5.00      14.0067
       9     1 Ga  31    0.013025    0.005014   10.401136     13.00      69.7230
      10     2 N    7    0.018955    1.875487   11.009703      5.00      14.0067
      11     1 Ga  31    0.022477    1.875407   13.006315     13.00      69.7230
      12     2 N    7    0.018599   -0.001711   13.601470      5.00      14.0067
      13     1 Ga  31    0.010138    0.000820   15.602824     13.00      69.7230
      14     2 N    7    0.000103    1.875994   16.158095      5.00      14.0067
      15     1 Ga  31   -0.006614    1.874049   18.198563     13.00      69.7230
      16     2 N    7   -0.014057    0.012317   18.649401      5.00      14.0067
      17     1 Ga  31   -1.603008    2.812916    0.276968     13.00      69.7230
      18     2 N    7   -1.603208    4.682415    0.561639      5.00      14.0067
      19     1 Ga  31   -1.575986    4.697353    2.592424     13.00      69.7230
      20     2 N    7   -1.603307    2.811683    3.184060      5.00      14.0067
      21     1 Ga  31   -1.604132    2.811725    5.195619     13.00      69.7230
      22     2 N    7   -1.603694    4.681891    5.802404      5.00      14.0067
      23     1 Ga  31   -1.604256    4.680773    7.801426     13.00      69.7230
      24     2 N    7   -1.604209    2.811125    8.408383      5.00      14.0067
      25     1 Ga  31   -1.603242    2.812934   10.405687     13.00      69.7230
      26     2 N    7   -1.602282    4.685870   11.010399      5.00      14.0067
      27     1 Ga  31   -1.603482    4.690149   13.008207     13.00      69.7230
      28     2 N    7   -1.608450    2.810616   13.579057      5.00      14.0067
      29     1 Ga  31   -1.614904    2.809569   15.568573     13.00      69.7230
      30     2 N    7   -1.615706    4.672892   16.174874      5.00      14.0067
      31     1 Ga  31   -1.623014    4.690711   18.220459     13.00      69.7230
      32     2 N    7   -1.605494    2.824595   18.675029      5.00      14.0067
      33     1 Ga  31   -3.222512    5.617112    0.276903     13.00      69.7230
      34     2 N    7   -3.216066    7.489103    0.561318      5.00      14.0067
      35     1 Ga  31   -3.243620    7.502788    2.595205     13.00      69.7230
      36     2 N    7   -3.222913    5.617140    3.183718      5.00      14.0067
      37     1 Ga  31   -3.223519    5.617337    5.195150     13.00      69.7230
      38     2 N    7   -3.217981    7.487254    5.803440      5.00      14.0067
      39     1 Ga  31   -3.221099    7.486007    7.803301     13.00      69.7230
      40     2 N    7   -3.225621    5.614604    8.406553      5.00      14.0067
      41     1 Ga  31   -3.226579    5.614959   10.403086     13.00      69.7230
      42     2 N    7   -3.222902    7.487454   10.999733      5.00      14.0067
      43     1 Ga  31   -3.223263    7.484896   12.990885     13.00      69.7230
      44     2 N    7   -3.229611    5.620343   13.607527      5.00      14.0067
      45     1 Ga  31   -3.234663    5.621071   15.611638     13.00      69.7230
      46     2 N    7   -3.222683    7.488214   16.255183      5.00      14.0067
      47     1 Ga  31   -3.238279    7.498177   18.363455     13.00      69.7230
      48     2 N    7   -3.243478    5.615994   18.646739      5.00      14.0067
      49     1 Ga  31    3.265020    0.008270    0.276622     13.00      69.7230
      50     2 N    7    3.261522    1.876589    0.562790      5.00      14.0067
      51     1 Ga  31    3.289387    1.891837    2.592515     13.00      69.7230
      52     2 N    7    3.262198    0.006228    3.184145      5.00      14.0067
      53     1 Ga  31    3.261644    0.006815    5.195523     13.00      69.7230
      54     2 N    7    3.261507    1.876649    5.802831      5.00      14.0067
      55     1 Ga  31    3.260928    1.876031    7.801986     13.00      69.7230
      56     2 N    7    3.260157    0.005453    8.406122      5.00      14.0067
      57     1 Ga  31    3.259464    0.006975   10.402509     13.00      69.7230
      58     2 N    7    3.259843    1.877444   11.011523      5.00      14.0067
      59     1 Ga  31    3.254992    1.877572   13.010272     13.00      69.7230
      60     2 N    7    3.251085    0.002845   13.605914      5.00      14.0067
      61     1 Ga  31    3.245250    0.006446   15.608779     13.00      69.7230
      62     2 N    7    3.253532    1.886888   16.163943      5.00      14.0067
      63     1 Ga  31    3.259172    1.871341   18.206922     13.00      69.7230
      64     2 N    7    3.243377    0.015971   18.679594      5.00      14.0067
      65     1 Ga  31    1.644814    2.813355    0.276523     13.00      69.7230
      66     2 N    7    1.649740    4.682955    0.561146      5.00      14.0067
      67     1 Ga  31    1.620670    4.697451    2.591803     13.00      69.7230
      68     2 N    7    1.642401    2.812004    3.183708      5.00      14.0067
      69     1 Ga  31    1.642207    2.811974    5.194889     13.00      69.7230
      70     2 N    7    1.647181    4.681812    5.802606      5.00      14.0067
      71     1 Ga  31    1.644575    4.681095    7.801629     13.00      69.7230
      72     2 N    7    1.640055    2.810760    8.407682      5.00      14.0067
      73     1 Ga  31    1.639578    2.811685   10.404256     13.00      69.7230
      74     2 N    7    1.638734    4.683745   11.010334      5.00      14.0067
      75     1 Ga  31    1.633278    4.685544   13.007582     13.00      69.7230
      76     2 N    7    1.636996    2.821036   13.627055      5.00      14.0067
      77     1 Ga  31    1.631430    2.834530   15.638851     13.00      69.7230
      78     2 N    7    1.631777    4.684590   16.301607      5.00      14.0067
      79     1 Ga  31    1.626246    4.689844   18.586253     13.00      69.7230
      80     2 N    7    1.622877    2.779724   18.626758      5.00      14.0067
      81     1 Ga  31    0.024076    5.619164   -0.590449     13.00      69.7230
      82     2 N    7    0.026927    7.492915    0.562049      5.00      14.0067
      83     1 Ga  31    0.025504    7.460589    2.592573     13.00      69.7230
      84     2 N    7    0.022620    5.616991    3.224469      5.00      14.0067
      85     1 Ga  31    0.022108    5.617398    5.215094     13.00      69.7230
      86     2 N    7    0.024758    7.491859    5.802486      5.00      14.0067
      87     1 Ga  31    0.023503    7.489177    7.801561     13.00      69.7230
      88     2 N    7    0.020267    5.615647    8.401873      5.00      14.0067
      89     1 Ga  31    0.018589    5.616743   10.398518     13.00      69.7230
      90     2 N    7    0.019523    7.485146   11.008546      5.00      14.0067
      91     1 Ga  31    0.014401    7.481748   13.005674     13.00      69.7230
      92     2 N    7    0.018332    5.616782   13.641512      5.00      14.0067
      93     1 Ga  31    0.026535    5.614855   15.660359     13.00      69.7230
      94     2 N    7    0.018407    7.505817   16.188579      5.00      14.0067
      95     1 Ga  31    0.000018    7.501061   18.243130     13.00      69.7230
      96     2 N    7   -0.029010    5.637709   18.697996      5.00      14.0067
      97     1 Ga  31    6.507215    0.008621    0.276553     13.00      69.7230
      98     2 N    7    6.515786    1.877170    0.562413      5.00      14.0067
      99     1 Ga  31    6.485861    1.892035    2.592070     13.00      69.7230
     100     2 N    7    6.507569    0.006405    3.184126      5.00      14.0067
     101     1 Ga  31    6.506863    0.007155    5.195685     13.00      69.7230
     102     2 N    7    6.512413    1.876543    5.805321      5.00      14.0067
     103     1 Ga  31    6.509965    1.875324    7.806024     13.00      69.7230
     104     2 N    7    6.505382    0.003192    8.407947      5.00      14.0067
     105     1 Ga  31    6.504220    0.001508   10.405227     13.00      69.7230
     106     2 N    7    6.506706    1.877032   10.993487      5.00      14.0067
     107     1 Ga  31    6.503937    1.875553   12.982831     13.00      69.7230
     108     2 N    7    6.499847    0.003526   13.580920      5.00      14.0067
     109     1 Ga  31    6.494933    0.010279   15.572429     13.00      69.7230
     110     2 N    7    6.519586    1.870436   16.164003      5.00      14.0067
     111     1 Ga  31    6.528850    1.874608   18.222954     13.00      69.7230
     112     2 N    7    6.488414    0.002444   18.657711      5.00      14.0067
     113     1 Ga  31    4.888860    2.812741   -0.593781     13.00      69.7230
     114     2 N    7    4.892219    4.688104    0.562434      5.00      14.0067
     115     1 Ga  31    4.890825    4.654631    2.592125     13.00      69.7230
     116     2 N    7    4.887975    2.811442    3.225228      5.00      14.0067
     117     1 Ga  31    4.887638    2.811548    5.216115     13.00      69.7230
     118     2 N    7    4.889896    4.686360    5.802672      5.00      14.0067
     119     1 Ga  31    4.887832    4.683657    7.801947     13.00      69.7230
     120     2 N    7    4.884380    2.810993    8.404261      5.00      14.0067
     121     1 Ga  31    4.881566    2.812586   10.402560     13.00      69.7230
     122     2 N    7    4.886331    4.683534   11.011583      5.00      14.0067
     123     1 Ga  31    4.881850    4.684794   13.010622     13.00      69.7230
     124     2 N    7    4.885569    2.807797   13.594763      5.00      14.0067
     125     1 Ga  31    4.888495    2.804160   15.591484     13.00      69.7230
     126     2 N    7    4.876071    4.678637   16.165680      5.00      14.0067
     127     1 Ga  31    4.892093    4.678677   18.210623     13.00      69.7230
     128     2 N    7    4.886526    2.801652   18.589813      5.00      14.0067
     129     1 Ga  31    3.270165    5.616449    0.276484     13.00      69.7230
     130     2 N    7    3.269270    7.488469    0.560888      5.00      14.0067
     131     1 Ga  31    3.294733    7.502525    2.595069     13.00      69.7230
     132     2 N    7    3.268027    5.617012    3.183294      5.00      14.0067
     133     1 Ga  31    3.267683    5.616973    5.194546     13.00      69.7230
     134     2 N    7    3.267701    7.487042    5.802703      5.00      14.0067
     135     1 Ga  31    3.266657    7.485565    7.802204     13.00      69.7230
     136     2 N    7    3.265416    5.615179    8.407996      5.00      14.0067
     137     1 Ga  31    3.264241    5.615277   10.404777     13.00      69.7230
     138     2 N    7    3.269647    7.485591   11.010683      5.00      14.0067
     139     1 Ga  31    3.268061    7.477975   13.008421     13.00      69.7230
     140     2 N    7    3.253428    5.607086   13.627551      5.00      14.0067
     141     1 Ga  31    3.238937    5.605618   15.640498     13.00      69.7230
     142     2 N    7    3.256948    7.498090   16.152684      5.00      14.0067
     143     1 Ga  31    3.251092    7.510478   18.195045     13.00      69.7230
     144     2 N    7    3.272757    5.631779   18.582150      5.00      14.0067
     145     3 O    8    1.350967    4.591120   21.011198      6.00      15.9994
     146     4 H    1    0.496201    5.036961   20.833851      1.00       1.0079
     147     5 C    6    0.990461    3.303220   21.517410      4.00      12.0107
     148     4 H    1    1.057109    2.579782   20.731857      1.00       1.0079
     149     4 H    1    1.656752    3.032028   22.309503      1.00       1.0079
     150     4 H    1   -0.012227    3.334179   21.889645      1.00       1.0079




 SCF PARAMETERS         Density guess:                                    ATOMIC
                        --------------------------------------------------------
                        max_scf:                                             100
                        max_scf_history:                                       0
                        max_diis:                                              4
                        --------------------------------------------------------
                        eps_scf:                                        5.00E-06
                        eps_scf_history:                                0.00E+00
                        eps_diis:                                       1.00E-01
                        eps_eigval:                                     1.00E-05
                        --------------------------------------------------------
                        level_shift [a.u.]:                                 0.00
                        --------------------------------------------------------
                        Outer loop SCF in use 
                        No variables optimised in outer loop
                        eps_scf                                         5.00E-06
                        max_scf                                                4
                        No outer loop optimization
                        step_size                                       5.00E-01

 PW_GRID| Information for grid number                                          1
 PW_GRID| Grid distributed over                                    80 processors
 PW_GRID| Real space group dimensions                                    80    1
 PW_GRID| the grid is blocked:                                                NO
 PW_GRID| Cutoff [a.u.]                                                    600.0
 PW_GRID| spherical cutoff:                                                   NO
 PW_GRID|   Bounds   1           -100      99                Points:         200
 PW_GRID|   Bounds   2           -100      99                Points:         200
 PW_GRID|   Bounds   3           -324     323                Points:         648
 PW_GRID| Volume element (a.u.^3)  0.6333E-03     Volume (a.u.^3)     16414.2734
 PW_GRID| Grid span                                                    FULLSPACE
 PW_GRID|   Distribution                         Average         Max         Min
 PW_GRID|   G-Vectors                           324000.0      324000      324000
 PW_GRID|   G-Rays                                1620.0        1620        1620
 PW_GRID|   Real Space Points                   324000.0      388800      259200

 PW_GRID| Information for grid number                                          2
 PW_GRID| Grid distributed over                                    80 processors
 PW_GRID| Real space group dimensions                                    80    1
 PW_GRID| the grid is blocked:                                                NO
 PW_GRID| Cutoff [a.u.]                                                    200.0
 PW_GRID| spherical cutoff:                                                   NO
 PW_GRID|   Bounds   1            -60      59                Points:         120
 PW_GRID|   Bounds   2            -60      59                Points:         120
 PW_GRID|   Bounds   3           -187     187                Points:         375
 PW_GRID| Volume element (a.u.^3)  0.3040E-02     Volume (a.u.^3)     16414.2734
 PW_GRID| Grid span                                                    FULLSPACE
 PW_GRID|   Distribution                         Average         Max         Min
 PW_GRID|   G-Vectors                            67500.0       68520       66240
 PW_GRID|   G-Rays                                 562.5         571         552
 PW_GRID|   Real Space Points                    67500.0       90000       45000

 PW_GRID| Information for grid number                                          3
 PW_GRID| Grid distributed over                                    80 processors
 PW_GRID| Real space group dimensions                                     8   10
 PW_GRID| the grid is blocked:                                                NO
 PW_GRID| Cutoff [a.u.]                                                     66.7
 PW_GRID| spherical cutoff:                                                   NO
 PW_GRID|   Bounds   1            -36      35                Points:          72
 PW_GRID|   Bounds   2            -36      35                Points:          72
 PW_GRID|   Bounds   3           -108     107                Points:         216
 PW_GRID| Volume element (a.u.^3)  0.1466E-01     Volume (a.u.^3)     16414.2734
 PW_GRID| Grid span                                                    FULLSPACE
 PW_GRID|   Distribution                         Average         Max         Min
 PW_GRID|   G-Vectors                            13996.8       14976       12816
 PW_GRID|   G-Rays                                 194.4         208         178
 PW_GRID|   Real Space Points                    13996.8       15552       13608

 PW_GRID| Information for grid number                                          4
 PW_GRID| Grid distributed over                                    80 processors
 PW_GRID| Real space group dimensions                                     8   10
 PW_GRID| the grid is blocked:                                                NO
 PW_GRID| Cutoff [a.u.]                                                     22.2
 PW_GRID| spherical cutoff:                                                   NO
 PW_GRID|   Bounds   1            -20      19                Points:          40
 PW_GRID|   Bounds   2            -20      19                Points:          40
 PW_GRID|   Bounds   3            -62      62                Points:         125
 PW_GRID| Volume element (a.u.^3)  0.8207E-01     Volume (a.u.^3)     16414.2734
 PW_GRID| Grid span                                                    FULLSPACE
 PW_GRID|   Distribution                         Average         Max         Min
 PW_GRID|   G-Vectors                             2500.0        2960        2040
 PW_GRID|   G-Rays                                  62.5          74          51
 PW_GRID|   Real Space Points                     2500.0        2500        2500

 PW_GRID| Information for grid number                                          5
 PW_GRID| Grid distributed over                                    80 processors
 PW_GRID| Real space group dimensions                                     8   10
 PW_GRID| the grid is blocked:                                                NO
 PW_GRID| Cutoff [a.u.]                                                      7.4
 PW_GRID| spherical cutoff:                                                   NO
 PW_GRID|   Bounds   1            -12      11                Points:          24
 PW_GRID|   Bounds   2            -12      11                Points:          24
 PW_GRID|   Bounds   3            -36      35                Points:          72
 PW_GRID| Volume element (a.u.^3)  0.3958         Volume (a.u.^3)     16414.2734
 PW_GRID| Grid span                                                    FULLSPACE
 PW_GRID|   Distribution                         Average         Max         Min
 PW_GRID|   G-Vectors                              518.4         648         240
 PW_GRID|   G-Rays                                  21.6          27          10
 PW_GRID|   Real Space Points                      518.4         648         432

 POISSON| Solver                                                        PERIODIC
 POISSON| Periodicity                                                        XYZ

 RS_GRID| Information for grid number                                          1
 RS_GRID|   Bounds   1           -100      99                Points:         200
 RS_GRID|   Bounds   2           -100      99                Points:         200
 RS_GRID|   Bounds   3           -324     323                Points:         648
 RS_GRID| Real space distribution over                                 80 groups
 RS_GRID| Real space distribution along direction                              3
 RS_GRID| Border size                                                         73
 RS_GRID|   Distribution                         Average         Max         Min
 RS_GRID|   Planes                                 154.1         155         154

 RS_GRID| Information for grid number                                          2
 RS_GRID|   Bounds   1            -60      59                Points:         120
 RS_GRID|   Bounds   2            -60      59                Points:         120
 RS_GRID|   Bounds   3           -187     187                Points:         375
 RS_GRID| Real space distribution over                                 80 groups
 RS_GRID| Real space distribution along direction                              3
 RS_GRID| Border size                                                         45
 RS_GRID|   Distribution                         Average         Max         Min
 RS_GRID|   Planes                                  94.7          95          94

 RS_GRID| Information for grid number                                          3
 RS_GRID|   Bounds   1            -36      35                Points:          72
 RS_GRID|   Bounds   2            -36      35                Points:          72
 RS_GRID|   Bounds   3           -108     107                Points:         216
 RS_GRID| Real space fully replicated
 RS_GRID| Group size                                                           1

 RS_GRID| Information for grid number                                          4
 RS_GRID|   Bounds   1            -20      19                Points:          40
 RS_GRID|   Bounds   2            -20      19                Points:          40
 RS_GRID|   Bounds   3            -62      62                Points:         125
 RS_GRID| Real space fully replicated
 RS_GRID| Group size                                                           1

 RS_GRID| Information for grid number                                          5
 RS_GRID|   Bounds   1            -12      11                Points:          24
 RS_GRID|   Bounds   2            -12      11                Points:          24
[...]
 flops    25 x     5 x    47           1593018000     100.0%      0.0%      0.0%
 flops    13 x    15 x     5           1821438450     100.0%      0.0%      0.0%
 flops     5 x    15 x    13           1821438450     100.0%      0.0%      0.0%
 flops     5 x    32 x     5           1989120000     100.0%      0.0%      0.0%
 flops    13 x     5 x    47           2060982430     100.0%      0.0%      0.0%
 flops    25 x    15 x     5           4170247500     100.0%      0.0%      0.0%
 flops     5 x    15 x    25           4170247500     100.0%      0.0%      0.0%
 flops   175 x    47 x    47           4597923050     100.0%      0.0%      0.0%
 flops     5 x    25 x    47           4739562250     100.0%      0.0%      0.0%
 flops    13 x    32 x    32           5004247040     100.0%      0.0%      0.0%
 flops     5 x    13 x    32           9083197760     100.0%      0.0%      0.0%
 flops    25 x    32 x    32           9363456000     100.0%      0.0%      0.0%
 flops   160 x    47 x    47          12611446080     100.0%      0.0%      0.0%
 flops   175 x    47 x   139          20135359300     100.0%      0.0%      0.0%
 flops    25 x     5 x    32          20607552000     100.0%      0.0%      0.0%
 flops    13 x     5 x    32          26661219520     100.0%      0.0%      0.0%
 flops   175 x    47 x   128          27812870400     100.0%      0.0%      0.0%
 flops   695 x    47 x    47          36305710240     100.0%      0.0%      0.0%
 flops   696 x    47 x    47          36357948672     100.0%      0.0%      0.0%
 flops   175 x    47 x   127          45992637250     100.0%      0.0%      0.0%
 flops   160 x    47 x   139          55228414080     100.0%      0.0%      0.0%
 flops   175 x    47 x    32          59479515200     100.0%      0.0%      0.0%
 flops   175 x    32 x    47          59479515200     100.0%      0.0%      0.0%
 flops     5 x    25 x    32          61311784000     100.0%      0.0%      0.0%
 flops    13 x    13 x    47          67035266220     100.0%      0.0%      0.0%
 flops   695 x    47 x   139          73155488720     100.0%      0.0%      0.0%
 flops   696 x    47 x   139          73260748416     100.0%      0.0%      0.0%
 flops   160 x    47 x   128          76286730240     100.0%      0.0%      0.0%
 flops    13 x    32 x     5          77714707200     100.0%      0.0%      0.0%
 flops     5 x    32 x    13          77714707200     100.0%      0.0%      0.0%
 flops    13 x    15 x    13          86830888560     100.0%      0.0%      0.0%
 flops   695 x    47 x   128         101049308160     100.0%      0.0%      0.0%
 flops   696 x    47 x   128         101194702848     100.0%      0.0%      0.0%
 flops   160 x    47 x   127         126151233600     100.0%      0.0%      0.0%
 flops    13 x    25 x    47         144331855850     100.0%      0.0%      0.0%
 flops    25 x    13 x    47         146634623200     100.0%      0.0%      0.0%
 flops   160 x    32 x    47         163143813120     100.0%      0.0%      0.0%
 flops   160 x    47 x    32         163143813120     100.0%      0.0%      0.0%
 flops   695 x    47 x   127         167099767400     100.0%      0.0%      0.0%
 flops   696 x    47 x   127         167340198720     100.0%      0.0%      0.0%
 flops    25 x    32 x     5         177930560000     100.0%      0.0%      0.0%
 flops     5 x    32 x    25         177930560000     100.0%      0.0%      0.0%
 flops    13 x    15 x    25         191593925250     100.0%      0.0%      0.0%
 flops    25 x    15 x    13         191593925250     100.0%      0.0%      0.0%
 flops   175 x    32 x   139         260474435200     100.0%      0.0%      0.0%
 flops    25 x    25 x    47         290725785000     100.0%      0.0%      0.0%
 flops   175 x    32 x   128         359792025600     100.0%      0.0%      0.0%
 flops    25 x    15 x    25         377622000000     100.0%      0.0%      0.0%
 flops   695 x    32 x    47         469656847360     100.0%      0.0%      0.0%
 flops   695 x    47 x    32         469656847360     100.0%      0.0%      0.0%
 flops   696 x    47 x    32         470332612608     100.0%      0.0%      0.0%
 flops   696 x    32 x    47         470332612608     100.0%      0.0%      0.0%
 flops   175 x    32 x   127         594968584000     100.0%      0.0%      0.0%
 flops   160 x    32 x   139         714444165120     100.0%      0.0%      0.0%
 flops   175 x    32 x    32         769437132800     100.0%      0.0%      0.0%
 flops    13 x    13 x    32         867179614080     100.0%      0.0%      0.0%
 flops   695 x    32 x   139         946351854080     100.0%      0.0%      0.0%
 flops   696 x    32 x   139         947713511424     100.0%      0.0%      0.0%
 flops   160 x    32 x   128         986858127360     100.0%      0.0%      0.0%
 flops   695 x    32 x   128        1307191050240     100.0%      0.0%      0.0%
 flops   696 x    32 x   128        1309071900672     100.0%      0.0%      0.0%
 flops   160 x    32 x   127        1631913830400     100.0%      0.0%      0.0%
 flops    13 x    25 x    32        1867101454400     100.0%      0.0%      0.0%
 flops    25 x    13 x    32        1896890444800     100.0%      0.0%      0.0%
 flops   160 x    32 x    32        2110456135680     100.0%      0.0%      0.0%
 flops   695 x    32 x   127        2161631033600     100.0%      0.0%      0.0%
 flops   696 x    32 x   127        2164741294080     100.0%      0.0%      0.0%
 flops    13 x    32 x    13        3704784578560     100.0%      0.0%      0.0%
 flops    25 x    25 x    32        3760878240000     100.0%      0.0%      0.0%
 flops   695 x    32 x    32        6075560919040     100.0%      0.0%      0.0%
 flops   696 x    32 x    32        6084302733312     100.0%      0.0%      0.0%
 flops    13 x    32 x    25        8174674144000     100.0%      0.0%      0.0%
 flops    25 x    32 x    13        8174674144000     100.0%      0.0%      0.0%
 flops    25 x    32 x    25       16111872000000     100.0%      0.0%      0.0%
 flops inhomo. stacks              18233283889200     100.0%      0.0%      0.0%
 flops total                        96.829738E+12     100.0%      0.0%      0.0%
 flops max/rank                      1.693073E+12     100.0%      0.0%      0.0%
 matmuls inhomo. stacks                   5133600     100.0%      0.0%      0.0%
 matmuls total                         2118855050     100.0%      0.0%      0.0%
 number of processed stacks              80154350     100.0%      0.0%      0.0%
 average stack size                                    26.4       0.0       0.0
 marketing flops                   107.479191E+12
 -------------------------------------------------------------------------------
 # multiplications                          24298
 max memory usage/rank             910.458880E+06
 # max total images/rank                        5
 # max 3D layers                                1
 # MPI messages exchanged               221597760
 MPI messages size (bytes):
  total size                        14.691173E+12
  min size                           0.000000E+00
  max size                         913.152000E+03
  average size                      66.296578E+03
 MPI breakdown and total messages size (bytes):
             size <=      128             2075180                        0
       128 < size <=     8192            81386728             666720075776
      8192 < size <=    32768            42261130            1186673312432
     32768 < size <=   131072            68174242            2683119197112
    131072 < size <=  4194304            27700480           10138678253936
   4194304 < size <= 16777216                   0                        0
  16777216 < size                               0                        0
 -------------------------------------------------------------------------------

 *** WARNING in dbcsr/mm/dbcsr_mm.F:268 :: Using a non-square number of ***
 *** MPI ranks might lead to poor performance.                          ***
 *** Used ranks: 80                                                     ***
 *** Suggested: 81 169                                                  ***

 -------------------------------------------------------------------------------
 
 MEMORY| Estimated peak process memory [MiB]                                 873

 -------------------------------------------------------------------------------
 ----                             MULTIGRID INFO                            ----
 -------------------------------------------------------------------------------
 count for grid        1:        1207011          cutoff [a.u.]          600.00
 count for grid        2:       10404525          cutoff [a.u.]          200.00
 count for grid        3:        9566155          cutoff [a.u.]           66.67
 count for grid        4:       14901864          cutoff [a.u.]           22.22
 count for grid        5:       14269419          cutoff [a.u.]            7.41
 total gridlevel count  :       50348974

 -------------------------------------------------------------------------------
 -                                                                             -
 -                         MESSAGE PASSING PERFORMANCE                         -
 -                                                                             -
 -------------------------------------------------------------------------------

 ROUTINE             CALLS      AVE VOLUME [Bytes]
 MP_Group             2474
 MP_Bcast            25109                  38116.
 MP_Allreduce       201881                    194.
 MP_Sync               849
 MP_Alltoall        144103                2579130.
 MP_SendRecv         38868                   5261.
 MP_ISendRecv       654831                  49867.
 MP_Wait           5616188
 MP_comm_split         844
 MP_ISend          6354670                  62887.
 MP_IRecv          6354670                  62873.
 MP_Recv              2318                  82800.
 MP_Memory         2688254
 -------------------------------------------------------------------------------


 -------------------------------------------------------------------------------
 -                                                                             -
 -                           R E F E R E N C E S                               -
 -                                                                             -
 -------------------------------------------------------------------------------
 
 CP2K version 7.0 (Development Version), the CP2K developers group (2018).
 CP2K is freely available from https://www.cp2k.org/ .

 Schuett, Ole; Messmer, Peter; Hutter, Juerg; VandeVondele, Joost. 
 Electronic Structure Calculations on Graphics Processing Units, John Wiley & Sons, Ltd, 173-190 (2016). 
 GPU-Accelerated Sparse Matrix-Matrix Multiplication for Linear Scaling Density Functional Theory.
 http://dx.doi.org/10.1002/9781118670712.ch8


 Borstnik, U; VandeVondele, J; Weber, V; Hutter, J. 
 PARALLEL COMPUTING, 40 (5-6), 47-58 (2014). 
 Sparse matrix multiplication: The distributed block-compressed sparse
 row library.
 http://dx.doi.org/10.1016/j.parco.2014.03.012


 Hutter, J; Iannuzzi, M; Schiffmann, F; VandeVondele, J. 
 WILEY INTERDISCIPLINARY REVIEWS-COMPUTATIONAL MOLECULAR SCIENCE, 4 (1), 15-25 (2014). 
 CP2K: atomistic simulations of condensed matter systems.
 http://dx.doi.org/10.1002/wcms.1159


 Grimme, S; Ehrlich, S; Goerigk, L. 
 JOURNAL OF COMPUTATIONAL CHEMISTRY, 32, 1456 (2011). 
 Effect of the damping function in dispersion corrected density functional theory.
 http://dx.doi.org/10.1002/jcc.21759


 Grimme, S; Antony, J; Ehrlich, S; Krieg, H. 
 JOURNAL OF CHEMICAL PHYSICS, 132 (15), 154104 (2010). 
 A consistent and accurate ab initio parametrization of density
 functional dispersion correction (DFT-D) for the 94 elements H-Pu.
 http://dx.doi.org/10.1063/1.3382344


 VandeVondele, J; Hutter, J. 
 JOURNAL OF CHEMICAL PHYSICS, 127 (11), 114105 (2007). 
 Gaussian basis sets for accurate calculations on molecular systems in
 gas and condensed phases.
 http://dx.doi.org/10.1063/1.2770708


 Krack, M. 
 THEORETICAL CHEMISTRY ACCOUNTS, 114 (1-3), 145-152 (2005). 
 Pseudopotentials for H to Kr optimized for gradient-corrected
 exchange-correlation functionals.
 http://dx.doi.org/10.1007/s00214-005-0655-y


 VandeVondele, J; Krack, M; Mohamed, F; Parrinello, M; Chassaing, T;
 Hutter, J. COMPUTER PHYSICS COMMUNICATIONS, 167 (2), 103-128 (2005). 
 QUICKSTEP: Fast and accurate density functional calculations using a
 mixed Gaussian and plane waves approach.
 http://dx.doi.org/10.1016/j.cpc.2004.12.014


 Frigo, M; Johnson, SG. 
 PROCEEDINGS OF THE IEEE, 93 (2), 216-231 (2005). 
 The design and implementation of FFTW3.
 http://dx.doi.org/10.1109/JPROC.2004.840301


 Kolafa, J. 
 JOURNAL OF COMPUTATIONAL CHEMISTRY, 25 (3), 335-342 (2004). 
 Time-reversible always stable predictor-corrector method for molecular dynamics of polarizable molecules.
 http://dx.doi.org/10.1002/jcc.10385


 VandeVondele, J; Hutter, J. 
 JOURNAL OF CHEMICAL PHYSICS, 118 (10), 4365-4369 (2003). 
 An efficient orbital transformation method for electronic structure
 calculations.
 http://dx.doi.org/10.1063/1.1543154


 Hartwigsen, C; Goedecker, S; Hutter, J. 
 PHYSICAL REVIEW B, 58 (7), 3641-3662 (1998). 
 Relativistic separable dual-space Gaussian pseudopotentials from H to Rn.
 http://dx.doi.org/10.1103/PhysRevB.58.3641


 Lippert, G; Hutter, J; Parrinello, M. 
 MOLECULAR PHYSICS, 92 (3), 477-487 (1997). 
 A hybrid Gaussian and plane wave density functional scheme.
 http://dx.doi.org/10.1080/002689797170220


 Perdew, JP; Burke, K; Ernzerhof, M. 
 PHYSICAL REVIEW LETTERS, 77 (18), 3865-3868 (1996). 
 Generalized gradient approximation made simple.
 http://dx.doi.org/10.1103/PhysRevLett.77.3865


 Goedecker, S; Teter, M; Hutter, J. 
 PHYSICAL REVIEW B, 54 (3), 1703-1710 (1996). 
 Separable dual-space Gaussian pseudopotentials.
 http://dx.doi.org/10.1103/PhysRevB.54.1703


 -------------------------------------------------------------------------------
 -                                                                             -
 -                                T I M I N G                                  -
 -                                                                             -
 -------------------------------------------------------------------------------
 SUBROUTINE                       CALLS  ASD         SELF TIME        TOTAL TIME
                                MAXIMUM       AVERAGE  MAXIMUM  AVERAGE  MAXIMUM
 CP2K                                 1  1.0    0.157    0.215 8830.358 8830.398
 cp_geo_opt                           1  2.0    0.010    0.023 8829.023 8829.035
 geoopt_bfgs                          1  3.0    0.070    0.133 8829.013 8829.034
 cp_eval_at                         124  4.0    0.037    0.076 8779.104 8779.155
 qs_forces                          123  5.0    0.033    0.072 8737.796 8737.831
 qs_energies                        124  6.0    0.061    0.373 7759.353 7759.475
 scf_env_do_scf                     124  7.0    0.025    0.360 7109.026 7109.244
 scf_env_do_scf_inner_loop         1636  8.0    0.097    0.181 6084.354 6084.491
 rebuild_ks_matrix                 1759  9.8    0.007    0.019 3554.463 3555.230
 qs_ks_build_kohn_sham_matrix      1759 10.8    0.373    1.054 3554.456 3555.223
 qs_rho_update_rho                 1760  9.1    0.017    0.025 3029.791 3032.296
 calculate_rho_elec                1760 10.1 1664.082 1964.602 3029.774 3032.271
 qs_ks_update_qs_env               1763  9.0    0.018    0.033 2758.836 2759.577
 sum_up_and_integrate              1003 11.6    3.383    4.232 2219.969 2220.603
 integrate_v_rspace                1003 12.6 1368.695 1616.617 2216.583 2217.677
 rs_pw_transfer                   14310 12.9    0.166    0.189 1396.628 1452.118
 pw_transfer                      29509 13.3    3.110    3.554 1436.741 1443.091
 fft_wrap_pw1pw2                  25991 14.3    0.304    0.369 1424.299 1430.710
 density_rs2pw                     1760 11.1    0.131    0.155 1244.315 1308.677
 fft_wrap_pw1pw2_600              14939 15.6   81.612   96.856 1292.525 1297.288
 fft3d_ps                         25991 16.3  282.885  327.540 1233.899 1256.132
 qs_vxc_create                     1759 11.8    0.033    0.047 1041.609 1045.709
 dbcsr_multiply_generic           24298 13.7    1.485    2.215 1029.765 1034.273
 init_scf_loop                      127  8.0    0.007    0.026 1022.368 1022.430
 mp_waitany                      613152 14.8  896.578  981.004  896.578  981.004
 mp_waitall_1                   5003036 16.6  864.845  930.542  864.845  930.542
 mp_alltoall_z22v                 25991 18.3  831.292  906.609  831.292  906.609
 qs_scf_new_mos                    1636  9.0    0.012    0.030  886.723  887.576
 qs_scf_loop_do_ot                 1636 10.0    0.088    0.182  886.712  887.564
 ot_scf_mini                       1636 11.0    0.132    0.312  809.072  810.619
 qs_ks_update_qs_env_forces         123  6.0    0.001    0.001  804.975  805.141
 xc_vxc_pw_create                  1003 12.6   30.679   37.966  779.644  783.721
 multiply_cannon                  24298 14.7    7.430    7.781  761.444  779.458
 rs_pw_transfer_RS2PW_600          2008 12.9  109.671  129.977  665.869  725.496
 prepare_preconditioner             127  9.0    0.001    0.001  636.630  636.848
 make_preconditioner                127 10.0    0.004    0.015  595.564  595.692
 xc_rho_set_and_dset_create        1759 13.8    5.294    6.123  549.298  568.007
 make_full_all                      127 11.0    0.041    0.106  562.842  563.122
 potential_pw2rs                   1003 13.6    0.439    0.565  537.278  538.407
 x_to_yz                          10046 17.9   42.299   53.893  492.473  510.298
 multiply_cannon_metrocomm3      485960 15.7    1.270    1.415  446.896  501.749
 cp_fm_syevd                        844 12.2    0.006    0.017  426.561  452.463
 yz_to_x                           7656 17.0   30.337   38.146  407.884  450.573
 ot_mini                           1636 12.0    0.008    0.021  440.793  441.533
 cp_fm_redistribute_end             844 13.2  194.781  435.141  199.987  437.782
 mp_alltoall_d11v                 29224 14.7  375.433  423.915  375.433  423.915
 rs_distribute_matrix              2886 12.0    1.646    3.773  350.814  397.849
 cp_fm_syevd_base                   844 13.4  212.960  395.698  212.960  395.698
 init_scf_run                       124  7.0    0.005    0.016  344.620  344.633
 scf_env_initial_rho_setup          124  8.0    0.003    0.009  344.615  344.627
 wfi_extrapolate                    124  9.0    0.052    0.808  341.415  341.458
 rs_pw_transfer_PW2RS_600          1250 14.8  105.876  119.227  300.099  301.897
 mp_sum_d                         31201 14.1  213.382  284.487  213.382  284.487
 qs_ot_get_derivative               880 13.0    0.009    0.020  276.668  277.625
 multiply_cannon_metrocomm1      485960 15.7    1.421    1.501  183.393  272.161
 xc_exc_calc                        756 13.0    1.744    2.128  261.933  262.078
 qs_energies_init_hamiltonians      124  7.0    0.008    0.019  212.784  212.856
 build_core_hamiltonian_matrix_     123  6.0    0.006    0.042  169.036  202.871
 -------------------------------------------------------------------------------

 The number of warnings for this run is : 1
 
 -------------------------------------------------------------------------------
  **** **** ******  **  PROGRAM ENDED AT                 2019-05-23 17:56:54.615
 ***** ** ***  *** **   PROGRAM RAN ON            blg9120.int.ets1.calculquebec.
 **    ****   ******    PROGRAM RAN BY                                       rzk
 ***** **    ** ** **   PROGRAM PROCESS ID                                118785
  **** **  *******  **  PROGRAM STOPPED IN /lustre03/project/6004141/rzk/GaN-car
                                           bene/01-Methanol/03-both-ads
