     150
 i =        1, E =     -6112.5425400831
 Ga         0.0187312082        0.0083908905       -0.5594347034
  N         0.0208333438        1.8810586134        0.5621732150
 Ga         0.0195525338        1.8504960505        2.5955957392
  N         0.0164313412        0.0060893116        3.2250745359
 Ga         0.0162584382        0.0064707261        5.2169511794
  N         0.0188878335        1.8812942926        5.8030384405
 Ga         0.0169911653        1.8782924522        7.8026226733
  N         0.0131860237        0.0047994299        8.4031747419
 Ga         0.0130478685        0.0050350945       10.4008149368
  N         0.0188697510        1.8754554145       11.0095895476
 Ga         0.0226213392        1.8754038696       13.0060511541
  N         0.0187968719       -0.0013472388       13.6023875258
 Ga         0.0099547024        0.0005923085       15.6041566169
  N         0.0017318072        1.8770564707       16.1544134423
 Ga        -0.0123872274        1.8727997599       18.1911652395
  N        -0.0127718694        0.0146866743       18.6512531520
 Ga        -1.6028681439        2.8125561130        0.2771302221
  N        -1.6034121018        4.6823265675        0.5612649736
 Ga        -1.5760061875        4.6973470275        2.5923383933
  N        -1.6036413524        2.8118126827        3.1841564274
 Ga        -1.6042500009        2.8118043829        5.1956142446
  N        -1.6036619004        4.6819156358        5.8024961443
 Ga        -1.6042037672        4.6808082361        7.8014382853
  N        -1.6042400925        2.8111405296        8.4083056660
 Ga        -1.6032978131        2.8129884936       10.4055487721
  N        -1.6022611815        4.6858150960       11.0102955795
 Ga        -1.6035151705        4.6900738480       13.0080627743
  N        -1.6079776316        2.8105226971       13.5799304114
 Ga        -1.6151684631        2.8095259844       15.5694297955
  N        -1.6160589972        4.6726355902       16.1776344969
 Ga        -1.6222938376        4.6899524634       18.2237223203
  N        -1.6070639258        2.8240350722       18.6756381612
 Ga        -3.2227709092        5.6174898662        0.2770615894
  N        -3.2161862562        7.4891499970        0.5619060970
 Ga        -3.2434799849        7.5026759678        2.5953470421
  N        -3.2229782717        5.6168139065        3.1838063300
 Ga        -3.2235360155        5.6172221713        5.1951906560
  N        -3.2178778840        7.4872045592        5.8034421170
 Ga        -3.2210682347        7.4860604379        7.8033223698
  N        -3.2256025603        5.6146282144        8.4065749086
 Ga        -3.2265823610        5.6149817585       10.4031361080
  N        -3.2229990534        7.4875692528       10.9997795279
 Ga        -3.2230594414        7.4848230706       12.9910623824
  N        -3.2296091077        5.6202848972       13.6069550550
 Ga        -3.2350251576        5.6208818311       15.6112676534
  N        -3.2222706530        7.4874257982       16.2531508249
 Ga        -3.2386745004        7.4976233342       18.3608241472
  N        -3.2428717717        5.6162684972       18.6471621241
 Ga         3.2645520298        0.0082252595        0.2767434771
  N         3.2617757050        1.8767406323        0.5626452218
 Ga         3.2895124495        1.8918953174        2.5924778054
  N         3.2624393694        0.0064373771        3.1842450354
 Ga         3.2617417586        0.0069006658        5.1955767425
  N         3.2615513840        1.8767001172        5.8029884880
 Ga         3.2608837710        1.8759983931        7.8020164584
  N         3.2601713725        0.0054715996        8.4061684384
 Ga         3.2594123711        0.0070108865       10.4024913163
  N         3.2598397299        1.8774895142       11.0115467817
 Ga         3.2550198879        1.8771651894       13.0102107643
  N         3.2512817360        0.0027404325       13.6060468709
 Ga         3.2450954379        0.0072471949       15.6089579893
  N         3.2535672234        1.8873240975       16.1649813030
 Ga         3.2656915168        1.8676651321       18.2065479297
  N         3.2425791126        0.0156054236       18.6801245689
 Ga         1.6445382599        2.8129609583        0.2767477170
  N         1.6499026717        4.6828372147        0.5607058725
 Ga         1.6206426561        4.6974451840        2.5916588024
  N         1.6427170303        2.8121119746        3.1838056773
 Ga         1.6423183986        2.8120379222        5.1949369162
  N         1.6470960530        4.6818522392        5.8027004443
 Ga         1.6444884755        4.6811190206        7.8016471057
  N         1.6400188866        2.8107908133        8.4077113011
 Ga         1.6395597982        2.8117482632       10.4042260713
  N         1.6386775387        4.6837387657       11.0106048014
 Ga         1.6331532743        4.6856058637       13.0079052255
  N         1.6371748567        2.8208086675       13.6269335456
 Ga         1.6325592173        2.8357044219       15.6377716406
  N         1.6316663049        4.6836745667       16.3052030616
 Ga         1.6253575112        4.6865321450       18.5936726864
  N         1.6248389752        2.7761612484       18.5975076792
 Ga         0.0239989124        5.6191397686       -0.5891931574
  N         0.0268602715        7.4930871668        0.5616571229
 Ga         0.0254750420        7.4605969091        2.5924610760
  N         0.0226124563        5.6169937289        3.2244208788
 Ga         0.0220774280        5.6174098742        5.2151597012
  N         0.0247433009        7.4918003949        5.8025695033
 Ga         0.0234480723        7.4891601160        7.8015656709
  N         0.0202607930        5.6156787790        8.4019387828
 Ga         0.0185647971        5.6167089341       10.3985060361
  N         0.0194690611        7.4851326684       11.0082111426
 Ga         0.0141852312        7.4815819753       13.0051346674
  N         0.0178728996        5.6169007872       13.6412396306
 Ga         0.0263906785        5.6135805862       15.6604161997
  N         0.0189675274        7.5052807271       16.1858440384
 Ga        -0.0008197440        7.5004402972       18.2414425670
  N        -0.0277237276        5.6381580534       18.6981586431
 Ga         6.5075560504        0.0086051139        0.2766987965
  N         6.5154110103        1.8773486120        0.5622996856
 Ga         6.4857076011        1.8921207633        2.5920831276
  N         6.5072933221        0.0066098517        3.1842206288
 Ga         6.5067358481        0.0072222158        5.1956961399
  N         6.5123937634        1.8765573689        5.8054537811
 Ga         6.5099337388        1.8753246255        7.8060581086
  N         6.5053020997        0.0031873726        8.4079456167
 Ga         6.5041558534        0.0015460499       10.4051719749
  N         6.5067080666        1.8770672341       10.9937622375
 Ga         6.5040988887        1.8753857295       12.9832958826
  N         6.4995515578        0.0030812949       13.5805540710
 Ga         6.4956871896        0.0111095394       15.5720637259
  N         6.5197252207        1.8707139403       16.1625087013
 Ga         6.5285825494        1.8736022101       18.2207497702
  N         6.4880951713        0.0023390626       18.6585981248
 Ga         4.8888430172        2.8126524231       -0.5924964231
  N         4.8921728865        4.6877094920        0.5622578073
 Ga         4.8908309772        4.6544833128        2.5920467289
  N         4.8879343621        2.8114536223        3.2252410119
 Ga         4.8876473278        2.8115423518        5.2160627949
  N         4.8898883658        4.6862972251        5.8028262678
 Ga         4.8878219377        4.6836671974        7.8019882468
  N         4.8843397008        2.8109849329        8.4042136289
 Ga         4.8815631058        2.8125970419       10.4023949193
  N         4.8863048773        4.6834611089       11.0117589223
 Ga         4.8818208900        4.6847380288       13.0108896031
  N         4.8854751002        2.8075584874       13.5954331349
 Ga         4.8891158769        2.8041630866       15.5922266470
  N         4.8757189673        4.6781415185       16.1667695275
 Ga         4.8916560845        4.6800812548       18.2116526863
  N         4.8882629334        2.8035604473       18.5895985186
 Ga         3.2703603215        5.6168556582        0.2766787874
  N         3.2693074892        7.4885796077        0.5614296194
 Ga         3.2945683041        7.5024244734        2.5952162684
  N         3.2680788739        5.6166369058        3.1833766921
 Ga         3.2676832461        5.6168480238        5.1945900522
  N         3.2675747733        7.4869748223        5.8026939599
 Ga         3.2666080813        7.4855930339        7.8022160698
  N         3.2653570690        5.6151939763        8.4080318387
 Ga         3.2641990696        5.6153033690       10.4048649803
  N         3.2697075083        7.4857777124       11.0106720920
 Ga         3.2681824679        7.4779674946       13.0085581236
  N         3.2533265918        5.6070991697       13.6274310252
 Ga         3.2384561748        5.6050663866       15.6406765032
  N         3.2566677190        7.4970477510       16.1529145571
 Ga         3.2528048261        7.5107222172       18.1959883381
  N         3.2706024692        5.6312966937       18.5812843439
  O         1.3356695275        4.5989755447       21.0202037571
  H         0.5078856831        5.0778925740       20.8112026440
  C         0.9854398348        3.2984963853       21.5303634447
  H         1.0621763576        2.5619107231       20.7266887211
  H         1.6816701402        3.0348197190       22.3263653007
  H        -0.0362566250        3.3192183623       21.9034716156
     150
 i =        2, E =     -6112.5430962509
 Ga         0.0187075508        0.0083915436       -0.5644722408
  N         0.0207259441        1.8812050345        0.5626261129
 Ga         0.0195259711        1.8502293851        2.5953582269
  N         0.0163920008        0.0060791587        3.2255559220
 Ga         0.0162339196        0.0064788395        5.2169450375
  N         0.0189152089        1.8813216239        5.8029020677
 Ga         0.0168926847        1.8783039991        7.8023913407
  N         0.0131329408        0.0048395371        8.4030664026
 Ga         0.0130359012        0.0050399714       10.4006570075
  N         0.0187373720        1.8753874506       11.0099249313
 Ga         0.0227782865        1.8752362961       13.0065507002
  N         0.0188765419       -0.0015606433       13.6020812459
 Ga         0.0101415741       -0.0007141536       15.6035224887
  N         0.0005751629        1.8764256680       16.1494284325
 Ga        -0.0169633009        1.8708248494       18.1822652929
  N        -0.0123749077        0.0162135137       18.6517815668
 Ga        -1.6026695768        2.8123307933        0.2774120323
  N        -1.6034045459        4.6823440727        0.5609703456
 Ga        -1.5761353839        4.6972944407        2.5922671588
  N        -1.6036749306        2.8118319482        3.1841842622
 Ga        -1.6042667221        2.8117917164        5.1956028263
  N        -1.6036761904        4.6819351598        5.8024822808
 Ga        -1.6043323531        4.6808055369        7.8014001945
  N        -1.6042980399        2.8111055749        8.4083250963
 Ga        -1.6033770705        2.8129598474       10.4054951858
  N        -1.6023521140        4.6857150306       11.0100522390
 Ga        -1.6038057771        4.6900767026       13.0076456925
  N        -1.6079477589        2.8106710198       13.5796340101
 Ga        -1.6163236273        2.8103175362       15.5687051418
  N        -1.6161954658        4.6724984763       16.1809589272
 Ga        -1.6221032638        4.6894654782       18.2281603969
  N        -1.6070313305        2.8231052867       18.6751372005
 Ga        -3.2228611939        5.6177964372        0.2773176909
  N        -3.2161255302        7.4890084648        0.5623725248
 Ga        -3.2437184452        7.5028225868        2.5951199592
  N        -3.2230010998        5.6167992224        3.1838190511
 Ga        -3.2235946483        5.6172269991        5.1951821867
  N        -3.2178823658        7.4872111107        5.8033541673
 Ga        -3.2211509962        7.4860075412        7.8031789186
  N        -3.2256756155        5.6146529205        8.4067212686
 Ga        -3.2266581053        5.6150705861       10.4032609623
  N        -3.2231522830        7.4876479498       10.9999518174
 Ga        -3.2230332413        7.4843694751       12.9912771654
  N        -3.2297302591        5.6199734814       13.6067376138
 Ga        -3.2350598528        5.6208695155       15.6111189799
  N        -3.2220392533        7.4865058680       16.2514059053
 Ga        -3.2383662577        7.4981338875       18.3576366013
  N        -3.2431871155        5.6176554181       18.6477096027
 Ga         3.2641314828        0.0080492249        0.2770335569
  N         3.2618775799        1.8768127596        0.5625043455
 Ga         3.2894389149        1.8918765736        2.5925261427
  N         3.2624596790        0.0064412282        3.1842419230
 Ga         3.2617172115        0.0069402870        5.1955305862
  N         3.2615250585        1.8767135418        5.8030422430
 Ga         3.2609269266        1.8760796883        7.8019562173
  N         3.2600551809        0.0055123615        8.4061213403
 Ga         3.2592613603        0.0069316225       10.4024454890
  N         3.2599078662        1.8774565545       11.0115226041
 Ga         3.2553578786        1.8769629258       13.0102126117
  N         3.2511785176        0.0025797333       13.6052263205
 Ga         3.2449929830        0.0064784992       15.6078595393
  N         3.2563464105        1.8858284356       16.1632774548
 Ga         3.2708757530        1.8647368996       18.2039943287
  N         3.2432523310        0.0158480469       18.6796234063
 Ga         1.6441527988        2.8127055141        0.2771112252
  N         1.6497998791        4.6828303230        0.5603890131
 Ga         1.6207382596        4.6973862096        2.5915492761
  N         1.6426957741        2.8121510403        3.1837908738
 Ga         1.6423298293        2.8120498825        5.1948962951
  N         1.6470729097        4.6818752591        5.8026949837
 Ga         1.6445323389        4.6811775270        7.8015934866
  N         1.6399158611        2.8107824185        8.4077488444
 Ga         1.6394954283        2.8117428142       10.4042750653
  N         1.6386366640        4.6838387154       11.0105252008
 Ga         1.6332622029        4.6858000966       13.0078908926
  N         1.6376562795        2.8208938830       13.6281319935
 Ga         1.6337652345        2.8353095660       15.6397285040
  N         1.6314934365        4.6834771961       16.3069713721
 Ga         1.6253702011        4.6845006243       18.5993432109
  N         1.6261017727        2.7750567815       18.5714823009
 Ga         0.0239059963        5.6190748056       -0.5877686325
  N         0.0267752060        7.4929764735        0.5613461241
 Ga         0.0254575718        7.4607121858        2.5923995903
  N         0.0226200910        5.6169800566        3.2241584086
 Ga         0.0220727518        5.6174201536        5.2150629813
  N         0.0247175866        7.4918078552        5.8025797839
 Ga         0.0234574623        7.4892088379        7.8015679340
  N         0.0202112701        5.6156473142        8.4018933113
 Ga         0.0183962063        5.6167363399       10.3984122879
  N         0.0194309145        7.4851670536       11.0082616292
 Ga         0.0141860100        7.4813383958       13.0052199374
  N         0.0172743349        5.6165085959       13.6413210719
 Ga         0.0257974698        5.6129520648       15.6608790946
  N         0.0195166067        7.5048020286       16.1841511705
 Ga        -0.0007386705        7.4982467636       18.2399619011
  N        -0.0264495117        5.6380030731       18.7022403883
 Ga         6.5077953209        0.0084446064        0.2770188243
  N         6.5151269305        1.8774462351        0.5621845349
 Ga         6.4857146153        1.8920795259        2.5921705304
  N         6.5072509841        0.0065929731        3.1842523125
 Ga         6.5067356784        0.0072191456        5.1956684226
  N         6.5123919546        1.8765428461        5.8054347781
 Ga         6.5098711313        1.8753665830        7.8059213457
  N         6.5053411756        0.0032687486        8.4080321673
 Ga         6.5042032958        0.0015945885       10.4052487900
  N         6.5067327645        1.8770782278       10.9939552513
 Ga         6.5040931578        1.8752187138       12.9834792477
  N         6.4997083557        0.0028142843       13.5798918782
 Ga         6.4962962886        0.0106214954       15.5711569982
  N         6.5201946707        1.8698038127       16.1612021730
 Ga         6.5285928660        1.8735173075       18.2190752887
  N         6.4873420798        0.0030149904       18.6585745704
 Ga         4.8887888488        2.8126004788       -0.5911029873
  N         4.8921027834        4.6875018672        0.5621298913
 Ga         4.8907827950        4.6545115178        2.5921250282
  N         4.8879044053        2.8114446105        3.2252151881
 Ga         4.8876299220        2.8115721792        5.2161215730
  N         4.8898541915        4.6863317374        5.8028985819
 Ga         4.8878090729        4.6836917185        7.8019407939
  N         4.8843622884        2.8110487121        8.4043787522
 Ga         4.8816481471        2.8126622107       10.4024455039
  N         4.8862886945        4.6834453849       11.0118507765
 Ga         4.8817651457        4.6847170926       13.0109616728
  N         4.8857305540        2.8076217414       13.5957417047
 Ga         4.8908845903        2.8050405093       15.5923436056
  N         4.8755019985        4.6783884909       16.1675505493
 Ga         4.8915147792        4.6800861237       18.2123360691
  N         4.8892188248        2.8043654299       18.5908705921
 Ga         3.2703249210        5.6171865141        0.2769403095
  N         3.2690979420        7.4884893480        0.5618863509
 Ga         3.2947418231        7.5025564875        2.5949941457
  N         3.2680396377        5.6166214764        3.1833606358
 Ga         3.2676862002        5.6168311295        5.1945252001
  N         3.2675547964        7.4869340012        5.8026011083
 Ga         3.2665648133        7.4855865148        7.8020580381
  N         3.2653816739        5.6152649698        8.4081589599
 Ga         3.2642748861        5.6154413973       10.4049936455
  N         3.2698013169        7.4859371974       11.0107221752
 Ga         3.2683213385        7.4776976111       13.0085922869
  N         3.2533647898        5.6070670930       13.6280424830
 Ga         3.2382278544        5.6053681470       15.6416725380
  N         3.2568605592        7.4967835649       16.1542761646
 Ga         3.2530835844        7.5100626929       18.1976597912
  N         3.2698675593        5.6306251899       18.5824054949
  O         1.3408889702        4.6155865778       21.0216706184
  H         0.5163584852        5.0931939090       20.7970634833
  C         0.9736032227        3.3117983285       21.5344527866
  H         1.0677855693        2.5514862074       20.7365438678
  H         1.6861211709        3.0471061060       22.3304081868
  H        -0.0525347909        3.2911873671       21.9270459240
     150
 i =        3, E =     -6112.5432880789
 Ga         0.0186636474        0.0083894650       -0.5668019670
  N         0.0206722162        1.8813750501        0.5626564010
 Ga         0.0194950589        1.8500310365        2.5950038895
  N         0.0163650879        0.0060773057        3.2256722672
 Ga         0.0162240633        0.0064732290        5.2168273333
  N         0.0189083865        1.8813169764        5.8029175166
 Ga         0.0168833533        1.8783282075        7.8023378405
  N         0.0131066331        0.0048593287        8.4030904115
 Ga         0.0129974420        0.0051419893       10.4007118568
  N         0.0187798037        1.8754372506       11.0104107867
 Ga         0.0230003789        1.8753240090       13.0072967461
  N         0.0188162837       -0.0019645872       13.6013517727
 Ga         0.0099912458       -0.0016525085       15.6023411291
  N        -0.0005960651        1.8753803021       16.1467984397
 Ga        -0.0181216159        1.8701530527       18.1781210522
  N        -0.0122540553        0.0168243522       18.6512341599
 Ga        -1.6025936871        2.8123253261        0.2775782055
  N        -1.6033097148        4.6824070325        0.5608958300
 Ga        -1.5761832076        4.6972827089        2.5922390204
  N        -1.6036217565        2.8118025963        3.1841020651
 Ga        -1.6042369612        2.8118092292        5.1954745913
  N        -1.6037018744        4.6819505348        5.8024927680
 Ga        -1.6043497087        4.6808206163        7.8013698785
  N        -1.6043175187        2.8111122652        8.4083664925
 Ga        -1.6033397089        2.8128918506       10.4055497336
  N        -1.6023865837        4.6857496231       11.0098003369
 Ga        -1.6037885119        4.6901083585       13.0072189418
  N        -1.6082038882        2.8109219616       13.5790320757
 Ga        -1.6167594694        2.8107835103       15.5676970307
  N        -1.6162323418        4.6722802933       16.1822186672
 Ga        -1.6222764131        4.6894003352       18.2301392884
  N        -1.6064959341        2.8227027688       18.6743132586
 Ga        -3.2228298268        5.6178756037        0.2774821501
  N        -3.2160225877        7.4888924355        0.5623925267
 Ga        -3.2439088183        7.5029119331        2.5947667146
  N        -3.2230092632        5.6168734041        3.1837480383
 Ga        -3.2235935020        5.6172723628        5.1950586375
  N        -3.2179058070        7.4872111406        5.8033764194
 Ga        -3.2211797374        7.4860254345        7.8031204818
  N        -3.2256976087        5.6146741861        8.4066866897
 Ga        -3.2267737044        5.6150324987       10.4031757768
  N        -3.2231800335        7.4875891820       10.9998067351
 Ga        -3.2230143266        7.4840145648       12.9911059122
  N        -3.2297006046        5.6196628583       13.6069894971
 Ga        -3.2349989792        5.6209085760       15.6114988018
  N        -3.2218427706        7.4864133955       16.2505700867
 Ga        -3.2380698481        7.4984628400       18.3560937001
  N        -3.2435433996        5.6184630739       18.6482854480
 Ga         3.2640195049        0.0079025883        0.2772020849
  N         3.2618109721        1.8767814604        0.5624343197
 Ga         3.2893834215        1.8918529480        2.5925329204
  N         3.2623739190        0.0063890145        3.1841780162
 Ga         3.2616817424        0.0069115267        5.1954315401
  N         3.2614889588        1.8767119380        5.8030856906
 Ga         3.2608826259        1.8760921352        7.8019766769
  N         3.2600277588        0.0055046517        8.4061430889
 Ga         3.2592542593        0.0069844362       10.4024700553
  N         3.2599187655        1.8774943403       11.0117461448
 Ga         3.2554531260        1.8770811465       13.0105351335
  N         3.2511708989        0.0023673771       13.6044700740
 Ga         3.2455628714        0.0057087573       15.6068461302
  N         3.2582920515        1.8845523095       16.1613240900
 Ga         3.2726078472        1.8640391859       18.2018325329
  N         3.2437496799        0.0162360239       18.6786293758
 Ga         1.6439595594        2.8126981489        0.2772872080
  N         1.6496221555        4.6828896309        0.5603106140
 Ga         1.6207396288        4.6973748106        2.5915071302
  N         1.6425969343        2.8121229254        3.1836976321
 Ga         1.6422827827        2.8120688062        5.1947804302
  N         1.6470676435        4.6818921850        5.8027239043
 Ga         1.6445053721        4.6811978374        7.8015781670
  N         1.6398764433        2.8108227713        8.4078437530
 Ga         1.6394885941        2.8117972422       10.4043847549
  N         1.6386302286        4.6839001448       11.0108042144
 Ga         1.6333001890        4.6856112715       13.0081934472
  N         1.6379979763        2.8209813728       13.6289105882
 Ga         1.6343177549        2.8345943178       15.6411669804
  N         1.6315675652        4.6835955085       16.3060517059
 Ga         1.6257664526        4.6846633239       18.6003908483
  N         1.6265069104        2.7762225482       18.5631973017
 Ga         0.0238471319        5.6190384811       -0.5871123536
  N         0.0267248502        7.4927885752        0.5612643003
 Ga         0.0254338636        7.4607337974        2.5923775427
  N         0.0226040956        5.6169739928        3.2240639445
 Ga         0.0220636784        5.6174232350        5.2149551199
  N         0.0247040358        7.4918136813        5.8025954075
 Ga         0.0234361847        7.4892135090        7.8015410514
  N         0.0201896670        5.6156623948        8.4018615778
 Ga         0.0184383698        5.6166971676       10.3983014759
  N         0.0194236709        7.4850822889       11.0083121848
 Ga         0.0142712866        7.4810070991       13.0052704173
  N         0.0170516452        5.6161565282       13.6415371648
 Ga         0.0253554877        5.6123148338       15.6610484688
  N         0.0199445310        7.5038216886       16.1841319195
 Ga        -0.0004881054        7.4968292032       18.2398875879
  N        -0.0263645944        5.6376445626       18.7058948468
 Ga         6.5077939224        0.0083056476        0.2771915642
  N         6.5150665360        1.8774275910        0.5621291453
 Ga         6.4857276097        1.8920537225        2.5921979672
  N         6.5072984121        0.0065338341        3.1841761503
 Ga         6.5067403456        0.0071688436        5.1955484499
  N         6.5124056495        1.8765274659        5.8054415838
 Ga         6.5098612690        1.8753594877        7.8058995375
  N         6.5053141368        0.0032659968        8.4080607692
 Ga         6.5041933930        0.0015843808       10.4052526939
  N         6.5067069478        1.8770568640       10.9938815540
 Ga         6.5040974624        1.8750994711       12.9832911986
  N         6.4998849683        0.0026432605       13.5798163215
 Ga         6.4963376019        0.0101968247       15.5709987849
  N         6.5204458483        1.8694998402       16.1606648904
 Ga         6.5287019543        1.8735764419       18.2186153300
  N         6.4870269546        0.0032873656       18.6579088578
 Ga         4.8887411563        2.8125844163       -0.5905434950
  N         4.8920538293        4.6874986723        0.5620608141
 Ga         4.8907611307        4.6545548481        2.5921351660
  N         4.8878837711        2.8114514018        3.2252023560
 Ga         4.8876097755        2.8115896215        5.2161071774
  N         4.8898409340        4.6863788601        5.8029346034
 Ga         4.8877750042        4.6837311275        7.8019399598
  N         4.8843529879        2.8110766178        8.4044315196
 Ga         4.8816157446        2.8126925480       10.4024913144
  N         4.8861898652        4.6834781554       11.0119522138
 Ga         4.8816184830        4.6847484489       13.0110339133
  N         4.8860887102        2.8077455036       13.5954136942
 Ga         4.8916702880        2.8054349100       15.5917247042
  N         4.8755515179        4.6783604956       16.1677216843
 Ga         4.8917582751        4.6794913323       18.2124348417
  N         4.8894959637        2.8043123528       18.5920986343
 Ga         3.2701974926        5.6172683660        0.2770771406
  N         3.2688870382        7.4883774607        0.5619045374
 Ga         3.2948822596        7.5026508424        2.5946350727
  N         3.2680074716        5.6166995629        3.1832782795
 Ga         3.2676527838        5.6168697005        5.1943986245
  N         3.2675509340        7.4869357942        5.8026441014
 Ga         3.2665390299        7.4855903295        7.8020293083
  N         3.2653425667        5.6152881234        8.4081601553
 Ga         3.2642100983        5.6153963013       10.4049297526
  N         3.2697957110        7.4858570800       11.0106028638
 Ga         3.2683353315        7.4774117435       13.0083268785
  N         3.2532584077        5.6070968703       13.6284960271
 Ga         3.2384612042        5.6053132594       15.6421846063
  N         3.2568363934        7.4964822941       16.1551959940
 Ga         3.2529947687        7.5096562580       18.1987106860
  N         3.2704121162        5.6305273430       18.5839217315
  O         1.3324894305        4.6133599103       21.0245885739
  H         0.5153587040        5.1012846745       20.7888620305
  C         0.9763092989        3.3064128156       21.5412927995
  H         1.0667800716        2.5528801183       20.7374127838
  H         1.6882665523        3.0554023143       22.3406969881
  H        -0.0508686785        3.2927421450       21.9309845174
     150
 i =        4, E =     -6112.5434315292
 Ga         0.0185890936        0.0083708049       -0.5701834724
  N         0.0205857996        1.8816540963        0.5626560743
 Ga         0.0194453178        1.8498637514        2.5944449104
  N         0.0163168232        0.0060680926        3.2255999273
 Ga         0.0161874967        0.0064887479        5.2165631769
  N         0.0188851213        1.8813180567        5.8029225632
 Ga         0.0168701567        1.8783542228        7.8022142399
  N         0.0130633555        0.0049187980        8.4032157557