 DBCSR| Multiplication driver                                               BLAS
 DBCSR| Multrec recursion limit                                              512
 DBCSR| Multiplication stack size                                           1000
 DBCSR| Maximum elements for images                                    UNLIMITED
 DBCSR| Multiplicative factor virtual images                                   1
 DBCSR| Multiplication size stacks                                             3
 DBCSR| Number of 3D layers                                               SINGLE
 DBCSR| Use MPI memory allocation                                              T
 DBCSR| Use RMA algorithm                                                      F
 DBCSR| Use Communication thread                                               T
 DBCSR| Communication thread load                                             87


  **** **** ******  **  PROGRAM STARTED AT               2019-07-22 07:54:33.531
 ***** ** ***  *** **   PROGRAM STARTED ON        blg9226.int.ets1.calculquebec.
 **    ****   ******    PROGRAM STARTED BY                                   rzk
 ***** **    ** ** **   PROGRAM PROCESS ID                                237795
  **** **  *******  **  PROGRAM STARTED IN /lustre04/scratch/rzk/rzk/GaN-carbene
                                           /443-adatoms-both-2x2/12-CH3O-H2C-H/0
                                           3-SameAs1202-Start-Final-1102

 CP2K| version string:                    CP2K version 7.0 (Development Version)
 CP2K| source code revision number:                                    svn:18619
 CP2K| cp2kflags: libint fftw3 libxc parallel mpi3 scalapack mkl                
 CP2K| is freely available from                            https://www.cp2k.org/
 CP2K| Program compiled at                          Sun Apr  7 00:48:11 EDT 2019
 CP2K| Program compiled on                      beluga2.int.ets1.calculquebec.ca
 CP2K| Program compiled for                    Beluga-Linux-x86-64-intel-openmpi
 CP2K| Data directory path    /home/rzk/projects/def-rzk/group/cp2k/cp2k-mcgill/
 CP2K| Input file name                                                 start.inp
 
 GLOBAL| Force Environment number                                              1
 GLOBAL| Basis set file name                                        BASIS_MOLOPT
 GLOBAL| Potential file name                                      GTH_POTENTIALS
 GLOBAL| MM Potential file name                                     MM_POTENTIAL
 GLOBAL| Coordinate file name                                      __STD_INPUT__
 GLOBAL| Method name                                                        CP2K
 GLOBAL| Project name                                                       TEST
 GLOBAL| Preferred FFT library                                             FFTW3
 GLOBAL| Preferred diagonalization lib.                                       SL
 GLOBAL| Run type                                                        GEO_OPT
 GLOBAL| All-to-all communication in single precision                          F
 GLOBAL| FFTs using library dependent lengths                                  F
 GLOBAL| Global print level                                               MEDIUM
 GLOBAL| MPI I/O enabled                                                       T
 GLOBAL| Total number of message passing processes                            80
 GLOBAL| Number of threads for this process                                    1
 GLOBAL| This output is from process                                           0
 GLOBAL| CPU model name :  Intel(R) Xeon(R) Gold 6148 CPU @ 2.40GHz

 MEMORY| system memory details [Kb]
 MEMORY|                        rank 0           min           max       average
 MEMORY| MemTotal            196614300     196614300     196614300     196614300
 MEMORY| MemFree             169097324     169097324     183501284     176250850
 MEMORY| Buffers                     0             0             0             0
 MEMORY| Cached                1437452       1420044       1437516       1427050
 MEMORY| Slab                  1983004       1778816       1983004       1880859
 MEMORY| SReclaimable           226888        226856        397296        312080
 MEMORY| MemLikelyFree       170761664     170761664     185318624     177989980


 *** Fundamental physical constants (SI units) ***

 *** Literature: B. J. Mohr and B. N. Taylor,
 ***             CODATA recommended values of the fundamental physical
 ***             constants: 2006, Web Version 5.1
 ***             http://physics.nist.gov/constants

 Speed of light in vacuum [m/s]                             2.99792458000000E+08
 Magnetic constant or permeability of vacuum [N/A**2]       1.25663706143592E-06
 Electric constant or permittivity of vacuum [F/m]          8.85418781762039E-12
 Planck constant (h) [J*s]                                  6.62606896000000E-34
 Planck constant (h-bar) [J*s]                              1.05457162825177E-34
 Elementary charge [C]                                      1.60217648700000E-19
 Electron mass [kg]                                         9.10938215000000E-31
 Electron g factor [ ]                                     -2.00231930436220E+00
 Proton mass [kg]                                           1.67262163700000E-27
 Fine-structure constant                                    7.29735253760000E-03
 Rydberg constant [1/m]                                     1.09737315685270E+07
 Avogadro constant [1/mol]                                  6.02214179000000E+23
 Boltzmann constant [J/K]                                   1.38065040000000E-23
 Atomic mass unit [kg]                                      1.66053878200000E-27
 Bohr radius [m]                                            5.29177208590000E-11

 *** Conversion factors ***

 [u] -> [a.u.]                                              1.82288848426455E+03
 [Angstrom] -> [Bohr] = [a.u.]                              1.88972613288564E+00
 [a.u.] = [Bohr] -> [Angstrom]                              5.29177208590000E-01
 [a.u.] -> [s]                                              2.41888432650478E-17
 [a.u.] -> [fs]                                             2.41888432650478E-02
 [a.u.] -> [J]                                              4.35974393937059E-18
 [a.u.] -> [N]                                              8.23872205491840E-08
 [a.u.] -> [K]                                              3.15774647902944E+05
 [a.u.] -> [kJ/mol]                                         2.62549961709828E+03
 [a.u.] -> [kcal/mol]                                       6.27509468713739E+02
 [a.u.] -> [Pa]                                             2.94210107994716E+13
 [a.u.] -> [bar]                                            2.94210107994716E+08
 [a.u.] -> [atm]                                            2.90362800883016E+08
 [a.u.] -> [eV]                                             2.72113838565563E+01
 [a.u.] -> [Hz]                                             6.57968392072181E+15
 [a.u.] -> [1/cm] (wave numbers)                            2.19474631370540E+05
 [a.u./Bohr**2] -> [1/cm]                                   5.14048714338585E+03
 

 CELL_TOP| Volume [angstrom^3]:                                         4586.323
 CELL_TOP| Vector a [angstrom    12.864     0.000     0.000    |a| =      12.864
 CELL_TOP| Vector b [angstrom    -6.432    11.141     0.000    |b| =      12.864
 CELL_TOP| Vector c [angstrom     0.000     0.000    32.000    |c| =      32.000
 CELL_TOP| Angle (b,c), alpha [degree]:                                   90.000
 CELL_TOP| Angle (a,c), beta  [degree]:                                   90.000
 CELL_TOP| Angle (a,b), gamma [degree]:                                  120.000
 CELL_TOP| Numerically orthorhombic:                                          NO
 
 GENERATE|  Preliminary Number of Bonds generated:                             0
 GENERATE|  Achieved consistency in connectivity generation.

 CELL| Volume [angstrom^3]:                                             4586.323
 CELL| Vector a [angstrom]:      12.864     0.000     0.000    |a| =      12.864
 CELL| Vector b [angstrom]:      -6.432    11.141     0.000    |b| =      12.864
 CELL| Vector c [angstrom]:       0.000     0.000    32.000    |c| =      32.000
 CELL| Angle (b,c), alpha [degree]:                                       90.000
 CELL| Angle (a,c), beta  [degree]:                                       90.000
 CELL| Angle (a,b), gamma [degree]:                                      120.000
 CELL| Numerically orthorhombic:                                              NO

 CELL_REF| Volume [angstrom^3]:                                         4670.759
 CELL_REF| Vector a [angstrom    12.982     0.000     0.000    |a| =      12.982
 CELL_REF| Vector b [angstrom    -6.491    11.243     0.000    |b| =      12.982
 CELL_REF| Vector c [angstrom     0.000     0.000    32.000    |c| =      32.000
 CELL_REF| Angle (b,c), alpha [degree]:                                   90.000
 CELL_REF| Angle (a,c), beta  [degree]:                                   90.000
 CELL_REF| Angle (a,b), gamma [degree]:                                  120.000
 CELL_REF| Numerically orthorhombic:                                          NO

 *******************************************************************************
 *******************************************************************************
 **                                                                           **
 **     #####                         ##              ##                      **
 **    ##   ##            ##          ##              ##                      **
 **   ##     ##                       ##            ######                    **
 **   ##     ##  ##   ##  ##   #####  ##  ##   ####   ##    #####    #####    **
 **   ##     ##  ##   ##  ##  ##      ## ##   ##      ##   ##   ##  ##   ##   **
 **   ##  ## ##  ##   ##  ##  ##      ####     ###    ##   ######   ######    **
 **    ##  ###   ##   ##  ##  ##      ## ##      ##   ##   ##       ##        **
 **     #######   #####   ##   #####  ##  ##  ####    ##    #####   ##        **
 **           ##                                                    ##        **
 **                                                                           **
 **                                                ... make the atoms dance   **
 **                                                                           **
 **            Copyright (C) by CP2K developers group (2000 - 2018)           **
 **                                                                           **
 *******************************************************************************

 DFT| Spin unrestricted (spin-polarized) Kohn-Sham calculation               UKS
 DFT| Multiplicity                                                             1
 DFT| Number of spin states                                                    2
 DFT| Charge                                                                   0
 DFT| Self-interaction correction (SIC)                                       NO
 DFT| Cutoffs: density                                              1.000000E-10
 DFT|          gradient                                             1.000000E-10
 DFT|          tau                                                  1.000000E-10
 DFT|          cutoff_smoothing_range                               0.000000E+00
 DFT| XC density smoothing                                                  NONE
 DFT| XC derivatives                                                          PW
 FUNCTIONAL| ROUTINE=NEW
 FUNCTIONAL| PBE:
 FUNCTIONAL| J.P.Perdew, K.Burke, M.Ernzerhof, Phys. Rev. Letter, vol. 77, n 18,
 FUNCTIONAL|  pp. 3865-3868, (1996){spin polarized}                             
 vdW POTENTIAL|                                                   Pair Potential
 vdW POTENTIAL|          DFT-D3 (Version 3.1)
 vdW POTENTIAL|          Potential Form: S. Grimme et al, JCP 132: 154104 (2010)
 vdW POTENTIAL|          Zero Damping
 vdW POTENTIAL|          Cutoff Radius [Bohr]:                             18.90
 vdW POTENTIAL|          s6 Scaling Factor:                               1.0000
 vdW POTENTIAL|          sr6 Scaling Factor:                              1.2170
 vdW POTENTIAL|          s8 Scaling Factor:                               0.7220
 vdW POTENTIAL|          Cutoff for CN calculation:                   0.1000E-05

 QS| Method:                                                                 GPW
 QS| Density plane wave grid type                        NON-SPHERICAL FULLSPACE
 QS| Number of grid levels:                                                    5
 QS| Density cutoff [a.u.]:                                                600.0
 QS| Multi grid cutoff [a.u.]: 1) grid level                               600.0
 QS|                           2) grid level                               200.0
 QS|                           3) grid level                                66.7
 QS|                           4) grid level                                22.2
 QS|                           5) grid level                                 7.4
 QS| Grid level progression factor:                                          3.0
 QS| Relative density cutoff [a.u.]:                                        20.0
 QS| Consistent realspace mapping and integration 
 QS| Interaction thresholds: eps_pgf_orb:                                1.0E-07
 QS|                         eps_filter_matrix:                          0.0E+00
 QS|                         eps_core_charge:                            1.0E-16
 QS|                         eps_rho_gspace:                             1.0E-14
 QS|                         eps_rho_rspace:                             1.0E-14
 QS|                         eps_gvg_rspace:                             1.0E-07
 QS|                         eps_ppl:                                    1.0E-02
 QS|                         eps_ppnl:                                   1.0E-09


 ATOMIC KIND INFORMATION

  1. Atomic kind: N                                     Number of atoms:     100

     Orbital Basis Set                                        DZVP-MOLOPT-SR-GTH

       Number of orbital shell sets:                                           1
       Number of orbital shells:                                               5
       Number of primitive Cartesian functions:                                5
       Number of Cartesian basis functions:                                   14
       Number of spherical basis functions:                                   13
       Norm type:                                                              2

       Normalised Cartesian orbitals:

                        Set   Shell   Orbital            Exponent    Coefficient

                          1       1    2s                7.341988       0.360561
                                                         2.542637       0.139177
                                                         0.888575      -0.289383
                                                         0.333802      -0.182244
                                                         0.112012      -0.019197

                          1       2    3s                7.341988       0.282000
                                                         2.542637       0.177875
                                                         0.888575      -0.278381
                                                         0.333802       0.008577
                                                         0.112012       0.154176

                          1       3    3px               7.341988      -1.188719
                                                         2.542637      -0.973969
                                                         0.888575      -0.501079
                                                         0.333802      -0.144894
                                                         0.112012      -0.013986
                          1       3    3py               7.341988      -1.188719
                                                         2.542637      -0.973969
                                                         0.888575      -0.501079
                                                         0.333802      -0.144894
                                                         0.112012      -0.013986
                          1       3    3pz               7.341988      -1.188719
                                                         2.542637      -0.973969
                                                         0.888575      -0.501079
                                                         0.333802      -0.144894
                                                         0.112012      -0.013986

                          1       4    4px               7.341988      -0.094798
                                                         2.542637       0.050069
                                                         0.888575      -0.114797
                                                         0.333802       0.144793
                                                         0.112012       0.066710
                          1       4    4py               7.341988      -0.094798
                                                         2.542637       0.050069
                                                         0.888575      -0.114797
                                                         0.333802       0.144793
                                                         0.112012       0.066710
                          1       4    4pz               7.341988      -0.094798
                                                         2.542637       0.050069
                                                         0.888575      -0.114797
                                                         0.333802       0.144793
                                                         0.112012       0.066710

                          1       5    4dx2              7.341988       1.354688
                                                         2.542637       0.690378
                                                         0.888575       0.855359
                                                         0.333802       0.091746
                                                         0.112012       0.001253
                          1       5    4dxy              7.341988       2.346389
                                                         2.542637       1.195770
                                                         0.888575       1.481524
                                                         0.333802       0.158910
                                                         0.112012       0.002169
                          1       5    4dxz              7.341988       2.346389
                                                         2.542637       1.195770
                                                         0.888575       1.481524
                                                         0.333802       0.158910
                                                         0.112012       0.002169
                          1       5    4dy2              7.341988       1.354688
                                                         2.542637       0.690378
                                                         0.888575       0.855359
                                                         0.333802       0.091746
                                                         0.112012       0.001253
                          1       5    4dyz              7.341988       2.346389
                                                         2.542637       1.195770
                                                         0.888575       1.481524
                                                         0.333802       0.158910
                                                         0.112012       0.002169
                          1       5    4dz2              7.341988       1.354688
                                                         2.542637       0.690378
                                                         0.888575       0.855359
                                                         0.333802       0.091746
                                                         0.112012       0.001253

     GTH Potential information for                                    GTH-PBE-q5

       Description:                       Goedecker-Teter-Hutter pseudopotential
                                           Goedecker et al., PRB 54, 1703 (1996)
                                          Hartwigsen et al., PRB 58, 3641 (1998)
                                                      Krack, TCA 114, 145 (2005)

       Gaussian exponent of the core charge distribution:               6.208322
       Electronic configuration (s p d ...):                               2   3

       Parameters of the local part of the GTH pseudopotential:

                          rloc        C1          C2          C3          C4
                        0.283791  -12.415226    1.868096

       Parameters of the non-local part of the GTH pseudopotential:

                   l      r(l)      h(i,j,l)

                   0    0.255405   13.630263
                   1    0.245495

  2. Atomic kind: Ga                                    Number of atoms:     100

     Orbital Basis Set                                        DZVP-MOLOPT-SR-GTH

       Number of orbital shell sets:                                           1
       Number of orbital shells:                                               7
       Number of primitive Cartesian functions:                                6
       Number of Cartesian basis functions:                                   30
       Number of spherical basis functions:                                   25
       Norm type:                                                              2

       Normalised Cartesian orbitals:

                        Set   Shell   Orbital            Exponent    Coefficient

                          1       1    2s                7.066654       0.013136
                                                         3.428369      -0.094392
                                                         1.430064       0.265435
                                                         0.571611       0.056465
                                                         0.232197      -0.192187
                                                         0.076562      -0.044987

                          1       2    3s                7.066654      -0.098564
                                                         3.428369       0.010390
                                                         1.430064       0.351249
                                                         0.571611       0.182615
                                                         0.232197      -0.425358
                                                         0.076562       0.190349

                          1       3    3px               7.066654       0.002364
                                                         3.428369       0.019222
                                                         1.430064       0.250132
                                                         0.571611      -0.058486
                                                         0.232197      -0.159451
                                                         0.076562      -0.020696
                          1       3    3py               7.066654       0.002364
                                                         3.428369       0.019222
                                                         1.430064       0.250132
                                                         0.571611      -0.058486
                                                         0.232197      -0.159451
                                                         0.076562      -0.020696
                          1       3    3pz               7.066654       0.002364
                                                         3.428369       0.019222
                                                         1.430064       0.250132
                                                         0.571611      -0.058486
                                                         0.232197      -0.159451
                                                         0.076562      -0.020696

                          1       4    4px               7.066654       0.492448
                                                         3.428369      -0.614736
                                                         1.430064      -0.191654
                                                         0.571611       0.037801
                                                         0.232197       0.302315
                                                         0.076562      -0.071336
                          1       4    4py               7.066654       0.492448
                                                         3.428369      -0.614736
                                                         1.430064      -0.191654
                                                         0.571611       0.037801
                                                         0.232197       0.302315
                                                         0.076562      -0.071336
                          1       4    4pz               7.066654       0.492448
                                                         3.428369      -0.614736
                                                         1.430064      -0.191654
                                                         0.571611       0.037801
                                                         0.232197       0.302315
                                                         0.076562      -0.071336

                          1       5    4dx2              7.066654     -15.264855
                                                         3.428369      -5.345726
                                                         1.430064      -1.022732
                                                         0.571611      -0.123148
                                                         0.232197      -0.006983
                                                         0.076562      -0.000022
                          1       5    4dxy              7.066654     -26.439504
                                                         3.428369      -9.259069
                                                         1.430064      -1.771423
                                                         0.571611      -0.213299
                                                         0.232197      -0.012094
                                                         0.076562      -0.000037
                          1       5    4dxz              7.066654     -26.439504
                                                         3.428369      -9.259069
                                                         1.430064      -1.771423
                                                         0.571611      -0.213299
                                                         0.232197      -0.012094
                                                         0.076562      -0.000037
                          1       5    4dy2              7.066654     -15.264855
                                                         3.428369      -5.345726
                                                         1.430064      -1.022732
                                                         0.571611      -0.123148
                                                         0.232197      -0.006983
                                                         0.076562      -0.000022
                          1       5    4dyz              7.066654     -26.439504
                                                         3.428369      -9.259069
                                                         1.430064      -1.771423
                                                         0.571611      -0.213299
                                                         0.232197      -0.012094
                                                         0.076562      -0.000037
                          1       5    4dz2              7.066654     -15.264855
                                                         3.428369      -5.345726
                                                         1.430064      -1.022732
                                                         0.571611      -0.123148
                                                         0.232197      -0.006983
                                                         0.076562      -0.000022

                          1       6    5dx2              7.066654      -5.739265
                                                         3.428369      -2.129289
                                                         1.430064      -0.700423
                                                         0.571611       0.161606
                                                         0.232197       0.043513
                                                         0.076562       0.011205
                          1       6    5dxy              7.066654      -9.940698
                                                         3.428369      -3.688037
                                                         1.430064      -1.213168
                                                         0.571611       0.279909
                                                         0.232197       0.075368
                                                         0.076562       0.019407
                          1       6    5dxz              7.066654      -9.940698
                                                         3.428369      -3.688037
                                                         1.430064      -1.213168
                                                         0.571611       0.279909
                                                         0.232197       0.075368
                                                         0.076562       0.019407
                          1       6    5dy2              7.066654      -5.739265
                                                         3.428369      -2.129289
                                                         1.430064      -0.700423
                                                         0.571611       0.161606
                                                         0.232197       0.043513
                                                         0.076562       0.011205
                          1       6    5dyz              7.066654      -9.940698
                                                         3.428369      -3.688037
                                                         1.430064      -1.213168
                                                         0.571611       0.279909
                                                         0.232197       0.075368
                                                         0.076562       0.019407
                          1       6    5dz2              7.066654      -5.739265
                                                         3.428369      -2.129289
                                                         1.430064      -0.700423
                                                         0.571611       0.161606
                                                         0.232197       0.043513
                                                         0.076562       0.011205

                          1       7    5fx3              7.066654       0.705879
                                                         3.428369      -0.273976
                                                         1.430064       0.113667
                                                         0.571611       0.132480
                                                         0.232197       0.012437
                                                         0.076562       0.003241
                          1       7    5fx2y             7.066654       1.578393
                                                         3.428369      -0.612629
                                                         1.430064       0.254167
                                                         0.571611       0.296234
                                                         0.232197       0.027811
                                                         0.076562       0.007246
                          1       7    5fx2z             7.066654       1.578393
                                                         3.428369      -0.612629
                                                         1.430064       0.254167
                                                         0.571611       0.296234
                                                         0.232197       0.027811
                                                         0.076562       0.007246
                          1       7    5fxy2             7.066654       1.578393
                                                         3.428369      -0.612629
                                                         1.430064       0.254167
                                                         0.571611       0.296234
                                                         0.232197       0.027811
                                                         0.076562       0.007246
                          1       7    5fxyz             7.066654       2.733856
                                                         3.428369      -1.061105
                                                         1.430064       0.440230
                                                         0.571611       0.513092
                                                         0.232197       0.048170
                                                         0.076562       0.012551
                          1       7    5fxz2             7.066654       1.578393
                                                         3.428369      -0.612629
                                                         1.430064       0.254167
                                                         0.571611       0.296234
                                                         0.232197       0.027811
                                                         0.076562       0.007246
                          1       7    5fy3              7.066654       0.705879
                                                         3.428369      -0.273976
                                                         1.430064       0.113667
                                                         0.571611       0.132480
                                                         0.232197       0.012437
                                                         0.076562       0.003241
                          1       7    5fy2z             7.066654       1.578393
                                                         3.428369      -0.612629
                                                         1.430064       0.254167
                                                         0.571611       0.296234
                                                         0.232197       0.027811
                                                         0.076562       0.007246
                          1       7    5fyz2             7.066654       1.578393
                                                         3.428369      -0.612629
                                                         1.430064       0.254167
                                                         0.571611       0.296234
                                                         0.232197       0.027811
                                                         0.076562       0.007246
                          1       7    5fz3              7.066654       0.705879
                                                         3.428369      -0.273976
                                                         1.430064       0.113667
                                                         0.571611       0.132480
                                                         0.232197       0.012437
                                                         0.076562       0.003241

     GTH Potential information for                                   GTH-PBE-q13

       Description:                       Goedecker-Teter-Hutter pseudopotential
                                           Goedecker et al., PRB 54, 1703 (1996)
                                          Hartwigsen et al., PRB 58, 3641 (1998)
                                                      Krack, TCA 114, 145 (2005)

       Gaussian exponent of the core charge distribution:               2.082466
       Electronic configuration (s p d ...):                           2   1  10

       Parameters of the local part of the GTH pseudopotential:

                          rloc        C1          C2          C3          C4
                        0.490000

       Parameters of the non-local part of the GTH pseudopotential:

                   l      r(l)      h(i,j,l)

                   0    0.416777   10.475690   -4.921768    0.870706
                                   -4.921768    7.770178   -2.248152
                                    0.870706   -2.248152    1.784415
                   1    0.569627    1.777985    0.195860
                                    0.195860   -0.231744
                   2    0.238126  -16.248680

  3. Atomic kind: O                                     Number of atoms:       1

     Orbital Basis Set                                     DZVP-MOLOPT-SR-GTH-q6

       Number of orbital shell sets:                                           1
       Number of orbital shells:                                               5
       Number of primitive Cartesian functions:                                5
       Number of Cartesian basis functions:                                   14
       Number of spherical basis functions:                                   13
       Norm type:                                                              2

       Normalised Cartesian orbitals:

                        Set   Shell   Orbital            Exponent    Coefficient

                          1       1    2s               10.389228       0.396646
                                                         3.849621       0.208811
                                                         1.388401      -0.301641
                                                         0.496955      -0.274061
                                                         0.162492      -0.033677

                          1       2    3s               10.389228       0.303673
                                                         3.849621       0.240943
                                                         1.388401      -0.313066
                                                         0.496955      -0.043055
                                                         0.162492       0.213991

                          1       3    3px              10.389228      -1.530415
                                                         3.849621      -1.371928
                                                         1.388401      -0.761951
                                                         0.496955      -0.253695
                                                         0.162492      -0.035541
                          1       3    3py              10.389228      -1.530415
                                                         3.849621      -1.371928
                                                         1.388401      -0.761951
                                                         0.496955      -0.253695
                                                         0.162492      -0.035541
                          1       3    3pz              10.389228      -1.530415
                                                         3.849621      -1.371928
                                                         1.388401      -0.761951
                                                         0.496955      -0.253695
                                                         0.162492      -0.035541

                          1       4    4px              10.389228      -0.565392
                                                         3.849621      -0.038231
                                                         1.388401      -0.382373
                                                         0.496955       0.179070
                                                         0.162492       0.122714
                          1       4    4py              10.389228      -0.565392
                                                         3.849621      -0.038231
                                                         1.388401      -0.382373
                                                         0.496955       0.179070
                                                         0.162492       0.122714
                          1       4    4pz              10.389228      -0.565392
                                                         3.849621      -0.038231
                                                         1.388401      -0.382373
                                                         0.496955       0.179070
                                                         0.162492       0.122714

                          1       5    4dx2             10.389228       1.867377
                                                         3.849621       0.670994
                                                         1.388401       1.353441
                                                         0.496955       0.273538
                                                         0.162492       0.006620
                          1       5    4dxy             10.389228       3.234392
                                                         3.849621       1.162195
                                                         1.388401       2.344229
                                                         0.496955       0.473781
                                                         0.162492       0.011466
                          1       5    4dxz             10.389228       3.234392
                                                         3.849621       1.162195
                                                         1.388401       2.344229
                                                         0.496955       0.473781
                                                         0.162492       0.011466
                          1       5    4dy2             10.389228       1.867377
                                                         3.849621       0.670994
                                                         1.388401       1.353441
                                                         0.496955       0.273538
                                                         0.162492       0.006620
                          1       5    4dyz             10.389228       3.234392
                                                         3.849621       1.162195
                                                         1.388401       2.344229
                                                         0.496955       0.473781
                                                         0.162492       0.011466
                          1       5    4dz2             10.389228       1.867377
                                                         3.849621       0.670994
                                                         1.388401       1.353441
                                                         0.496955       0.273538
                                                         0.162492       0.006620

     GTH Potential information for                                    GTH-PBE-q6

       Description:                       Goedecker-Teter-Hutter pseudopotential
                                           Goedecker et al., PRB 54, 1703 (1996)
                                          Hartwigsen et al., PRB 58, 3641 (1998)
                                                      Krack, TCA 114, 145 (2005)

       Gaussian exponent of the core charge distribution:               8.360253
       Electronic configuration (s p d ...):                               2   4

       Parameters of the local part of the GTH pseudopotential:

                          rloc        C1          C2          C3          C4
                        0.244554  -16.667215    2.487311

       Parameters of the non-local part of the GTH pseudopotential:

                   l      r(l)      h(i,j,l)

                   0    0.220956   18.337458
                   1    0.211332

  4. Atomic kind: C                                     Number of atoms:       2

     Orbital Basis Set                                     DZVP-MOLOPT-SR-GTH-q4

       Number of orbital shell sets:                                           1
       Number of orbital shells:                                               5
       Number of primitive Cartesian functions:                                5
       Number of Cartesian basis functions:                                   14
       Number of spherical basis functions:                                   13
       Norm type:                                                              2

       Normalised Cartesian orbitals:

                        Set   Shell   Orbital            Exponent    Coefficient

                          1       1    2s                5.605331       0.322515
                                                         2.113016       0.213043
                                                         0.769911      -0.209686
                                                         0.348157      -0.219794
                                                         0.128212      -0.022789

                          1       2    3s                5.605331       0.552234
                                                         2.113016       0.082072
                                                         0.769911       0.007843
                                                         0.348157       0.136893
                                                         0.128212       0.074283

                          1       3    3px               5.605331      -0.703879
                                                         2.113016      -0.642521
                                                         0.769911      -0.374851
                                                         0.348157      -0.139743
                                                         0.128212      -0.027849
                          1       3    3py               5.605331      -0.703879
                                                         2.113016      -0.642521
                                                         0.769911      -0.374851
                                                         0.348157      -0.139743
                                                         0.128212      -0.027849
                          1       3    3pz               5.605331      -0.703879
                                                         2.113016      -0.642521
                                                         0.769911      -0.374851
                                                         0.348157      -0.139743
                                                         0.128212      -0.027849

                          1       4    4px               5.605331      -0.480376
                                                         2.113016      -0.552894
                                                         0.769911      -0.316145
                                                         0.348157       0.210505
                                                         0.128212       0.076095
                          1       4    4py               5.605331      -0.480376
                                                         2.113016      -0.552894
                                                         0.769911      -0.316145
                                                         0.348157       0.210505
                                                         0.128212       0.076095
                          1       4    4pz               5.605331      -0.480376
                                                         2.113016      -0.552894
                                                         0.769911      -0.316145
                                                         0.348157       0.210505
                                                         0.128212       0.076095

                          1       5    4dx2              5.605331       0.640026
                                                         2.113016       0.274300
                                                         0.769911       0.446711
                                                         0.348157       0.028674
                                                         0.128212       0.029790
                          1       5    4dxy              5.605331       1.108557
                                                         2.113016       0.475102
                                                         0.769911       0.773726
                                                         0.348157       0.049666
                                                         0.128212       0.051599
                          1       5    4dxz              5.605331       1.108557
                                                         2.113016       0.475102
                                                         0.769911       0.773726
                                                         0.348157       0.049666
                                                         0.128212       0.051599
                          1       5    4dy2              5.605331       0.640026
                                                         2.113016       0.274300
                                                         0.769911       0.446711
                                                         0.348157       0.028674
                                                         0.128212       0.029790
                          1       5    4dyz              5.605331       1.108557
                                                         2.113016       0.475102
                                                         0.769911       0.773726
                                                         0.348157       0.049666
                                                         0.128212       0.051599
                          1       5    4dz2              5.605331       0.640026
                                                         2.113016       0.274300
                                                         0.769911       0.446711
                                                         0.348157       0.028674
                                                         0.128212       0.029790

     GTH Potential information for                                    GTH-PBE-q4

       Description:                       Goedecker-Teter-Hutter pseudopotential
                                           Goedecker et al., PRB 54, 1703 (1996)
                                          Hartwigsen et al., PRB 58, 3641 (1998)
                                                      Krack, TCA 114, 145 (2005)

       Gaussian exponent of the core charge distribution:               4.364419
       Electronic configuration (s p d ...):                               2   2

       Parameters of the local part of the GTH pseudopotential:

                          rloc        C1          C2          C3          C4
                        0.338471   -8.803674    1.339211

       Parameters of the non-local part of the GTH pseudopotential:

                   l      r(l)      h(i,j,l)

                   0    0.302576    9.622487
                   1    0.291507

  5. Atomic kind: H                                     Number of atoms:       6

     Orbital Basis Set                                     DZVP-MOLOPT-SR-GTH-q1

       Number of orbital shell sets:                                           1
       Number of orbital shells:                                               3
       Number of primitive Cartesian functions:                                5
       Number of Cartesian basis functions:                                    5
       Number of spherical basis functions:                                    5
       Norm type:                                                              2

       Normalised Cartesian orbitals:

                        Set   Shell   Orbital            Exponent    Coefficient

                          1       1    2s               10.068468      -0.133023
                                                         2.680223      -0.177618
                                                         0.791502      -0.258419
                                                         0.239116      -0.107525
                                                         0.082193      -0.014019

                          1       2    3s               10.068468       0.344673
                                                         2.680223       1.819821
                                                         0.791502      -0.999069
                                                         0.239116       0.017430
                                                         0.082193       0.082660

                          1       3    3px              10.068468       0.155326
                                                         2.680223       0.367157
                                                         0.791502       0.311480
                                                         0.239116       0.080105
                                                         0.082193       0.033440
                          1       3    3py              10.068468       0.155326
                                                         2.680223       0.367157
                                                         0.791502       0.311480
                                                         0.239116       0.080105
                                                         0.082193       0.033440
                          1       3    3pz              10.068468       0.155326
                                                         2.680223       0.367157
                                                         0.791502       0.311480
                                                         0.239116       0.080105
                                                         0.082193       0.033440

     GTH Potential information for                                    GTH-PBE-q1

       Description:                       Goedecker-Teter-Hutter pseudopotential
                                           Goedecker et al., PRB 54, 1703 (1996)
                                          Hartwigsen et al., PRB 58, 3641 (1998)
                                                      Krack, TCA 114, 145 (2005)

       Gaussian exponent of the core charge distribution:              12.500000
       Electronic configuration (s p d ...):                                   1

       Parameters of the local part of the GTH pseudopotential:

                          rloc        C1          C2          C3          C4
                        0.200000   -4.178900    0.724463


 MOLECULE KIND INFORMATION


 All atoms are their own molecule, skipping detailed information


 TOTAL NUMBERS AND MAXIMUM NUMBERS

  Total number of            - Atomic kinds:                                   5
                             - Atoms:                                        209
                             - Shell sets:                                   209
                             - Shells:                                      1233
                             - Primitive Cartesian functions:               1145
                             - Cartesian basis functions:                   4472
                             - Spherical basis functions:                   3869

  Maximum angular momentum of- Orbital basis functions:                        3
                             - Local part of the GTH pseudopotential:          2
                             - Non-local part of the GTH pseudopotential:      4


 MODULE QUICKSTEP:  ATOMIC COORDINATES IN angstrom

  Atom  Kind  Element       X           Y           Z          Z(eff)       Mass

       1     1 N    7    0.075319    1.991274    2.501000      5.00      14.0067
       2     2 Ga  31    0.052256    0.007222    2.824266     13.00      69.7230
       3     1 N    7    0.083337   -0.017389    5.012468      5.00      14.0067
       4     2 Ga  31    0.077473    1.800878    5.799814     13.00      69.7230
       5     1 N    7    0.077404    1.822361    7.799678      5.00      14.0067
       6     2 Ga  31    0.072986   -0.025151    8.439502     13.00      69.7230
       7     1 N    7    0.076193   -0.024667   10.417053      5.00      14.0067
       8     2 Ga  31    0.078098    1.813414   11.071025     13.00      69.7230
       9     1 N    7    0.077684    1.795218   13.065907      5.00      14.0067
      10     2 Ga  31    0.077083   -0.024674   13.867068     13.00      69.7230
      11     1 N    7    0.076299   -0.023094   16.070953      5.00      14.0067
      12     2 Ga  31    0.076445    2.020611   16.481000     13.00      69.7230
      13     2 Ga  31    0.065947    3.720149    1.395370     13.00      69.7230
      14     1 N    7   -1.402522    4.557552    2.539464      5.00      14.0067
      15     2 Ga  31   -1.594771    2.737101    3.303394     13.00      69.7230
      16     1 N    7   -1.540358    2.757339    5.257269      5.00      14.0067
      17     2 Ga  31   -1.560249    4.627640    5.841553     13.00      69.7230
      18     1 N    7   -1.536144    4.619409    7.826808      5.00      14.0067
      19     2 Ga  31   -1.522389    2.759510    8.446471     13.00      69.7230
      20     1 N    7   -1.519219    2.765454   10.439210      5.00      14.0067
      21     2 Ga  31   -1.548195    4.624911   11.074085     13.00      69.7230
      22     1 N    7   -1.563376    4.635711   13.068770      5.00      14.0067
      23     2 Ga  31   -1.520105    2.765988   13.621240     13.00      69.7230
      24     1 N    7   -1.546238    2.749993   15.584257      5.00      14.0067
      25     2 Ga  31   -1.375096    4.526898   16.480082     13.00      69.7230
      26     1 N    7    0.076363    3.697398   17.613521      5.00      14.0067
      27     1 N    7   -3.124187    7.527871    2.563052      5.00      14.0067
      28     2 Ga  31   -3.112785    5.519627    2.925836     13.00      69.7230
      29     1 N    7   -3.110157    5.562858    5.081966      5.00      14.0067
      30     2 Ga  31   -3.145086    7.371493    5.837858     13.00      69.7230
      31     1 N    7   -3.138922    7.396983    7.823088      5.00      14.0067
      32     2 Ga  31   -3.147336    5.542244    8.447204     13.00      69.7230
      33     1 N    7   -3.140907    5.545012   10.423175      5.00      14.0067
      34     2 Ga  31   -3.144698    7.384632   11.071808     13.00      69.7230
      35     1 N    7   -3.140920    7.366161   13.066582      5.00      14.0067
      36     2 Ga  31   -3.140856    5.546063   13.867078     13.00      69.7230
      37     1 N    7   -3.140242    5.547418   16.071134      5.00      14.0067
      38     2 Ga  31   -3.140219    7.591406   16.481136     13.00      69.7230
      39     2 Ga  31   -3.133296    9.239791    1.538496     13.00      69.7230
      40     1 N    7   -4.644958   10.128415    2.515360      5.00      14.0067
      41     2 Ga  31   -4.862859    8.269898    3.293049     13.00      69.7230
      42     1 N    7   -4.744665    8.329751    5.253387      5.00      14.0067
      43     2 Ga  31   -4.780321   10.203266    5.801653     13.00      69.7230
      44     1 N    7   -4.757997   10.194119    7.798610      5.00      14.0067
      45     2 Ga  31   -4.749592    8.334392    8.431363     13.00      69.7230
      46     1 N    7   -4.740075    8.337846   10.428858      5.00      14.0067
      47     2 Ga  31   -4.764367   10.195987   11.069039     13.00      69.7230
      48     1 N    7   -4.779185   10.205923   13.064985      5.00      14.0067
      49     2 Ga  31   -4.737702    8.336915   13.620962     13.00      69.7230
      50     1 N    7   -4.762998    8.321288   15.583956      5.00      14.0067
      51     2 Ga  31   -4.591668   10.097968   16.480331     13.00      69.7230
      52     1 N    7   -3.140668    9.268863   17.614659      5.00      14.0067
      53     1 N    7    3.286636    1.845175    2.597170      5.00      14.0067
      54     2 Ga  31    3.267784    0.084120    3.291889     13.00      69.7230
      55     1 N    7    3.293619   -0.024907    5.254966      5.00      14.0067
      56     2 Ga  31    3.298287    1.842654    5.863118     13.00      69.7230
      57     1 N    7    3.298212    1.833647    7.841128      5.00      14.0067
      58     2 Ga  31    3.287542   -0.031452    8.445276     13.00      69.7230
      59     1 N    7    3.291068   -0.034711   10.437764      5.00      14.0067
      60     2 Ga  31    3.294998    1.834841   11.028444     13.00      69.7230
      61     1 N    7    3.293872    1.833044   13.000901      5.00      14.0067
      62     2 Ga  31    3.292217   -0.036897   13.622033     13.00      69.7230
      63     1 N    7    3.291825   -0.005290   15.586051      5.00      14.0067
      64     2 Ga  31    3.293320    1.832847   15.862913     13.00      69.7230
      65     1 N    7    1.555430    4.563849    2.551144      5.00      14.0067
      66     2 Ga  31    1.767999    2.732316    3.287628     13.00      69.7230
      67     1 N    7    1.688131    2.761798    5.259020      5.00      14.0067
      68     2 Ga  31    1.711176    4.622093    5.834226     13.00      69.7230
      69     1 N    7    1.695616    4.622464    7.818153      5.00      14.0067
      70     2 Ga  31    1.678168    2.761029    8.440125     13.00      69.7230
      71     1 N    7    1.675408    2.765533   10.434021      5.00      14.0067
      72     2 Ga  31    1.705335    4.624809   11.071573     13.00      69.7230
      73     1 N    7    1.718877    4.635513   13.066733      5.00      14.0067
      74     2 Ga  31    1.674395    2.766519   13.622137     13.00      69.7230
      75     1 N    7    1.699840    2.750053   15.584849      5.00      14.0067
      76     2 Ga  31    1.528050    4.526905   16.480555     13.00      69.7230
      77     1 N    7    0.083489    7.396151    2.733986      5.00      14.0067
      78     2 Ga  31    0.063914    5.555587    3.369770     13.00      69.7230
      79     1 N    7    0.078759    5.559941    5.301995      5.00      14.0067
      80     2 Ga  31    0.085956    7.404838    5.934078     13.00      69.7230
      81     1 N    7    0.078687    7.405129    7.889798      5.00      14.0067
      82     2 Ga  31    0.079209    5.531318    8.463071     13.00      69.7230
      83     1 N    7    0.078726    5.533404   10.450130      5.00      14.0067
      84     2 Ga  31    0.079100    7.403684   11.038773     13.00      69.7230
      85     1 N    7    0.077628    7.403162   13.009058      5.00      14.0067
      86     2 Ga  31    0.077833    5.531341   13.623066     13.00      69.7230
      87     1 N    7    0.076898    5.564565   15.587004      5.00      14.0067
      88     2 Ga  31    0.076988    7.403183   15.861237     13.00      69.7230
      89     1 N    7   -1.640719   10.106781    2.556940      5.00      14.0067
      90     2 Ga  31   -1.492826    8.305084    3.375965     13.00      69.7230
      91     1 N    7   -1.518745    8.323716    5.297689      5.00      14.0067
      92     2 Ga  31   -1.509611   10.204973    5.844023     13.00      69.7230
      93     1 N    7   -1.527642   10.190514    7.827930      5.00      14.0067
      94     2 Ga  31   -1.545108    8.338010    8.467536     13.00      69.7230
      95     1 N    7   -1.542327    8.337678   10.452964      5.00      14.0067
      96     2 Ga  31   -1.516492   10.200579   11.075061     13.00      69.7230
      97     1 N    7   -1.499519   10.207693   13.069226      5.00      14.0067
      98     2 Ga  31   -1.544103    8.337899   13.622642     13.00      69.7230
      99     1 N    7   -1.516965    8.320822   15.585657      5.00      14.0067
     100     2 Ga  31   -1.688749   10.098012   16.480295     13.00      69.7230
     101     1 N    7    6.556435    1.816186    2.540294      5.00      14.0067
     102     2 Ga  31    6.546567   -0.052978    2.928598     13.00      69.7230
     103     1 N    7    6.503867   -0.057965    5.094553      5.00      14.0067
     104     2 Ga  31    6.521285    1.798302    5.796204     13.00      69.7230
     105     1 N    7    6.507060    1.821431    7.796855      5.00      14.0067
     106     2 Ga  31    6.512121   -0.021807    8.449468     13.00      69.7230
     107     1 N    7    6.510509   -0.023865   10.424378      5.00      14.0067
     108     2 Ga  31    6.510375    1.818461   11.065933     13.00      69.7230
     109     1 N    7    6.509221    1.796655   13.062277      5.00      14.0067
     110     2 Ga  31    6.509572   -0.022391   13.867864     13.00      69.7230
     111     1 N    7    6.509015   -0.022351   16.071347      5.00      14.0067
     112     2 Ga  31    6.508886    2.022336   16.481851     13.00      69.7230
     113     1 N    7    4.874089    4.852103    2.315152      5.00      14.0067
     114     2 Ga  31    4.935512    2.417691    3.234376     13.00      69.7230
     115     1 N    7    4.908553    2.755175    5.187469      5.00      14.0067
     116     2 Ga  31    4.901291    4.627802    5.749623     13.00      69.7230
     117     1 N    7    4.895962    4.619649    7.762667      5.00      14.0067
     118     2 Ga  31    4.913475    2.770131    8.430013     13.00      69.7230
     119     1 N    7    4.912026    2.769279   10.427127      5.00      14.0067
     120     2 Ga  31    4.889610    4.626589   11.067619     13.00      69.7230
     121     1 N    7    4.870725    4.635581   13.063281      5.00      14.0067
     122     2 Ga  31    4.913337    2.767008   13.620838     13.00      69.7230
     123     1 N    7    4.885993    2.750436   15.583151      5.00      14.0067
     124     2 Ga  31    5.058437    4.526772   16.480696     13.00      69.7230
     125     1 N    7    6.508620    3.698506   17.614876      5.00      14.0067
     126     1 N    7    3.266186    7.545424    2.545054      5.00      14.0067
     127     1 N    7    3.279373    5.551402    5.052660      5.00      14.0067
     128     2 Ga  31    3.302871    7.386288    5.812307     13.00      69.7230
     129     1 N    7    3.293640    7.393090    7.802821      5.00      14.0067
     130     2 Ga  31    3.305471    5.542868    8.438569     13.00      69.7230
     131     1 N    7    3.297598    5.545280   10.415593      5.00      14.0067
     132     2 Ga  31    3.300255    7.384943   11.068017     13.00      69.7230
     133     1 N    7    3.295310    7.365701   13.063536      5.00      14.0067
     134     2 Ga  31    3.295194    5.546262   13.866988     13.00      69.7230
     135     1 N    7    3.293409    5.547699   16.071035      5.00      14.0067
     136     2 Ga  31    3.293324    7.592439   16.482251     13.00      69.7230
     137     2 Ga  31    3.302778    9.254200    1.265233     13.00      69.7230
     138     1 N    7    1.784271   10.125306    2.519061      5.00      14.0067
     139     2 Ga  31    1.675056    8.356573    3.324810     13.00      69.7230
     140     1 N    7    1.672965    8.326322    5.271277      5.00      14.0067
     141     2 Ga  31    1.668850   10.206877    5.824476     13.00      69.7230
     142     1 N    7    1.684290   10.191434    7.816046      5.00      14.0067
     143     2 Ga  31    1.703533    8.339040    8.459337     13.00      69.7230
     144     1 N    7    1.699066    8.337792   10.446886      5.00      14.0067
     145     2 Ga  31    1.672604   10.199690   11.074074     13.00      69.7230
     146     1 N    7    1.653932   10.207053   13.068405      5.00      14.0067
     147     2 Ga  31    1.698990    8.337522   13.622417     13.00      69.7230
     148     1 N    7    1.670648    8.320733   15.584885      5.00      14.0067
     149     2 Ga  31    1.842398   10.097557   16.480960     13.00      69.7230
     150     1 N    7    3.293434    9.269089   17.615488      5.00      14.0067
     151     1 N    7    9.693765    1.876630    2.586746      5.00      14.0067
     152     2 Ga  31    9.713418    0.055608    3.244028     13.00      69.7230
     153     1 N    7    9.721007   -0.009405    5.219400      5.00      14.0067
     154     2 Ga  31    9.713769    1.835444    5.870703     13.00      69.7230
     155     1 N    7    9.724801    1.831476    7.849973      5.00      14.0067
     156     2 Ga  31    9.732671   -0.033411    8.442223     13.00      69.7230
     157     1 N    7    9.728228   -0.036144   10.436414      5.00      14.0067
     158     2 Ga  31    9.723873    1.834023   11.026979     13.00      69.7230
     159     1 N    7    9.724469    1.832815   13.000355      5.00      14.0067
     160     2 Ga  31    9.726499   -0.036942   13.621573     13.00      69.7230
     161     1 N    7    9.725816   -0.005261   15.585528      5.00      14.0067
     162     2 Ga  31    9.724702    1.832877   15.862467     13.00      69.7230
     163     1 N    7    8.154466    4.563399    2.512284      5.00      14.0067
     164     2 Ga  31    8.060795    2.786542    3.256238     13.00      69.7230
     165     1 N    7    8.121302    2.756245    5.244262      5.00      14.0067
     166     2 Ga  31    8.135191    4.635536    5.762533     13.00      69.7230
     167     1 N    7    8.123441    4.626431    7.779822      5.00      14.0067
     168     2 Ga  31    8.106411    2.771845    8.426214     13.00      69.7230
     169     1 N    7    8.106802    2.768645   10.426498      5.00      14.0067
     170     2 Ga  31    8.128730    4.625864   11.066483     13.00      69.7230
     171     1 N    7    8.147573    4.635829   13.063107      5.00      14.0067
     172     2 Ga  31    8.105256    2.767408   13.620432     13.00      69.7230
     173     1 N    7    8.131860    2.750595   15.583102      5.00      14.0067
     174     2 Ga  31    7.958816    4.526609   16.480850     13.00      69.7230
     175     1 N    7    6.503618    7.409172    2.586275      5.00      14.0067
     176     2 Ga  31    6.660059    5.602639    3.091127     13.00      69.7230
     177     1 N    7    6.508941    5.532589    5.134996      5.00      14.0067
     178     2 Ga  31    6.498774    7.373685    5.820324     13.00      69.7230
     179     1 N    7    6.507832    7.394376    7.815493      5.00      14.0067
     180     2 Ga  31    6.508946    5.533355    8.420956     13.00      69.7230
     181     1 N    7    6.508039    5.534248   10.421875      5.00      14.0067
     182     2 Ga  31    6.507882    7.402111   11.022682     13.00      69.7230
     183     1 N    7    6.508613    7.402343   12.996687      5.00      14.0067
     184     2 Ga  31    6.509391    5.533386   13.620754     13.00      69.7230
     185     1 N    7    6.508940    5.565314   15.584359      5.00      14.0067
     186     2 Ga  31    6.508944    7.402812   15.863409     13.00      69.7230
     187     1 N    7    4.795176   10.146574    2.507813      5.00      14.0067
     188     2 Ga  31    4.976406    8.288494    3.241980     13.00      69.7230
     189     1 N    7    4.899978    8.333317    5.229200      5.00      14.0067
     190     2 Ga  31    4.926234   10.207078    5.771055     13.00      69.7230
     191     1 N    7    4.909570   10.195540    7.781132      5.00      14.0067
     192     2 Ga  31    4.900389    8.337652    8.420568     13.00      69.7230
     193     1 N    7    4.893426    8.338674   10.421451      5.00      14.0067
     194     2 Ga  31    4.917688   10.195004   11.068639     13.00      69.7230
     195     1 N    7    4.933382   10.205431   13.064586      5.00      14.0067
     196     2 Ga  31    4.891043    8.336885   13.621412     13.00      69.7230
     197     1 N    7    4.916369    8.320992   15.583866      5.00      14.0067
     198     2 Ga  31    4.743476   10.097323   16.481186     13.00      69.7230
     199     3 O    8   -0.005829    4.091752   -0.408887      6.00      15.9994
     200     4 C    6    1.065045    3.601851   -1.233628      4.00      12.0107
     201     5 H    1    2.044779    4.000036   -0.919867      1.00       1.0079
     202     5 H    1    1.118594    2.502332   -1.221594      1.00       1.0079
     203     5 H    1    0.872038    3.928269   -2.265767      1.00       1.0079
     204     2 Ga  31    3.137220    5.640999    2.996328     13.00      69.7230
     205     5 H    1    0.047588    7.342312    1.697340      1.00       1.0079
     206     2 Ga  31    9.200756    2.466651    0.673633     13.00      69.7230
     207     4 C    6    4.925401    4.343908    1.131634      4.00      12.0107
     208     5 H    1    5.887586    4.047490    0.690095      1.00       1.0079
     209     5 H    1    4.015054    4.161235    0.543160      1.00       1.0079




 SCF PARAMETERS         Density guess:                                    ATOMIC
                        --------------------------------------------------------
                        max_scf:                                              80
                        max_scf_history:                                       0
                        max_diis:                                              4
                        --------------------------------------------------------
                        eps_scf:                                        5.00E-06
                        eps_scf_history:                                0.00E+00
                        eps_diis:                                       1.00E-01
                        eps_eigval:                                     1.00E-05
                        --------------------------------------------------------
                        level_shift [a.u.]:                                 0.00
                        --------------------------------------------------------
                        Outer loop SCF in use 
                        No variables optimised in outer loop
                        eps_scf                                         5.00E-06
                        max_scf                                                4
                        No outer loop optimization
                        step_size                                       5.00E-01

 PW_GRID| Information for grid number                                          1
 PW_GRID| Grid distributed over                                    80 processors
 PW_GRID| Real space group dimensions                                    80    1
 PW_GRID| the grid is blocked:                                                NO
 PW_GRID| Cutoff [a.u.]                                                    600.0
 PW_GRID| spherical cutoff:                                                   NO
 PW_GRID|   Bounds   1           -144     143                Points:         288
 PW_GRID|   Bounds   2           -144     143                Points:         288
 PW_GRID|   Bounds   3           -337     337                Points:         675
 PW_GRID| Volume element (a.u.^3)  0.5630E-03     Volume (a.u.^3)     31519.8467
 PW_GRID| Grid span                                                    FULLSPACE
 PW_GRID|   Distribution                         Average         Max         Min
 PW_GRID|   G-Vectors                           699840.0      699840      699840
 PW_GRID|   G-Rays                                2430.0        2430        2430
 PW_GRID|   Real Space Points                   699840.0      777600      583200

 PW_GRID| Information for grid number                                          2
 PW_GRID| Grid distributed over                                    80 processors
 PW_GRID| Real space group dimensions                                    80    1
 PW_GRID| the grid is blocked:                                                NO
 PW_GRID| Cutoff [a.u.]                                                    200.0
 PW_GRID| spherical cutoff:                                                   NO
 PW_GRID|   Bounds   1            -80      79                Points:         160
 PW_GRID|   Bounds   2            -80      79                Points:         160
 PW_GRID|   Bounds   3           -200     199                Points:         400
 PW_GRID| Volume element (a.u.^3)  0.3078E-02     Volume (a.u.^3)     31519.8467
 PW_GRID| Grid span                                                    FULLSPACE
 PW_GRID|   Distribution                         Average         Max         Min
 PW_GRID|   G-Vectors                           128000.0      128160      127840
 PW_GRID|   G-Rays                                 800.0         801         799
 PW_GRID|   Real Space Points                   128000.0      128000      128000

 PW_GRID| Information for grid number                                          3
 PW_GRID| Grid distributed over                                    80 processors
 PW_GRID| Real space group dimensions                                    80    1
 PW_GRID| the grid is blocked:                                                NO
 PW_GRID| Cutoff [a.u.]                                                     66.7
 PW_GRID| spherical cutoff:                                                   NO
 PW_GRID|   Bounds   1            -48      47                Points:          96
 PW_GRID|   Bounds   2            -48      47                Points:          96
 PW_GRID|   Bounds   3           -112     112                Points:         225
 PW_GRID| Volume element (a.u.^3)  0.1520E-01     Volume (a.u.^3)     31519.8467
 PW_GRID| Grid span                                                    FULLSPACE
 PW_GRID|   Distribution                         Average         Max         Min
 PW_GRID|   G-Vectors                            25920.0       26688       24864
 PW_GRID|   G-Rays                                 270.0         278         259
 PW_GRID|   Real Space Points                    25920.0       43200       21600

 PW_GRID| Information for grid number                                          4
 PW_GRID| Grid distributed over                                    80 processors
 PW_GRID| Real space group dimensions                                     8   10
 PW_GRID| the grid is blocked:                                                NO
[...]
 flops   238 x    32 x    32         347971993600     100.0%      0.0%      0.0%
 flops   950 x    32 x   166         357931059200     100.0%      0.0%      0.0%
 flops   963 x    32 x   166         362829063168     100.0%      0.0%      0.0%
 flops   973 x    32 x   166         366596758528     100.0%      0.0%      0.0%
 flops    25 x    32 x     5         367566976000     100.0%      0.0%      0.0%
 flops     5 x    32 x    25         367566976000     100.0%      0.0%      0.0%
 flops   983 x    32 x   166         370364453888     100.0%      0.0%      0.0%
 flops   950 x    32 x   183         394586649600     100.0%      0.0%      0.0%
 flops   963 x    32 x   183         399986256384     100.0%      0.0%      0.0%
 flops   973 x    32 x   183         404139800064     100.0%      0.0%      0.0%
 flops   983 x    32 x   183         408293343744     100.0%      0.0%      0.0%
 flops    25 x    25 x    46         444273750000     100.0%      0.0%      0.0%
 flops   238 x    64 x   178         473977921536     100.0%      0.0%      0.0%
 flops   238 x    64 x    32         506141081600     100.0%      0.0%      0.0%
 flops   238 x    32 x    64         506141081600     100.0%      0.0%      0.0%
 flops    25 x    14 x    25         519400000000     100.0%      0.0%      0.0%
 flops   950 x    64 x   166         520626995200     100.0%      0.0%      0.0%
 flops   963 x    64 x   166         527751364608     100.0%      0.0%      0.0%
 flops   973 x    64 x   166         533231648768     100.0%      0.0%      0.0%
 flops   983 x    64 x   166         538711932928     100.0%      0.0%      0.0%
 flops   224 x    32 x   166         572031516672     100.0%      0.0%      0.0%
 flops   950 x    64 x   183         573944217600     100.0%      0.0%      0.0%
 flops   950 x    32 x   178         575708390400     100.0%      0.0%      0.0%
 flops   963 x    64 x   183         581798191104     100.0%      0.0%      0.0%
 flops   963 x    32 x   178         583586505216     100.0%      0.0%      0.0%
 flops   973 x    64 x   183         587839709184     100.0%      0.0%      0.0%
 flops   973 x    32 x   178         589646593536     100.0%      0.0%      0.0%
 flops   983 x    64 x   183         593881227264     100.0%      0.0%      0.0%
 flops   983 x    32 x   178         595706681856     100.0%      0.0%      0.0%
 flops   224 x    32 x   183         630613057536     100.0%      0.0%      0.0%
 flops   238 x    64 x    64         736205209600     100.0%      0.0%      0.0%
 flops   224 x    64 x   166         832045842432     100.0%      0.0%      0.0%
 flops   950 x    64 x   178         837394022400     100.0%      0.0%      0.0%
 flops   963 x    64 x   178         848853098496     100.0%      0.0%      0.0%
 flops   973 x    64 x   178         857667772416     100.0%      0.0%      0.0%
 flops   983 x    64 x   178         866482446336     100.0%      0.0%      0.0%
 flops    13 x    13 x    32         884653900416     100.0%      0.0%      0.0%
 flops   224 x    64 x   183         917255356416     100.0%      0.0%      0.0%
 flops   224 x    32 x   178         920074788864     100.0%      0.0%      0.0%
 flops   224 x    32 x    32         982509158400     100.0%      0.0%      0.0%
 flops   950 x    32 x    32        1163904614400     100.0%      0.0%      0.0%
 flops   963 x    32 x    32        1179831730176     100.0%      0.0%      0.0%
 flops   973 x    32 x    32        1192083357696     100.0%      0.0%      0.0%
 flops   983 x    32 x    32        1204334985216     100.0%      0.0%      0.0%
 flops    13 x    13 x    64        1286769309696     100.0%      0.0%      0.0%
 flops   224 x    64 x   178        1338290601984     100.0%      0.0%      0.0%
 flops   224 x    32 x    64        1429104230400     100.0%      0.0%      0.0%
 flops   224 x    64 x    32        1429104230400     100.0%      0.0%      0.0%
 flops   950 x    32 x    64        1692952166400     100.0%      0.0%      0.0%
 flops   950 x    64 x    32        1692952166400     100.0%      0.0%      0.0%
 flops   963 x    64 x    32        1716118880256     100.0%      0.0%      0.0%
 flops   963 x    32 x    64        1716118880256     100.0%      0.0%      0.0%
 flops   973 x    32 x    64        1733939429376     100.0%      0.0%      0.0%
 flops   973 x    64 x    32        1733939429376     100.0%      0.0%      0.0%
 flops    13 x    25 x    32        1734703027200     100.0%      0.0%      0.0%
 flops   983 x    32 x    64        1751759978496     100.0%      0.0%      0.0%
 flops   983 x    64 x    32        1751759978496     100.0%      0.0%      0.0%
 flops    25 x    13 x    32        1780037916800     100.0%      0.0%      0.0%
 flops   224 x    64 x    64        2078697062400     100.0%      0.0%      0.0%
 flops   950 x    64 x    64        2462475878400     100.0%      0.0%      0.0%
 flops   963 x    64 x    64        2496172916736     100.0%      0.0%      0.0%
 flops   973 x    64 x    64        2522093715456     100.0%      0.0%      0.0%
 flops    13 x    25 x    64        2523204403200     100.0%      0.0%      0.0%
 flops   983 x    64 x    64        2548014514176     100.0%      0.0%      0.0%
 flops    25 x    13 x    64        2589146060800     100.0%      0.0%      0.0%
 flops    25 x    25 x    32        3399660000000     100.0%      0.0%      0.0%
 flops    25 x    25 x    64        4944960000000     100.0%      0.0%      0.0%
 flops    13 x    32 x    13        8644003303936     100.0%      0.0%      0.0%
 flops    25 x    32 x    13       17355150176000     100.0%      0.0%      0.0%
 flops    13 x    32 x    25       17355150176000     100.0%      0.0%      0.0%
 flops    25 x    32 x    25       33241600000000     100.0%      0.0%      0.0%
 flops inhomo. stacks              52200870802080     100.0%      0.0%      0.0%
 flops total                       213.495139E+12     100.0%      0.0%      0.0%
 flops max/rank                      3.706241E+12     100.0%      0.0%      0.0%
 matmuls inhomo. stacks                   5464160     100.0%      0.0%      0.0%
 matmuls total                         4258455328     100.0%      0.0%      0.0%
 number of processed stacks              68520060     100.0%      0.0%      0.0%
 average stack size                                    62.1       0.0       0.0
 marketing flops                   231.381431E+12
 -------------------------------------------------------------------------------
 # multiplications                          20752
 max memory usage/rank               1.425043E+09
 # max total images/rank                        5
 # max 3D layers                                1
 # MPI messages exchanged               189258240
 MPI messages size (bytes):
  total size                        23.026286E+12
  min size                           0.000000E+00
  max size                           1.816584E+06
  average size                     121.665969E+03
 MPI breakdown and total messages size (bytes):
             size <=      128             1274520                        0
       128 < size <=     8192            24946658             204363022336
      8192 < size <=    32768            57497382            1160926529472
     32768 < size <=   131072            83083200            5961521180160
    131072 < size <=  4194304            22456480           15708736419760
   4194304 < size <= 16777216                   0                        0
  16777216 < size                               0                        0
 -------------------------------------------------------------------------------

 *** WARNING in dbcsr/mm/dbcsr_mm.F:268 :: Using a non-square number of ***
 *** MPI ranks might lead to poor performance.                          ***
 *** Used ranks: 80                                                     ***
 *** Suggested: 81 169                                                  ***

 -------------------------------------------------------------------------------
 
 MEMORY| Estimated peak process memory [MiB]                                1381

 -------------------------------------------------------------------------------
 ----                             MULTIGRID INFO                            ----
 -------------------------------------------------------------------------------
 count for grid        1:        1127578          cutoff [a.u.]          600.00
 count for grid        2:        5782102          cutoff [a.u.]          200.00
 count for grid        3:        4948373          cutoff [a.u.]           66.67
 count for grid        4:        6650840          cutoff [a.u.]           22.22
 count for grid        5:        5688085          cutoff [a.u.]            7.41
 total gridlevel count  :       24196978

 -------------------------------------------------------------------------------
 -                                                                             -
 -                         MESSAGE PASSING PERFORMANCE                         -
 -                                                                             -
 -------------------------------------------------------------------------------

 ROUTINE             CALLS      AVE VOLUME [Bytes]
 MP_Group             1862
 MP_Bcast            18916                  50544.
 MP_Allreduce       159700                    236.
 MP_Sync               806
 MP_Alltoall        113061                5542400.
 MP_SendRecv         11692                   5537.
 MP_ISendRecv       535146                 133520.
 MP_Wait           4625063
 MP_comm_split         801
 MP_ISend          5319100                 115722.
 MP_IRecv          5320712                 115499.
 MP_Recv               684                 160512.
 MP_Memory         2311452
 -------------------------------------------------------------------------------


 -------------------------------------------------------------------------------
 -                                                                             -
 -                           R E F E R E N C E S                               -
 -                                                                             -
 -------------------------------------------------------------------------------
 
 CP2K version 7.0 (Development Version), the CP2K developers group (2018).
 CP2K is freely available from https://www.cp2k.org/ .

 Schuett, Ole; Messmer, Peter; Hutter, Juerg; VandeVondele, Joost. 
 Electronic Structure Calculations on Graphics Processing Units, John Wiley & Sons, Ltd, 173-190 (2016). 
 GPU-Accelerated Sparse Matrix-Matrix Multiplication for Linear Scaling Density Functional Theory.
 http://dx.doi.org/10.1002/9781118670712.ch8


 Borstnik, U; VandeVondele, J; Weber, V; Hutter, J. 
 PARALLEL COMPUTING, 40 (5-6), 47-58 (2014). 
 Sparse matrix multiplication: The distributed block-compressed sparse
 row library.
 http://dx.doi.org/10.1016/j.parco.2014.03.012


 Hutter, J; Iannuzzi, M; Schiffmann, F; VandeVondele, J. 
 WILEY INTERDISCIPLINARY REVIEWS-COMPUTATIONAL MOLECULAR SCIENCE, 4 (1), 15-25 (2014). 
 CP2K: atomistic simulations of condensed matter systems.
 http://dx.doi.org/10.1002/wcms.1159


 Grimme, S; Ehrlich, S; Goerigk, L. 
 JOURNAL OF COMPUTATIONAL CHEMISTRY, 32, 1456 (2011). 
 Effect of the damping function in dispersion corrected density functional theory.
 http://dx.doi.org/10.1002/jcc.21759


 Grimme, S; Antony, J; Ehrlich, S; Krieg, H. 
 JOURNAL OF CHEMICAL PHYSICS, 132 (15), 154104 (2010). 
 A consistent and accurate ab initio parametrization of density
 functional dispersion correction (DFT-D) for the 94 elements H-Pu.
 http://dx.doi.org/10.1063/1.3382344


 VandeVondele, J; Hutter, J. 
 JOURNAL OF CHEMICAL PHYSICS, 127 (11), 114105 (2007). 
 Gaussian basis sets for accurate calculations on molecular systems in
 gas and condensed phases.
 http://dx.doi.org/10.1063/1.2770708


 Krack, M. 
 THEORETICAL CHEMISTRY ACCOUNTS, 114 (1-3), 145-152 (2005). 
 Pseudopotentials for H to Kr optimized for gradient-corrected
 exchange-correlation functionals.
 http://dx.doi.org/10.1007/s00214-005-0655-y


 VandeVondele, J; Krack, M; Mohamed, F; Parrinello, M; Chassaing, T;
 Hutter, J. COMPUTER PHYSICS COMMUNICATIONS, 167 (2), 103-128 (2005). 
 QUICKSTEP: Fast and accurate density functional calculations using a
 mixed Gaussian and plane waves approach.
 http://dx.doi.org/10.1016/j.cpc.2004.12.014


 Frigo, M; Johnson, SG. 
 PROCEEDINGS OF THE IEEE, 93 (2), 216-231 (2005). 
 The design and implementation of FFTW3.
 http://dx.doi.org/10.1109/JPROC.2004.840301


 Kolafa, J. 
 JOURNAL OF COMPUTATIONAL CHEMISTRY, 25 (3), 335-342 (2004). 
 Time-reversible always stable predictor-corrector method for molecular dynamics of polarizable molecules.
 http://dx.doi.org/10.1002/jcc.10385


 VandeVondele, J; Hutter, J. 
 JOURNAL OF CHEMICAL PHYSICS, 118 (10), 4365-4369 (2003). 
 An efficient orbital transformation method for electronic structure
 calculations.
 http://dx.doi.org/10.1063/1.1543154


 Hartwigsen, C; Goedecker, S; Hutter, J. 
 PHYSICAL REVIEW B, 58 (7), 3641-3662 (1998). 
 Relativistic separable dual-space Gaussian pseudopotentials from H to Rn.
 http://dx.doi.org/10.1103/PhysRevB.58.3641


 Lippert, G; Hutter, J; Parrinello, M. 
 MOLECULAR PHYSICS, 92 (3), 477-487 (1997). 
 A hybrid Gaussian and plane wave density functional scheme.
 http://dx.doi.org/10.1080/002689797170220


 Perdew, JP; Burke, K; Ernzerhof, M. 
 PHYSICAL REVIEW LETTERS, 77 (18), 3865-3868 (1996). 
 Generalized gradient approximation made simple.
 http://dx.doi.org/10.1103/PhysRevLett.77.3865


 Goedecker, S; Teter, M; Hutter, J. 
 PHYSICAL REVIEW B, 54 (3), 1703-1710 (1996). 
 Separable dual-space Gaussian pseudopotentials.
 http://dx.doi.org/10.1103/PhysRevB.54.1703


 -------------------------------------------------------------------------------
 -                                                                             -
 -                                T I M I N G                                  -
 -                                                                             -
 -------------------------------------------------------------------------------
 SUBROUTINE                       CALLS  ASD         SELF TIME        TOTAL TIME
                                MAXIMUM       AVERAGE  MAXIMUM  AVERAGE  MAXIMUM
 CP2K                                 1  1.0     0.35     0.45 10302.98 10303.04
 cp_geo_opt                           1  2.0     0.04     0.05 10300.71 10300.73
 geoopt_bfgs                          1  3.0     0.10     0.15 10300.67 10300.68
 cp_eval_at                          38  4.0     0.01     0.03 10281.57 10281.62
 qs_forces                           37  5.0     0.02     0.04 10166.09 10166.10
 qs_energies                         38  6.0     0.06     0.08  9523.72  9523.81
 scf_env_do_scf                      38  7.0     0.02     0.08  9033.83  9033.85
 scf_env_do_scf_inner_loop          690  8.0     0.07     0.11  8248.47  8248.51
 rebuild_ks_matrix                  727  9.8     0.00     0.00  4503.20  4504.10
 qs_ks_build_kohn_sham_matrix       727 10.8     0.24     0.45  4503.20  4504.10
 qs_ks_update_qs_env                729  9.0     0.01     0.02  3831.98  3832.81
 qs_rho_update_rho                  728  9.0     0.01     0.01  3727.95  3729.57
 calculate_rho_elec                1456 10.0  1868.78  1902.17  3727.95  3729.57
 sum_up_and_integrate               401 11.7     5.97     6.71  2456.61  2457.56
 integrate_v_rspace                 802 12.7  1371.46  1411.40  2450.64  2452.26
 pw_transfer                      22936 13.3     2.45     2.77  2272.15  2282.93
 fft_wrap_pw1pw2                  21482 14.4     0.25     0.30  2260.73  2271.41
 fft_wrap_pw1pw2_600              12450 15.7   138.00   156.35  2102.98  2113.65
 fft3d_ps                         21482 16.4   639.86   710.74  1938.42  1957.54
 rs_pw_transfer                   11479 12.9     0.15     0.18  1828.87  1852.12
 density_rs2pw                     1456 11.0     0.11     0.12  1669.98  1703.10
 qs_vxc_create                      727 11.8     0.02     0.05  1595.45  1595.83
 dbcsr_multiply_generic           20752 13.7     1.38     1.81  1405.34  1408.01
 mp_waitall_1                   4211023 16.7  1256.18  1313.60  1256.18  1313.60
 mp_alltoall_z22v                 21482 18.4  1119.06  1248.93  1119.06  1248.93
 qs_scf_new_mos                     690  9.0     0.01     0.02  1234.53  1235.69
 qs_scf_loop_do_ot                  690 10.0     0.03     0.09  1234.53  1235.69
 xc_vxc_pw_create                   401 12.7    78.58    88.74  1185.82  1186.04
 ot_scf_mini                        690 11.0     0.13     0.23  1132.85  1133.68
 multiply_cannon                  20752 14.7     6.60     6.95  1096.67  1114.88
 xc_rho_set_and_dset_create         727 13.8    12.77    13.75   868.53   882.35
 potential_pw2rs                    802 13.7     0.63     0.71   856.94   858.81
 mp_waitany                      414040 14.9   803.10   857.46   803.10   857.46
 rs_pw_transfer_RS2PW_600          1532 13.0   306.29   334.19   770.19   792.47
 init_scf_loop                       39  8.0     0.01     0.02   784.08   784.09
 x_to_yz                           9352 18.0   101.29   115.45   733.61   780.47
 multiply_cannon_metrocomm3      415040 15.7     1.12     1.19   659.13   725.38
 qs_ks_update_qs_env_forces          37  6.0     0.00     0.00   677.61   677.72
 yz_to_x                           7614 16.8    62.88    65.95   548.63   611.73
 ot_mini                            690 12.0     0.01     0.02   594.63   595.56
 rs_pw_transfer_PW2RS_600           915 15.2   204.61   222.01   515.26   528.99
 prepare_preconditioner              39  9.0     0.00     0.00   414.51   414.65
 xc_exc_calc                        326 13.0     1.59     1.81   409.61   409.82
 make_preconditioner                 78 10.0     0.01     0.01   379.95   380.01
 qs_ot_get_derivative               728 13.0     0.01     0.02   374.92   375.84
 make_full_all                       78 11.0     0.03     0.06   344.45   344.62
 mp_alltoall_d11v                 22209 15.1   281.98   316.95   281.98   316.95
 multiply_cannon_metrocomm1      415040 15.7     1.28     1.40   245.77   307.72
 init_scf_run                        38  7.0     0.00     0.01   299.91   299.94
 scf_env_initial_rho_setup           38  8.0     0.00     0.01   299.91   299.94
 rs_distribute_matrix              2332 12.0     2.84     5.63   264.76   297.69
 wfi_extrapolate                     38  9.0     0.03     0.08   290.22   290.26
 cp_fm_syevd                        801 13.7     0.01     0.02   266.12   267.17
 cp_fm_redistribute_end             801 14.7    87.22   256.13    88.71   257.19
 cp_fm_syevd_base                   801 14.4   167.39   247.19   167.39   247.19
 apply_preconditioner_dbcsr         806 14.0     0.00     0.02   234.61   235.04
 apply_all                          806 15.0     0.09     0.15   234.61   235.03
 qs_ot_get_p                       1458 11.9     0.02     0.08   220.04   223.79
 ot_new_cg_direction                364 13.0     0.01     0.03   215.09   215.15
 mp_sum_d                         23186 14.3   162.38   209.15   162.38   209.15
 -------------------------------------------------------------------------------

 The number of warnings for this run is : 1
 
 -------------------------------------------------------------------------------
  **** **** ******  **  PROGRAM ENDED AT                 2019-07-22 10:46:52.420
 ***** ** ***  *** **   PROGRAM RAN ON            blg9226.int.ets1.calculquebec.
 **    ****   ******    PROGRAM RAN BY                                       rzk
 ***** **    ** ** **   PROGRAM PROCESS ID                                237795
  **** **  *******  **  PROGRAM STOPPED IN /lustre04/scratch/rzk/rzk/GaN-carbene
                                           /443-adatoms-both-2x2/12-CH3O-H2C-H/0
                                           3-SameAs1202-Start-Final-1102
