     209
 i =        1, E =     -8487.5129484074
  N         0.0747637130        1.9948133891        2.5012061111
 Ga         0.0556393307        0.0143810948        2.8252678201
  N         0.0824878907       -0.0185329567        5.0107136566
 Ga         0.0774966151        1.8008274642        5.7991388544
  N         0.0773345632        1.8221016551        7.7978276069
 Ga         0.0731323725       -0.0250192108        8.4407007812
  N         0.0760066057       -0.0249299885       10.4163118615
 Ga         0.0780043690        1.8132775530       11.0724913908
  N         0.0776101788        1.7953000607       13.0655175206
 Ga         0.0770308262       -0.0248519753       13.8687976877
  N         0.0748444654       -0.0252597862       16.0696388201
 Ga         0.0781781586        2.0201034168       16.4813068658
 Ga         0.0662184067        3.7228511399        1.3808662360
  N        -1.4025721219        4.5581380084        2.5377530285
 Ga        -1.5931546405        2.7380598033        3.3028814048
  N        -1.5406238084        2.7571013074        5.2563788138
 Ga        -1.5609967250        4.6271289071        5.8415895600
  N        -1.5360597814        4.6196399697        7.8250862675
 Ga        -1.5223171553        2.7594909352        8.4474155435
  N        -1.5193582710        2.7654772535       10.4382622834
 Ga        -1.5481740171        4.6249672367       11.0755660173
  N        -1.5632551667        4.6356103253       13.0681045524
 Ga        -1.5205578857        2.7659524492       13.6230562949
  N        -1.5465612409        2.7519100460       15.5855443149
 Ga        -1.3712568076        4.5292095192       16.4810028174
  N         0.0733877056        3.6916620220       17.6195331889
  N        -3.1211882426        7.5262415294        2.5567729984
 Ga        -3.1129523628        5.5158058154        2.9295007592
  N        -3.1105314982        5.5632439724        5.0816590083
 Ga        -3.1457387463        7.3706238578        5.8391094478
  N        -3.1386838264        7.3972181108        7.8219896982
 Ga        -3.1473384551        5.5421543137        8.4482631740
  N        -3.1408671172        5.5450902909       10.4223349246
 Ga        -3.1446399855        7.3846018990       11.0734515423
  N        -3.1408692226        7.3663998622       13.0662434537
 Ga        -3.1406073902        5.5460446364       13.8689112682
  N        -3.1417611205        5.5453322683       16.0699999194
 Ga        -3.1383875506        7.5909916862       16.4814668731
 Ga        -3.1400974955        9.2449402214        1.5357409021
  N        -4.6474962559       10.1289280877        2.5173186057
 Ga        -4.8618913780        8.2698907248        3.2922255471
  N        -4.7443897448        8.3298284703        5.2516147422
 Ga        -4.7806308241       10.2035717285        5.8020759084
  N        -4.7580330647       10.1939596313        7.7972294999
 Ga        -4.7496069814        8.3344097066        8.4328739949
  N        -4.7400828285        8.3377664157       10.4280659993
 Ga        -4.7644614099       10.1959517598       11.0706070337
  N        -4.7792402663       10.2058508187       13.0643461286
 Ga        -4.7380961814        8.3369445286       13.6227797709
  N        -4.7633351820        8.3230663274       15.5851973176
 Ga        -4.5878026061       10.1000844133       16.4814717467
  N        -3.1436202005        9.2631484019       17.6201657728
  N         3.2867153006        1.8453806002        2.5971148043
 Ga         3.2671565875        0.0846735200        3.2910209807
  N         3.2938123323       -0.0253984064        5.2534048140
 Ga         3.2983073916        1.8428909736        5.8632801796
  N         3.2983459794        1.8334128076        7.8398176862
 Ga         3.2875246080       -0.0315120224        8.4464056129
  N         3.2911391578       -0.0353348826       10.4365944444
 Ga         3.2947806895        1.8344018793       11.0292532616
  N         3.2938442152        1.8331501721       12.9993133538
 Ga         3.2924823990       -0.0364673013       13.6217298729
  N         3.2934558399       -0.0043562322       15.5818568513
 Ga         3.2930620914        1.8327623516       15.8623331527
  N         1.5550391353        4.5650811252        2.5508744101
 Ga         1.7667897115        2.7325850651        3.2861231570
  N         1.6883167587        2.7616015200        5.2574883538
 Ga         1.7116958806        4.6214152903        5.8340339674
  N         1.6954698765        4.6228476579        7.8163464844
 Ga         1.6781150915        2.7609596872        8.4409084020
  N         1.6752265227        2.7657419675       10.4329263008
 Ga         1.7053276273        4.6249418795       11.0731498211
  N         1.7189661566        4.6356239736       13.0658524053
 Ga         1.6748801100        2.7667485329       13.6229784240
  N         1.7015740299        2.7529995499       15.5836750953
 Ga         1.5233401394        4.5267243624       16.4820086875
  N         0.0809284279        7.3914498141        2.7295775901
 Ga         0.0632938125        5.5445658997        3.3737211372
  N         0.0788020335        5.5619930860        5.3031166862
 Ga         0.0859903037        7.4044457402        5.9384644762
  N         0.0789460782        7.4054881705        7.8906981050
 Ga         0.0791297517        5.5308022146        8.4645417748
  N         0.0787828829        5.5333711880       10.4490241054
 Ga         0.0789380003        7.4033502750       11.0401777220
  N         0.0778190569        7.4034797011       13.0075753130
 Ga         0.0780797372        5.5320792507       13.6227211947
  N         0.0784802417        5.5656158432       15.5826819076
 Ga         0.0768403688        7.4031986102       15.8606979529
  N        -1.6388889597       10.1046944742        2.5529195707
 Ga        -1.4984002228        8.3077706891        3.3793060607
  N        -1.5172051582        8.3231057537        5.2982279525
 Ga        -1.5095170115       10.2059945832        5.8450239312
  N        -1.5274654107       10.1901174226        7.8266174685
 Ga        -1.5454887683        8.3382189253        8.4695222355
  N        -1.5422019502        8.3376849127       10.4522525303
 Ga        -1.5164145720       10.2005286690       11.0767553937
  N        -1.4993675007       10.2076128638       13.0683637501
 Ga        -1.5434319768        8.3380585700       13.6235787806
  N        -1.5151178373        8.3236288980       15.5844186134
 Ga        -1.6934208187       10.0975344844       16.4818487947
  N         6.5568356352        1.8177922861        2.5386620914
 Ga         6.5432289626       -0.0485613938        2.9313651650
  N         6.5045002458       -0.0587199955        5.0929396087
 Ga         6.5213011579        1.7986600071        5.7965806115
  N         6.5070985196        1.8210932583        7.7953632724
 Ga         6.5119721844       -0.0216787208        8.4508270210
  N         6.5106621083       -0.0242265641       10.4236112817
 Ga         6.5105212307        1.8182711709       11.0676396718
  N         6.5092710690        1.7963614764       13.0620615430
 Ga         6.5094321444       -0.0229033840       13.8700453592
  N         6.5086250764       -0.0239411619       16.0699788723
 Ga         6.5107158984        2.0230801380       16.4829325701
  N         4.8758243256        4.8535270765        2.3138477498
 Ga         4.9353446110        2.4181713323        3.2339599431
  N         4.9088044162        2.7552590908        5.1861934620
 Ga         4.9017259355        4.6276110109        5.7500785479
  N         4.8958770447        4.6198486837        7.7612188786
 Ga         4.9135272008        2.7701285902        8.4310874238
  N         4.9120680402        2.7693048899       10.4263061570
 Ga         4.8896145984        4.6267844955       11.0692756536
  N         4.8703181215        4.6357824707       13.0627852361
 Ga         4.9131341062        2.7671332979       13.6227123233
  N         4.8845593918        2.7517060006       15.5842874824
 Ga         5.0633341206        4.5284949894       16.4824973664
  N         6.5057815137        3.6928402063       17.6180441647
  N         3.2651456246        7.5416451619        2.5429110545
  N         3.2798266002        5.5528727067        5.0517689986
 Ga         3.3031716504        7.3851547898        5.8149346396
  N         3.2933684653        7.3936592428        7.8022473312
 Ga         3.3054691456        5.5425847660        8.4397181811
  N         3.2975093739        5.5455947627       10.4147521351
 Ga         3.3003618341        7.3849934319       11.0701177069
  N         3.2952440844        7.3656344360       13.0633637276
 Ga         3.2948138865        5.5461471960       13.8693492067
  N         3.2930049278        5.5462342330       16.0696498835
 Ga         3.2949951319        7.5932208891       16.4832744209
 Ga         3.3062931740        9.2558559954        1.2776087457
  N         1.7810353528       10.1261302761        2.5159160183
 Ga         1.6769149688        8.3577951452        3.3252551043
  N         1.6724202580        8.3261919488        5.2684933658
 Ga         1.6681344433       10.2079256176        5.8269194464
  N         1.6844009032       10.1908558170        7.8153000005
 Ga         1.7037026710        8.3391975785        8.4622169217
  N         1.6989759045        8.3377507288       10.4467569850
 Ga         1.6727425479       10.1997532070       11.0761222024
  N         1.6537830334       10.2070440310       13.0679262951
 Ga         1.6987904095        8.3376753163       13.6243860083
  N         1.6692030781        8.3219972360       15.5858966499
 Ga         1.8474751576       10.0991222909       16.4825438887
  N         3.2905581027        9.2632650681       17.6184523845
  N         9.6943998892        1.8779344848        2.5855015217
 Ga         9.7136270614        0.0590114267        3.2431565962
  N         9.7208861065       -0.0114902995        5.2168147490
 Ga         9.7137843322        1.8357204891        5.8705310642
  N         9.7247358028        1.8310045830        7.8482158565
 Ga         9.7327384101       -0.0333637311        8.4441149919
  N         9.7281955360       -0.0366829226       10.4354228745
 Ga         9.7236988569        1.8335090708       11.0280374083
  N         9.7247234244        1.8329686119       12.9985222909
 Ga         9.7266568080       -0.0363858980       13.6211970648
  N         9.7273750446       -0.0030629787       15.5807687077
 Ga         9.7250609012        1.8330438192       15.8630508105
  N         8.1534041164        4.5635498534        2.5114913123
 Ga         8.0613560775        2.7867810972        3.2561074211
  N         8.1212191731        2.7561653372        5.2428274317
 Ga         8.1350229589        4.6354752277        5.7632098826
  N         8.1235770093        4.6265095465        7.7784049146
 Ga         8.1063660744        2.7718841267        8.4274119748
  N         8.1068061783        2.7686778195       10.4254896734
 Ga         8.1287502470        4.6259010961       11.0680892735
  N         8.1480323540        4.6359883697       13.0624393475
 Ga         8.1059403999        2.7674477059       13.6212571684
  N         8.1346927724        2.7528125242       15.5815685242
 Ga         7.9525758239        4.5253933244       16.4833290661
  N         6.5047985153        7.4087773404        2.5841442624
 Ga         6.6594964946        5.6019876227        3.0914648903
  N         6.5088707861        5.5326966094        5.1334847109
 Ga         6.4990956354        7.3731103338        5.8207023986
  N         6.5075712086        7.3946675286        7.8138653602
 Ga         6.5090559359        5.5332270761        8.4220219889
  N         6.5080859149        5.5340406696       10.4205712305
 Ga         6.5076499287        7.4018074826       11.0236808210
  N         6.5087177821        7.4026991799       12.9948225430
 Ga         6.5095759450        5.5340369631       13.6202838348
  N         6.5105406031        5.5675803130       15.5796995735
 Ga         6.5091705340        7.4032191908       15.8642931342
  N         4.7980187615       10.1479366019        2.5074128951
 Ga         4.9788803391        8.2869878085        3.2414423495
  N         4.8985068247        8.3342700384        5.2266838737
 Ga         4.9272799016       10.2080255387        5.7737411176
  N         4.9093591113       10.1952488013        7.7806034163
 Ga         4.9005926287        8.3377175363        8.4228727875
  N         4.8932027247        8.3387765691       10.4207680924
 Ga         4.9175772574       10.1949635117       11.0704442598
  N         4.9336277284       10.2055541418       13.0638222718
 Ga         4.8915197423        8.3370743886       13.6222440209
  N         4.9190378256        8.3232938111       15.5822587820
 Ga         4.7370803685       10.0961374776       16.4835736097
  O        -0.0110275249        4.0844687321       -0.4129338870
  C         1.0638278899        3.5976294604       -1.2288062233
  H         2.0449906330        4.0001225530       -0.9227910038
  H         1.1241654529        2.4982854883       -1.2260679902
  H         0.8714897601        3.9293562787       -2.2602824860
 Ga         3.1388077911        5.6337099613        2.9973268089
  H         0.0527394349        7.3517686792        1.6996833864
 Ga         9.2014538990        2.4666332375        0.6706867479
  C         4.9244450369        4.3427468897        1.1309670304
  H         5.8879180384        4.0477072548        0.6906432880
  H         4.0139937047        4.1616960069        0.5422023828
     209
 i =        2, E =     -8487.5138455967
  N         0.0748847788        1.9953282079        2.5001186186
 Ga         0.0595958222        0.0204048787        2.8280354062
  N         0.0813159589       -0.0188015998        5.0095361654
 Ga         0.0773675028        1.8018926356        5.7998266291
  N         0.0774285471        1.8217310736        7.7961146007
 Ga         0.0734835275       -0.0246321643        8.4423494617
  N         0.0762020663       -0.0246649679       10.4149137497
 Ga         0.0778951573        1.8134568857       11.0743098917
  N         0.0777462399        1.7947262608       13.0645934114
 Ga         0.0768153595       -0.0253493405       13.8733081448
  N         0.0750361698       -0.0247300010       16.0674912234
 Ga         0.0781945229        2.0190034941       16.4837168049
 Ga         0.0633601458        3.7284901697        1.3674995341
  N        -1.4044971034        4.5596653854        2.5392261240
 Ga        -1.5897512623        2.7391353860        3.3001066098
  N        -1.5410011412        2.7573533653        5.2533469232
 Ga        -1.5615296734        4.6265490245        5.8436504110
  N        -1.5362199911        4.6195350306        7.8242923429
 Ga        -1.5222123057        2.7589287285        8.4483672557
  N        -1.5191637589        2.7652972215       10.4359408475
 Ga        -1.5485137724        4.6245011150       11.0769769304
  N        -1.5637061795        4.6361599610       13.0664145942
 Ga        -1.5205631197        2.7663600513       13.6244897874
  N        -1.5459027341        2.7536874094       15.5849643315
 Ga        -1.3705766815        4.5290833134       16.4836807320
  N         0.0710793417        3.6871227727       17.6241895379
  N        -3.1204755808        7.5267696392        2.5514763497
 Ga        -3.1127776952        5.5143381731        2.9327684215
  N        -3.1108103635        5.5632859244        5.0801981380
 Ga        -3.1458802547        7.3699497103        5.8413094089
  N        -3.1387946071        7.3972063431        7.8210038379
 Ga        -3.1474711239        5.5418617893        8.4500484823
  N        -3.1407957028        5.5452471733       10.4210439345
 Ga        -3.1449931275        7.3844147331       11.0756445966
  N        -3.1408599565        7.3658455308       13.0655968129
 Ga        -3.1410845580        5.5454024516       13.8733577340
  N        -3.1417867279        5.5458436484       16.0677933633
 Ga        -3.1384541772        7.5899342973       16.4839399061
 Ga        -3.1473240209        9.2511055578        1.5318149853
  N        -4.6492262866       10.1300726027        2.5189039387
 Ga        -4.8622484013        8.2700400376        3.2915516211
  N        -4.7436538430        8.3292237784        5.2489686074
 Ga        -4.7806056488       10.2031757342        5.8024751647
  N        -4.7583071418       10.1940370370        7.7950642269
 Ga        -4.7498771650        8.3347606872        8.4345774108
  N        -4.7400067928        8.3376045993       10.4261197591
 Ga        -4.7646380563       10.1956130673       11.0721164388
  N        -4.7796533487       10.2063152571       13.0626600312
 Ga        -4.7383075324        8.3373680438       13.6244054431
  N        -4.7628208837        8.3247226362       15.5846802693
 Ga        -4.5868485414       10.0997563240       16.4841410089
  N        -3.1458809501        9.2585398776       17.6241500571
  N         3.2866118913        1.8457219059        2.5960328967
 Ga         3.2666226008        0.0863239225        3.2914187972
  N         3.2943255668       -0.0259137883        5.2519353285
 Ga         3.2978217709        1.8432782328        5.8639293676
  N         3.2985133713        1.8332936239        7.8381811376
 Ga         3.2872234204       -0.0313770267        8.4477746698
  N         3.2909710251       -0.0356866487       10.4346940084
 Ga         3.2947421321        1.8343681849       11.0297143752
  N         3.2939013538        1.8333160251       12.9966093667
 Ga         3.2927907273       -0.0360680609       13.6227288550
  N         3.2943287854       -0.0043867880       15.5802448988
 Ga         3.2933564807        1.8338485976       15.8620081013
  N         1.5555713149        4.5666458956        2.5509951705
 Ga         1.7643972654        2.7328226107        3.2829851158
  N         1.6883273845        2.7620251509        5.2545145729
 Ga         1.7117123533        4.6208715175        5.8355773029
  N         1.6958774252        4.6228465470        7.8151717629
 Ga         1.6780802021        2.7605347578        8.4419665170
  N         1.6749722797        2.7655466804       10.4307941769
 Ga         1.7057440563        4.6246489936       11.0742821020
  N         1.7197663869        4.6361806707       13.0634807102
 Ga         1.6752809928        2.7674632632       13.6240803433
  N         1.7018726608        2.7551302698       15.5826363633
 Ga         1.5216705783        4.5258949806       16.4846426335
  N         0.0798813021        7.3891632273        2.7268889809
 Ga         0.0625702512        5.5356385251        3.3747946818
  N         0.0786351992        5.5627870306        5.3009721759
 Ga         0.0853610303        7.4035124077        5.9404861277
  N         0.0794910834        7.4058258335        7.8892460737
 Ga         0.0792946997        5.5302047250        8.4660210766
  N         0.0787522877        5.5328149551       10.4472403445
 Ga         0.0787595189        7.4029471979       11.0412911018
  N         0.0778585029        7.4036007221       13.0053993389
 Ga         0.0785748870        5.5321666114       13.6237260521
  N         0.0793436531        5.5654747633       15.5811044102
 Ga         0.0770955307        7.4042397244       15.8608591965
  N        -1.6382742943       10.1034727373        2.5504642117
 Ga        -1.5044981035        8.3098023025        3.3794662795
  N        -1.5162910573        8.3223908406        5.2949790244
 Ga        -1.5095644152       10.2059441406        5.8465724685
  N        -1.5271935114       10.1903169025        7.8250982667
 Ga        -1.5456891710        8.3385166877        8.4714527530
  N        -1.5425502729        8.3375628571       10.4508042044
 Ga        -1.5162688858       10.2006155518       11.0781196247
  N        -1.4986722372       10.2082963359       13.0661633338
 Ga        -1.5432514303        8.3389202929       13.6249919021
  N        -1.5147065834        8.3256233096       15.5835659931
 Ga        -1.6952306826       10.0966441865       16.4845372691
  N         6.5566697136        1.8177489128        2.5367878857
 Ga         6.5393435670       -0.0461343942        2.9339733672
  N         6.5052395657       -0.0592048990        5.0904191803
 Ga         6.5214799171        1.7998515088        5.7980621611
  N         6.5069841203        1.8208009916        7.7938619903
 Ga         6.5118445684       -0.0212885856        8.4529824554
  N         6.5107813937       -0.0238829753       10.4224617114
 Ga         6.5102668083        1.8184652223       11.0700085452
  N         6.5094925814        1.7959168811       13.0614077696
 Ga         6.5092192307       -0.0230285565       13.8753052310
  N         6.5094803750       -0.0227847211       16.0677744572
 Ga         6.5107495681        2.0242787613       16.4857733315
  N         4.8747578169        4.8541843065        2.3132122437
 Ga         4.9348539092        2.4191482800        3.2333342270
  N         4.9088492047        2.7554706483        5.1842244097
 Ga         4.9027390473        4.6273329482        5.7519585036
  N         4.8957046667        4.6198273861        7.7599565842
 Ga         4.9134467140        2.7699504028        8.4327480651
  N         4.9121850584        2.7691907468       10.4245707065
 Ga         4.8894230289        4.6264152975       11.0710212076
  N         4.8700993696        4.6364250464       13.0611976058
 Ga         4.9132984741        2.7677917778       13.6242533947
  N         4.8833771844        2.7524229008       15.5830985184
 Ga         5.0661693089        4.5272318139       16.4855337800
  N         6.5038760784        3.6884583879       17.6178547718
  N         3.2648654871        7.5425126979        2.5404166141
  N         3.2804144905        5.5538651827        5.0505900069
 Ga         3.3032840232        7.3844153929        5.8173714307
  N         3.2931943483        7.3938969231        7.8004517895
 Ga         3.3055945274        5.5422184067        8.4415502942
  N         3.2977411420        5.5457236799       10.4133526483
 Ga         3.3004522548        7.3845082131       11.0729632095
  N         3.2956225199        7.3649340147       13.0631460664
 Ga         3.2948919583        5.5454399805       13.8744444668
  N         3.2940263864        5.5471933236       16.0672790911
 Ga         3.2950881673        7.5940425687       16.4862826861
 Ga         3.3109917880        9.2584214618        1.3003636536
  N         1.7805664155       10.1247112657        2.5129821236
 Ga         1.6770728347        8.3572655180        3.3294391422
  N         1.6721416261        8.3260705663        5.2662950793
 Ga         1.6679652221       10.2083435957        5.8295739235
  N         1.6843358763       10.1905458677        7.8136304291
 Ga         1.7039765897        8.3393542454        8.4653587391
  N         1.6992996935        8.3376185107       10.4459869955
 Ga         1.6723467057       10.1997382584       11.0784153616
  N         1.6533877936       10.2078626470       13.0667981781
 Ga         1.6991209626        8.3382994137       13.6260487412
  N         1.6680734742        8.3226583072       15.5849194593
 Ga         1.8499960027       10.0980247564       16.4857065693
  N         3.2885814615        9.2587670364       17.6179482804
  N         9.6952829105        1.8793184728        2.5831788159
 Ga         9.7137563438        0.0650066932        3.2447563138
  N         9.7204530282       -0.0129864985        5.2141759572
 Ga         9.7143509770        1.8364176435        5.8712112956
  N         9.7246482507        1.8303920983        7.8461472749
 Ga         9.7328649077       -0.0332889954        8.4462990553
  N         9.7280194621       -0.0370954478       10.4338463288
 Ga         9.7236463375        1.8336775987       11.0285931094
  N         9.7248458059        1.8333423300       12.9954473848
 Ga         9.7271146848       -0.0356422334       13.6226053537
  N         9.7284385040       -0.0014421639       15.5788214386
 Ga         9.7261442171        1.8345708905       15.8641046588
  N         8.1536561123        4.5640717517        2.5109330076
 Ga         8.0613719411        2.7871950991        3.2549452878
  N         8.1217182732        2.7558103291        5.2399695916
 Ga         8.1344494563        4.6351100943        5.7649850217
  N         8.1234979366        4.6264672632        7.7770968828
 Ga         8.1063832206        2.7716125991        8.4289819725
  N         8.1063494367        2.7684651696       10.4236108028
 Ga         8.1289162258        4.6257540267       11.0692359391
  N         8.1484245440        4.6364464435       13.0600763531
 Ga         8.1064071131        2.7680774260       13.6228805308
  N         8.1366866746        2.7541772173       15.5801982515
 Ga         7.9485264355        4.5232750430       16.4867862491
  N         6.5062435612        7.4080428851        2.5798655303
 Ga         6.6588082073        5.6010203542        3.0908041122
  N         6.5087091197        5.5332165206        5.1309175958
 Ga         6.4998181861        7.3728227525        5.8216476945
  N         6.5072930683        7.3948677675        7.8116273059
 Ga         6.5089313512        5.5331068846        8.4235672531
  N         6.5078840371        5.5335066619       10.4186306369
 Ga         6.5077566141        7.4013406252       11.0244288951
  N         6.5089527791        7.4027706260       12.9917415911
 Ga         6.5098899858        5.5346163091       13.6216402894
  N         6.5115536166        5.5692351932       15.5776163905
 Ga         6.5102445193        7.4046937839       15.8653772953
  N         4.7984842384       10.1484637537        2.5057617509
 Ga         4.9848374023        8.2844276236        3.2436349813
  N         4.8971526647        8.3346780757        5.2240317401
 Ga         4.9275305215       10.2083921113        5.7762332440
  N         4.9094887156       10.1951913075        7.7789327637
 Ga         4.9007664593        8.3377852280        8.4252613574
  N         4.8929160964        8.3384630573       10.4191888617
 Ga         4.9179916279       10.1948901481       11.0718394990
  N         4.9341260994       10.2059682189       13.0616678998
 Ga         4.8923140698        8.3375419294       13.6238816968
  N         4.9209530291        8.3246603763       15.5809789061
 Ga         4.7332916842       10.0940840490       16.4870438166
  O        -0.0116126937        4.0624801900       -0.4155267816
  C         1.0637901032        3.5931191044       -1.2339455042
  H         2.0414106697        3.9998126640       -0.9187812270
  H         1.1320420014        2.4935462333       -1.2295753439
  H         0.8699019525        3.9301070573       -2.2629522440
 Ga         3.1384262784        5.6290792778        2.9992188392
  H         0.0583926797        7.3645041257        1.7040124697
 Ga         9.2022772505        2.4670274697        0.6668621682
  C         4.9252216616        4.3445684585        1.1295230390
  H         5.8876812078        4.0462888891        0.6890909531
  H         4.0143251134        4.1614947686        0.5423398496
     209
 i =        3, E =     -8487.5141807715
  N         0.0747364952        1.9943106218        2.4991460680
 Ga         0.0609876706        0.0221330817        2.8303494587
  N         0.0808538383       -0.0187854561        5.0087316124
 Ga         0.0773791078        1.8025785825        5.8002548897
  N         0.0774405334        1.8217045365        7.7949944312
 Ga         0.0737112496       -0.0244079444        8.4427569324
  N         0.0762361468       -0.0246073482       10.4137175801
 Ga         0.0778455704        1.8132690632       11.0754527178
  N         0.0778510925        1.7949803823       13.0641625107
 Ga         0.0768939157       -0.0251401232       13.8754771109
  N         0.0762802688       -0.0232501988       16.0667116025
 Ga         0.0774834956        2.0198806078       16.4853466975
 Ga         0.0615364408        3.7317131469        1.3617227259
  N        -1.4048458680        4.5599267545        2.5386483478
 Ga        -1.5884170400        2.7395078970        3.2986672467
  N        -1.5409818124        2.7574078375        5.2520724147
 Ga        -1.5619613979        4.6263471273        5.8446492694
  N        -1.5364267886        4.6192505628        7.8236861233
 Ga        -1.5221188938        2.7586022960        8.4489921505
  N        -1.5190606705        2.7651386828       10.4348847950
 Ga        -1.5487206154        4.6243469720       11.0779219892
  N        -1.5634760778        4.6363507138       13.0657921655
 Ga        -1.5203420187        2.7667069849       13.6243130435
  N        -1.5456490742        2.7540334765       15.5830837310
 Ga        -1.3701556223        4.5271480836       16.4850319029
  N         0.0708152296        3.6862910518       17.6271587024
  N        -3.1219013579        7.5280122559        2.5497062273
 Ga        -3.1126607393        5.5149251919        2.9344746486
  N        -3.1110372849        5.5632601820        5.0794566740
 Ga        -3.1460138668        7.3699496007        5.8416935139
  N        -3.1389494276        7.3971087780        7.8198471472
 Ga        -3.1476173403        5.5418053123        8.4507253916
  N        -3.1408065500        5.5451508284       10.4201766018
 Ga        -3.1451099338        7.3841155608       11.0769000313
  N        -3.1407226587        7.3660144340       13.0653450934
 Ga        -3.1409741039        5.5454215597       13.8755687088
  N        -3.1404835644        5.5471936728       16.0670248455
 Ga        -3.1391757591        7.5906883425       16.4855238256
 Ga        -3.1492971683        9.2539262438        1.5303761288
  N        -4.6495648087       10.1311168655        2.5190281759
 Ga        -4.8622190753        8.2695550562        3.2914794833