     156
 i =        1, E =     -6136.6179954488
 Ga        -0.0031977045       -0.0158328314       -0.5376138346
  N        -0.0002730361        1.8584793676        0.6069637472
 Ga        -0.0003337208        1.8280243618        2.6383588346
  N        -0.0033781838       -0.0156155101        3.2697636923
 Ga        -0.0021673161       -0.0150488057        5.2604847470
  N         0.0008189465        1.8596736243        5.8482684895
 Ga         0.0023016269        1.8581435633        7.8481832284
  N         0.0008279729       -0.0150003322        8.4504247641
 Ga         0.0037315687       -0.0157060425       10.4496950633
  N         0.0042986626        1.8600558661       11.0419574547
 Ga         0.0097134779        1.8621331355       13.0324380865
  N         0.0152538226       -0.0086978571       13.6328278948
 Ga         0.0302160104       -0.0176889124       15.6246885811
  N         0.0203102096        1.8572259668       16.2207736690
 Ga         0.0454036232        1.8467221029       18.2865549972
  N         0.0481297051       -0.0269517202       18.6997479484
 Ga        -1.6230540570        2.7898797240        0.3238403358
  N        -1.6248079317        4.6597404403        0.6066644337
 Ga        -1.5956821704        4.6757324927        2.6367424986
  N        -1.6231064985        2.7899848545        3.2284011148
 Ga        -1.6217663555        2.7906139696        5.2399507875
  N        -1.6212806898        4.6608891643        5.8464468834
 Ga        -1.6191116077        4.6615242477        7.8451371970
  N        -1.6203650255        2.7918242167        8.4510042982
 Ga        -1.6194501025        2.7952724165       10.4470721586
  N        -1.6174769497        4.6668511866       11.0554026570
 Ga        -1.6182713757        4.6712756194       13.0530649587
  N        -1.6072076265        2.7996185037       13.6582734023
 Ga        -1.6005908865        2.8151130727       15.6625488403
  N        -1.5868103268        4.6835770163       16.3088122496
 Ga        -1.5157457065        4.6816619927       18.3870621583
  N        -1.5542694160        2.7867942101       18.7582059315
 Ga        -3.2437377933        5.5955542241        0.3237582609
  N        -3.2373739475        7.4661479863        0.6072213554
 Ga        -3.2641854250        7.4807124049        2.6384978196
  N        -3.2426862402        5.5950407731        3.2287380300
 Ga        -3.2419182069        5.5960189210        5.2401982747
  N        -3.2357841924        7.4663036031        5.8469539155
 Ga        -3.2358848602        7.4671009428        7.8460763435
  N        -3.2398837300        5.5961869922        8.4493055948
 Ga        -3.2389960423        5.5972813034       10.4448529204
  N        -3.2308568941        7.4658610307       11.0559943409
 Ga        -3.2220512713        7.4631774910       13.0548395770
  N        -3.2357183399        5.5973758061       13.6926643374
 Ga        -3.2237509082        5.5925140957       15.7295771154
  N        -3.2089291588        7.4747415084       16.2694734594
 Ga        -3.1865666477        7.4468182399       18.3269962291
  N        -3.1663638718        5.5836864828       18.8525070873
 Ga         3.2425520910       -0.0154442047        0.3241457990
  N         3.2414643797        1.8548068313        0.6063654225
 Ga         3.2696643685        1.8704523582        2.6372566225
  N         3.2428093028       -0.0153012145        3.2284023291
 Ga         3.2440037765       -0.0145979956        5.2400768757
  N         3.2446608879        1.8555417099        5.8474597616
 Ga         3.2471165384        1.8563058492        7.8468241685
  N         3.2448883427       -0.0146468346        8.4496630174
 Ga         3.2477252951       -0.0140529025       10.4452902865
  N         3.2516152758        1.8569395231       11.0516439115
 Ga         3.2584140109        1.8540963742       13.0490223075
  N         3.2577296356       -0.0165346800       13.6599232065
 Ga         3.2692003479       -0.0181921675       15.6654615477
  N         3.2836621266        1.8549748689       16.2299276341
 Ga         3.3208289163        1.8617010370       18.2541987177
  N         3.3050281926       -0.0244176889       18.7120076446
 Ga         1.6221361588        2.7905844817        0.3237426174
  N         1.6293364063        4.6603708254        0.6069857103
 Ga         1.6011590312        4.6758773114        2.6371068715
  N         1.6229369267        2.7900961160        3.2291378997
 Ga         1.6243012043        2.7909462216        5.2410021487
  N         1.6297322510        4.6611447838        5.8483716226
 Ga         1.6302495131        4.6616058983        7.8482829186
  N         1.6261097703        2.7902855926        8.4494461358
 Ga         1.6296894425        2.7920641395       10.4449669321
  N         1.6278038891        4.6623736426       11.0494107539
 Ga         1.6294151163        4.6644996269       13.0451252536
  N         1.6312514248        2.7872535397       13.6466597687
 Ga         1.6546712943        2.7845313648       15.6408905666
  N         1.6298616430        4.6645168841       16.1829581165
 Ga         1.6803826732        4.6396813686       18.1805546828
  N         1.6852049126        2.7771021428       18.6360771474
 Ga         0.0031264476        5.5957804712       -0.5460812395
  N         0.0059631440        7.4707659345        0.6066515886
 Ga         0.0060802296        7.4382847920        2.6368234476
  N         0.0030127955        5.5951900951        3.2696497480
 Ga         0.0046949046        5.5962077363        5.2598920095
  N         0.0074740171        7.4707318361        5.8477209095
 Ga         0.0089343010        7.4693730947        7.8473010758
  N         0.0049689393        5.5956941594        8.4472818347
 Ga         0.0067628865        5.5972498022       10.4446425210
  N         0.0116953884        7.4694463218       11.0452427434
 Ga         0.0151770273        7.4716721686       13.0374028585
  N         0.0058257895        5.6027804070       13.6451360246
 Ga         0.0072210442        5.6014921154       15.6412989814
  N         0.0373149118        7.4666197463       16.2670471766
 Ga         0.0724586845        7.4326015622       18.3562087339
  N         0.1446007929        5.5797876586       18.9118811413
 Ga         6.4873186361       -0.0150110220        0.3233604543
  N         6.4933545357        1.8552434011        0.6060376333
 Ga         6.4660899721        1.8703031341        2.6370561454
  N         6.4880550479       -0.0152149251        3.2290165240
 Ga         6.4897996798       -0.0146097075        5.2409734228
  N         6.4945642454        1.8559328707        5.8479221486
 Ga         6.4944307430        1.8568630424        7.8474268066
  N         6.4910217749       -0.0135249107        8.4513976610
 Ga         6.4946182850       -0.0112727861       10.4480688173
  N         6.4964272703        1.8611446897       11.0532804063
 Ga         6.5007603502        1.8654454393       13.0505069802
  N         6.4900989494       -0.0069906719       13.6381837221
 Ga         6.5097298136        0.0001482606       15.6387032507
  N         6.5159983098        1.8736577869       16.2280250750
 Ga         6.5709566316        1.8774178454       18.2693301753
  N         6.5624782103       -0.0210419186       18.6579437470
 Ga         4.8675977418        2.7916165039       -0.5407391803
  N         4.8709926524        4.6643845942        0.6069109533
 Ga         4.8708424671        4.6332276097        2.6375332433
  N         4.8683124639        2.7899027279        3.2693925631
 Ga         4.8696067964        2.7911708700        5.2596363326
  N         4.8722531413        4.6651808637        5.8481083959
 Ga         4.8727390995        4.6640242437        7.8477449860
  N         4.8709667492        2.7914474835        8.4502828017
 Ga         4.8737640569        2.7956082646       10.4496012520
  N         4.8796029731        4.6660086250       11.0587367235
 Ga         4.8808237774        4.6696494031       13.0612937145
  N         4.8759429534        2.7957109262       13.6542163157
 Ga         4.8827473243        2.8015847012       15.6675011310
  N         4.8616358031        4.6736095931       16.1677603665
 Ga         4.9241720283        4.6630093144       19.1257163964
  N         4.9396476260        2.7881000191       18.7410207364
 Ga         3.2489107873        5.5950404867        0.3233032098
  N         3.2480345768        7.4655296910        0.6067323330
 Ga         3.2754848287        7.4805742331        2.6380750472
  N         3.2486677940        5.5952810103        3.2291910698
 Ga         3.2500898119        5.5963547127        5.2408682938
  N         3.2504887657        7.4661964338        5.8494061156
 Ga         3.2531393573        7.4666250979        7.8497947298
  N         3.2515144777        5.5960066383        8.4550073161
 Ga         3.2549080932        5.5976858907       10.4542063703
  N         3.2566966045        7.4714545571       11.0510632255
 Ga         3.2574552655        7.4729432148       13.0483033612
  N         3.2491501089        5.5988014606       13.6296632751
 Ga         3.2567221593        5.6062031256       15.6351089295
  N         3.2802037844        7.4865123917       16.1578951051
 Ga         3.3275816360        7.4916319620       18.1710068862
  N         3.3652132726        5.5693503900       18.4649342207
  O         1.7978716125        4.9733801545       21.1740682599
  H         1.0559009236        5.3677751053       20.5536888508
  C         0.8910196425        4.0413535186       21.8499314993
  H         0.1397107705        3.5594630823       21.2012819911
  H         1.5367743883        3.2227582913       22.1827405692
  H         0.3323372239        4.3679699647       22.7421231080
  O         4.0726082203        4.7120469298       21.0624029758
  H         3.0493756010        4.8776528131       21.1131189883
  C         4.5401678039        3.6241788434       21.9231207548
  H         4.1234020833        2.6731617540       21.5645876645
  H         5.6320191586        3.5051549321       21.9648480555
  H         4.1833584030        3.8070716786       22.9443379137
     156
 i =        2, E =     -6136.6585240673
 Ga        -0.0031989269       -0.0158435643       -0.5389543913
  N        -0.0002607305        1.8585312266        0.6071547701
 Ga        -0.0003096995        1.8279835954        2.6383335215
  N        -0.0033606788       -0.0156163583        3.2698095785
 Ga        -0.0021531954       -0.0150490287        5.2604061608
  N         0.0008463086        1.8597047377        5.8483792901
 Ga         0.0023562165        1.8581823785        7.8483032603
  N         0.0008778160       -0.0150116261        8.4504154647
 Ga         0.0038332427       -0.0157069614       10.4495627935
  N         0.0043273093        1.8600302507       11.0421941792
 Ga         0.0099525437        1.8620321407       13.0327948741
  N         0.0155620502       -0.0087058083       13.6343654686
 Ga         0.0313765771       -0.0205393933       15.6269091213
  N         0.0220264718        1.8572608053       16.2201107591
 Ga         0.0452794463        1.8483365333       18.2859769626
  N         0.0467856196       -0.0247861006       18.6968270809
 Ga        -1.6229648496        2.7898245297        0.3239080250
  N        -1.6247810434        4.6597420765        0.6066344502
 Ga        -1.5957186151        4.6757062781        2.6367541252
  N        -1.6230800870        2.7899715244        3.2283480570
 Ga        -1.6217552092        2.7906473311        5.2398483563
  N        -1.6212484479        4.6609163004        5.8465633248
 Ga        -1.6190882321        4.6616341945        7.8452689041
  N        -1.6203688699        2.7918793429        8.4511638644
 Ga        -1.6194376385        2.7954090168       10.4471553084
  N        -1.6175345561        4.6668536996       11.0554332978
 Ga        -1.6183716889        4.6712313435       13.0531469081
  N        -1.6066751121        2.7996264247       13.6599164142
 Ga        -1.6014292641        2.8163384797       15.6647710061
  N        -1.5866390043        4.6836052567       16.3122286940
 Ga        -1.5131878009        4.6821770109       18.3889403105
  N        -1.5537031780        2.7880034345       18.7529598582
 Ga        -3.2437291195        5.5956423139        0.3238280055
  N        -3.2373044981        7.4661188640        0.6074173357
 Ga        -3.2641980469        7.4807182088        2.6384850374
  N        -3.2426739807        5.5950407158        3.2286896908
 Ga        -3.2419026742        5.5960163140        5.2400989464
  N        -3.2357456262        7.4663147389        5.8470221982
 Ga        -3.2358202638        7.4670754161        7.8461346409
  N        -3.2398737651        5.5962229814        8.4496280783
 Ga        -3.2390161632        5.5972701114       10.4451783851
  N        -3.2308979364        7.4659117872       11.0556971156
 Ga        -3.2220710788        7.4628650497       13.0546034762
  N        -3.2361562204        5.5970249528       13.6924228660
 Ga        -3.2230432512        5.5916250172       15.7296725472
  N        -3.2069565714        7.4718601124       16.2722623232
 Ga        -3.1880686269        7.4460706531       18.3294700655
  N        -3.1617083023        5.5835888669       18.8537424780
 Ga         3.2424899520       -0.0154851140        0.3242147844
  N         3.2415376699        1.8548398788        0.6063716876
 Ga         3.2696509506        1.8704293370        2.6373105858
  N         3.2428172955       -0.0153094162        3.2283499714
 Ga         3.2440494958       -0.0145887723        5.2399713447
  N         3.2446785353        1.8555499969        5.8475398226
 Ga         3.2471682435        1.8563072494        7.8468828621
  N         3.2448737867       -0.0146101434        8.4498754007
 Ga         3.2477068259       -0.0140653473       10.4454465427
  N         3.2517410026        1.8569766000       11.0513906626
 Ga         3.2586577381        1.8538308032       13.0487401132
  N         3.2574501793       -0.0165928873       13.6600273145
 Ga         3.2683063072       -0.0189103121       15.6658833716
  N         3.2839544065        1.8532521001       16.2330777146
 Ga         3.3213120055        1.8610304181       18.2582953257
  N         3.3044588556       -0.0252046515       18.7156143251
 Ga         1.6220753003        2.7905340875        0.3238258023
  N         1.6293340525        4.6603727811        0.6069719291
 Ga         1.6012404689        4.6758413655        2.6371266765
  N         1.6229486990        2.7900815118        3.2290866905
 Ga         1.6243381708        2.7909830970        5.2408899444
  N         1.6297443536        4.6611631677        5.8484663057
 Ga         1.6302779027        4.6616905465        7.8483831668
  N         1.6262009203        2.7903465263        8.4496357747
 Ga         1.6297452478        2.7921865379       10.4451087751
  N         1.6278279151        4.6624655858       11.0488772654
 Ga         1.6287365513        4.6649720745       13.0445884168
  N         1.6316665794        2.7876121997       13.6467047400
 Ga         1.6565834061        2.7862111193       15.6410091959
  N         1.6280170970        4.6647737009       16.1823942704
 Ga         1.6778570221        4.6406055385       18.1790858218
  N         1.6847721605        2.7785210073       18.6318474641
 Ga         0.0031528813        5.5957701900       -0.5457111324
  N         0.0059755258        7.4707430864        0.6066386673
 Ga         0.0060978818        7.4383436102        2.6368468872
  N         0.0030363429        5.5951869426        3.2694758021
 Ga         0.0047251963        5.5962237847        5.2597506061
  N         0.0074930806        7.4707297833        5.8478734595
 Ga         0.0089371241        7.4693666741        7.8474822229
  N         0.0050023751        5.5956910568        8.4475610636
 Ga         0.0067004332        5.5972193945       10.4449057344
  N         0.0116859992        7.4694783835       11.0448066998
 Ga         0.0151100761        7.4717345488       13.0369080843
  N         0.0053825933        5.6031111021       13.6448667571
 Ga         0.0068334119        5.6010643850       15.6411211275
  N         0.0380915573        7.4673216009       16.2661997297
 Ga         0.0696535860        7.4314051969       18.3548951250
  N         0.1430268798        5.5810478750       18.9125265814
 Ga         6.4874093761       -0.0150546315        0.3234403020
  N         6.4933096138        1.8552753623        0.6060465945
 Ga         6.4661324137        1.8702732463        2.6371093188
  N         6.4880770294       -0.0152212650        3.2289762609
 Ga         6.4898052640       -0.0146110586        5.2408792045
  N         6.4945916316        1.8559355777        5.8480112409
 Ga         6.4944119003        1.8568653426        7.8475096562
  N         6.4910337313       -0.0134929509        8.4515380963
 Ga         6.4946049961       -0.0111601625       10.4481859592
  N         6.4964436292        1.8613016547       11.0532621314
 Ga         6.5011007982        1.8657277322       13.0506003319
  N         6.4903575548       -0.0067362288       13.6370220058
 Ga         6.5097216977       -0.0000758954       15.6373877368
  N         6.5158973067        1.8727218157       16.2301909023
 Ga         6.5720567013        1.8758422892       18.2717832063
  N         6.5596490171       -0.0225139430       18.6594894628
 Ga         4.8676170356        2.7915934444       -0.5403996705
  N         4.8710093058        4.6643043898        0.6069129350
 Ga         4.8708534060        4.6332630672        2.6375856637
  N         4.8683303252        2.7899014033        3.2692853806
 Ga         4.8696297989        2.7911970930        5.2595310919
  N         4.8722816710        4.6651976302        5.8482165890
 Ga         4.8727554911        4.6640931705        7.8478579615
  N         4.8709766831        2.7914932789        8.4504185911
 Ga         4.8738186281        2.7956969238       10.4496264302
  N         4.8794809068        4.6659887570       11.0583542413
 Ga         4.8805746602        4.6698418861       13.0609175909
  N         4.8759601666        2.7960761656       13.6549004000
 Ga         4.8825377641        2.8012318769       15.6692214622
  N         4.8600798353        4.6743272147       16.1647879394
 Ga         4.9267531238        4.6635750596       19.1109360233
  N         4.9409467620        2.7867214627       18.7413551590
 Ga         3.2489268584        5.5951188211        0.3233872943
  N         3.2479907605        7.4654904802        0.6069553660
 Ga         3.2755256194        7.4805747767        2.6380835277
  N         3.2486877247        5.5952805402        3.2291621729
 Ga         3.2501155630        5.5963521954        5.2407875369
  N         3.2504964198        7.4662026080        5.8494967904
 Ga         3.2531278452        7.4665986660        7.8498986740
  N         3.2515323459        5.5960158106        8.4551375446
 Ga         3.2548869657        5.5977477933       10.4542964695
  N         3.2567840438        7.4716116655       11.0502943231
 Ga         3.2575495760        7.4733472369       13.0475007663
  N         3.2486556878        5.5993620921       13.6280180858
 Ga         3.2554678378        5.6064888849       15.6335014127
  N         3.2795525023        7.4860638933       16.1584002364
 Ga         3.3257964482        7.4929389526       18.1714019754
  N         3.3652088237        5.5694994096       18.4556927144
  O         1.6379939795        5.0172828942       21.2177418301
  H         1.0489789073        5.4020055574       20.4832920619
  C         0.8755209498        3.9802399768       21.8793914522
  H         0.1363693103        3.5633535138       21.1758845743
  H         1.5610500351        3.1899668418       22.1980115265
  H         0.3389824220        4.3983747912       22.7483721720
  O         4.1665552859        4.7160130986       21.0711144046
  H         3.1298711385        4.8627050307       21.1094626341
  C         4.5332049054        3.6072442828       21.9361096154
  H         4.1189143223        2.6614544555       21.5612204180
  H         5.6286765386        3.5204370717       21.9533502605
  H         4.1787138544        3.8118512965       22.9538619995
     156
 i =        3, E =     -6136.6593366778
 Ga        -0.0031977352       -0.0158431378       -0.5397119086
  N        -0.0002348915        1.8585481854        0.6069660837
 Ga        -0.0002525411        1.8276327360        2.6380029431
  N        -0.0033223734       -0.0156450020        3.2701253333
 Ga        -0.0021168401       -0.0150104823        5.2605865224
  N         0.0009163992        1.8597531286        5.8485493097
 Ga         0.0024855213        1.8583201938        7.8485503233
  N         0.0010249237       -0.0149850885        8.4499288228
 Ga         0.0041823026       -0.0152629293       10.4489827814
  N         0.0043324244        1.8599813830       11.0450009225
 Ga         0.0107817010        1.8618089701       13.0365931365
  N         0.0165795471       -0.0091642184       13.6374216296
 Ga         0.0329510619       -0.0239633956       15.6305384212
  N         0.0246663542        1.8567358684       16.2193591760
 Ga         0.0467692129        1.8502434187       18.2833597573
  N         0.0437893605       -0.0218503796       18.6923586247
 Ga        -1.6226915014        2.7899382462        0.3241506143
  N        -1.6246316105        4.6597867816        0.6066691111
 Ga        -1.5958470326        4.6756207894        2.6368440834
  N        -1.6228929125        2.7897839509        3.2283491570
 Ga        -1.6216820264        2.7907126744        5.2400220004
  N        -1.6211776968        4.6609975219        5.8467612695
 Ga        -1.6190491621        4.6617892650        7.8455781990
  N        -1.6203108142        2.7919810419        8.4510813865
 Ga        -1.6191390446        2.7954096426       10.4470327301
  N        -1.6176538679        4.6665719949       11.0558250263
 Ga        -1.6188884498        4.6705889198       13.0536629675
  N        -1.6060474789        2.7995364464       13.6627788375
 Ga        -1.6016676417        2.8155055194       15.6677660284
  N        -1.5875387343        4.6811969628       16.3145012089
 Ga        -1.5130177035        4.6843587806       18.3932813846
  N        -1.5525284271        2.7875510989       18.7431079053
 Ga        -3.2434512881        5.5957707857        0.3240890789
  N        -3.2372072261        7.4660921423        0.6072046631
 Ga        -3.2644449196        7.4808615059        2.6381344615
  N        -3.2427281817        5.5952464892        3.2286639210
 Ga        -3.2418287526        5.5960405155        5.2402143047
  N        -3.2356842536        7.4663483412        5.8470998277
 Ga        -3.2356644086        7.4670553736        7.8462678211
  N        -3.2398184532        5.5963346194        8.4499233907
 Ga        -3.2390200072        5.5972378941       10.4457240330
  N        -3.2310848011        7.4660593822       11.0554092745
 Ga        -3.2224092877        7.4624204979       13.0543796710
  N        -3.2364562540        5.5967872319       13.6923550446
 Ga        -3.2234103877        5.5904677594       15.7303066043
  N        -3.2049789753        7.4673018421       16.2746153826
 Ga        -3.1920032316        7.4436159049       18.3317335873
  N        -3.1616887976        5.5828331300       18.8612046505
 Ga         3.2425410091       -0.0157498636        0.3244574895
  N         3.2414574951        1.8547691664        0.6059424329
 Ga         3.2696408355        1.8703922215        2.6372841489
  N         3.2426270953       -0.0153622676        3.2283263413
 Ga         3.2441363469       -0.0145966634        5.2400890445
  N         3.2447219328        1.8555575902        5.8476463909
 Ga         3.2472116950        1.8563223432        7.8470788798
  N         3.2448482010       -0.0145338130        8.4499209981
 Ga         3.2475600315       -0.0139040166       10.4455455410
  N         3.2519014017        1.8571020815       11.0513976768
 Ga         3.2592751841        1.8535022516       13.0486859753
  N         3.2562528785       -0.0164707672       13.6606010204
 Ga         3.2658428383       -0.0185638892       15.6669926181
  N         3.2843178728        1.8517719628       16.2364744733
 Ga         3.3229617154        1.8615995797       18.2628593716
  N         3.3009871789       -0.0247511751       18.7241020741
 Ga         1.6218670888        2.7906496166        0.3241023273
  N         1.6292451347        4.6604142545        0.6070375859
 Ga         1.6014729935        4.6757312948        2.6372264871
  N         1.6228547457        2.7898986549        3.2290795918
 Ga         1.6243744914        2.7910460470        5.2410165086
  N         1.6297808136        4.6612192484        5.8485964448
 Ga         1.6302834115        4.6617678891        7.8486027935
  N         1.6263576186        2.7904560149        8.4497163221
 Ga         1.6296371509        2.7920603314       10.4452878418
  N         1.6277526589        4.6625247934       11.0476838251
 Ga         1.6272945204        4.6651409186       13.0432308476
  N         1.6334162774        2.7883735764       13.6470828772
 Ga         1.6585332884        2.7867301269       15.6409821543
  N         1.6261299507        4.6642411214       16.1771206920
 Ga         1.6780164688        4.6414102600       18.1727877791
  N         1.6848400024        2.7808796138       18.6261060615
 Ga         0.0032192968        5.5957565335       -0.5464166792
  N         0.0060084070        7.4705992132        0.6067185361
 Ga         0.0061378490        7.4385303961        2.6369671813
  N         0.0030944808        5.5951821516        3.2693305209
 Ga         0.0047862295        5.5962655101        5.2598200352
  N         0.0075500358        7.4707429063        5.8481393548
 Ga         0.0089011674        7.4693802648        7.8478723166
  N         0.0050517487        5.5957163622        8.4475740080
 Ga         0.0064069678        5.5970917307       10.4449954989
  N         0.0116679710        7.4695554782       11.0443024085
 Ga         0.0145351569        7.4726027836       13.0365626884
  N         0.0044835781        5.6037633221       13.6440238807
 Ga         0.0061335296        5.5996428916       15.6406849304
  N         0.0393444302        7.4692337044       16.2624611928
 Ga         0.0643700263        7.4340423127       18.3516280997
  N         0.1468852642        5.5838961332       18.9145635688
 Ga         6.4874334699       -0.0153250407        0.3237084711
  N         6.4934563969        1.8552043132        0.6056176847
 Ga         6.4662150336        1.8702196611        2.6370797396
  N         6.4883382521       -0.0152754394        3.2289698197
 Ga         6.4898405846       -0.0146341498        5.2410019643
  N         6.4946505359        1.8559176380        5.8481180794
 Ga         6.4944580807        1.8569450104        7.8477186109
  N         6.4910278687       -0.0134041650        8.4513578177
 Ga         6.4946242294       -0.0105987801       10.4481428544
  N         6.4967432922        1.8618318284       11.0541934389
 Ga         6.5012414514        1.8669081170       13.0519417187
  N         6.4911017997       -0.0060715389       13.6349079898
 Ga         6.5099802425        0.0013888548       15.6348394864
  N         6.5167450239        1.8719765082       16.2335154417
 Ga         6.5705717776        1.8741736843       18.2757366609
  N         6.5580426976       -0.0246551120       18.6637808570
 Ga         4.8676594518        2.7915299530       -0.5383856631
  N         4.8710479766        4.6644145577        0.6064632126
 Ga         4.8708839399        4.6333218683        2.6375431563
  N         4.8683734485        2.7899084696        3.2691909839
 Ga         4.8696890597        2.7912378021        5.2596810844
  N         4.8723404024        4.6652595314        5.8483338734
 Ga         4.8728445726        4.6642080416        7.8481130413
  N         4.8710013059        2.7915457697        8.4504127642
 Ga         4.8739792152        2.7956703937       10.4497197210
  N         4.8791616820        4.6659376766       11.0581942629
 Ga         4.8803642097        4.6697056124       13.0613168118
  N         4.8754319840        2.7963576381       13.6570111357
 Ga         4.8828416667        2.7988426524       15.6726587586
  N         4.8560726898        4.6742625310       16.1575302003
 Ga         4.9256670816        4.6631717968       19.1180417084
  N         4.9417746232        2.7873567561       18.7460770666
 Ga         3.2487128580        5.5952301066        0.3236794214
  N         3.2479627012        7.4654453544        0.6068000580
 Ga         3.2758417426        7.4807115200        2.6377742328
  N         3.2488200223        5.5954868404        3.2291742768
 Ga         3.2501444261        5.5963885776        5.2409317309
  N         3.2505397070        7.4662324399        5.8496028105
 Ga         3.2531411686        7.4666426212        7.8500961087
  N         3.2515322464        5.5960716083        8.4548665593
 Ga         3.2548361417        5.5979252495       10.4541476968
  N         3.2571462010        7.4721255531       11.0492947383
 Ga         3.2582991650        7.4744903888       13.0465733700
  N         3.2470826578        5.6003306809       13.6242002711
 Ga         3.2544566303        5.6082336077       15.6297576468
  N         3.2779369182        7.4864396094       16.1577293656
 Ga         3.3235414144        7.4926355968       18.1705469750
  N         3.3702911320        5.5672643944       18.4433539800
  O         1.6490031022        5.0292779648       21.2266844714
  H         1.0556037451        5.3920924128       20.4848919155
  C         0.8747633924        3.9882177512       21.8677722191