 DBCSR| Multiplication driver                                               BLAS
 DBCSR| Multrec recursion limit                                              512
 DBCSR| Multiplication stack size                                           1000
 DBCSR| Maximum elements for images                                    UNLIMITED
 DBCSR| Multiplicative factor virtual images                                   1
 DBCSR| Multiplication size stacks                                             3
 DBCSR| Number of 3D layers                                               SINGLE
 DBCSR| Use MPI memory allocation                                              T
 DBCSR| Use RMA algorithm                                                      F
 DBCSR| Use Communication thread                                               T
 DBCSR| Communication thread load                                             87


  **** **** ******  **  PROGRAM STARTED AT               2019-06-30 02:33:07.862
 ***** ** ***  *** **   PROGRAM STARTED ON        blg4712.int.ets1.calculquebec.
 **    ****   ******    PROGRAM STARTED BY                                   rzk
 ***** **    ** ** **   PROGRAM PROCESS ID                                 68044
  **** **  *******  **  PROGRAM STARTED IN /scratch/rzk/rzk/GaN-carbene/443-adat
                                           oms-both-2x2/04-2Methanol/02-Combine1
                                           2-Rotate60

 CP2K| version string:                    CP2K version 7.0 (Development Version)
 CP2K| source code revision number:                                    svn:18619
 CP2K| cp2kflags: libint fftw3 libxc parallel mpi3 scalapack mkl                
 CP2K| is freely available from                            https://www.cp2k.org/
 CP2K| Program compiled at                          Sun Apr  7 00:48:11 EDT 2019
 CP2K| Program compiled on                      beluga2.int.ets1.calculquebec.ca
 CP2K| Program compiled for                    Beluga-Linux-x86-64-intel-openmpi
 CP2K| Data directory path    /home/rzk/projects/def-rzk/group/cp2k/cp2k-mcgill/
 CP2K| Input file name                                              start.01.inp
 
 GLOBAL| Force Environment number                                              1
 GLOBAL| Basis set file name                                        BASIS_MOLOPT
 GLOBAL| Potential file name                                      GTH_POTENTIALS
 GLOBAL| MM Potential file name                                     MM_POTENTIAL
 GLOBAL| Coordinate file name                                      __STD_INPUT__
 GLOBAL| Method name                                                        CP2K
 GLOBAL| Project name                                                       TEST
 GLOBAL| Preferred FFT library                                             FFTW3
 GLOBAL| Preferred diagonalization lib.                                       SL
 GLOBAL| Run type                                                        GEO_OPT
 GLOBAL| All-to-all communication in single precision                          F
 GLOBAL| FFTs using library dependent lengths                                  F
 GLOBAL| Global print level                                               MEDIUM
 GLOBAL| MPI I/O enabled                                                       T
 GLOBAL| Total number of message passing processes                            80
 GLOBAL| Number of threads for this process                                    1
 GLOBAL| This output is from process                                           0
 GLOBAL| CPU model name :  Intel(R) Xeon(R) Gold 6148 CPU @ 2.40GHz

 MEMORY| system memory details [Kb]
 MEMORY|                        rank 0           min           max       average
 MEMORY| MemTotal            196614300     196614300     196614300     196614300
 MEMORY| MemFree             182225844     182221688     183697480     182934795
 MEMORY| Buffers                    76            76            76            76
 MEMORY| Cached                1233644       1233644       1252452       1243048
 MEMORY| Slab                  2181820       1689668       2181820       1935744
 MEMORY| SReclaimable           255064        186952        255064        221008
 MEMORY| MemLikelyFree       183714628     183710472     185136960     184398927


 *** Fundamental physical constants (SI units) ***

 *** Literature: B. J. Mohr and B. N. Taylor,
 ***             CODATA recommended values of the fundamental physical
 ***             constants: 2006, Web Version 5.1
 ***             http://physics.nist.gov/constants

 Speed of light in vacuum [m/s]                             2.99792458000000E+08
 Magnetic constant or permeability of vacuum [N/A**2]       1.25663706143592E-06
 Electric constant or permittivity of vacuum [F/m]          8.85418781762039E-12
 Planck constant (h) [J*s]                                  6.62606896000000E-34
 Planck constant (h-bar) [J*s]                              1.05457162825177E-34
 Elementary charge [C]                                      1.60217648700000E-19
 Electron mass [kg]                                         9.10938215000000E-31
 Electron g factor [ ]                                     -2.00231930436220E+00
 Proton mass [kg]                                           1.67262163700000E-27
 Fine-structure constant                                    7.29735253760000E-03
 Rydberg constant [1/m]                                     1.09737315685270E+07
 Avogadro constant [1/mol]                                  6.02214179000000E+23
 Boltzmann constant [J/K]                                   1.38065040000000E-23
 Atomic mass unit [kg]                                      1.66053878200000E-27
 Bohr radius [m]                                            5.29177208590000E-11

 *** Conversion factors ***

 [u] -> [a.u.]                                              1.82288848426455E+03
 [Angstrom] -> [Bohr] = [a.u.]                              1.88972613288564E+00
 [a.u.] = [Bohr] -> [Angstrom]                              5.29177208590000E-01
 [a.u.] -> [s]                                              2.41888432650478E-17
 [a.u.] -> [fs]                                             2.41888432650478E-02
 [a.u.] -> [J]                                              4.35974393937059E-18
 [a.u.] -> [N]                                              8.23872205491840E-08
 [a.u.] -> [K]                                              3.15774647902944E+05
 [a.u.] -> [kJ/mol]                                         2.62549961709828E+03
 [a.u.] -> [kcal/mol]                                       6.27509468713739E+02
 [a.u.] -> [Pa]                                             2.94210107994716E+13
 [a.u.] -> [bar]                                            2.94210107994716E+08
 [a.u.] -> [atm]                                            2.90362800883016E+08
 [a.u.] -> [eV]                                             2.72113838565563E+01
 [a.u.] -> [Hz]                                             6.57968392072181E+15
 [a.u.] -> [1/cm] (wave numbers)                            2.19474631370540E+05
 [a.u./Bohr**2] -> [1/cm]                                   5.14048714338585E+03
 

 CELL_TOP| Volume [angstrom^3]:                                         4586.323
 CELL_TOP| Vector a [angstrom    12.864     0.000     0.000    |a| =      12.864
 CELL_TOP| Vector b [angstrom    -6.432    11.141     0.000    |b| =      12.864
 CELL_TOP| Vector c [angstrom     0.000     0.000    32.000    |c| =      32.000
 CELL_TOP| Angle (b,c), alpha [degree]:                                   90.000
 CELL_TOP| Angle (a,c), beta  [degree]:                                   90.000
 CELL_TOP| Angle (a,b), gamma [degree]:                                  120.000
 CELL_TOP| Numerically orthorhombic:                                          NO
 
 GENERATE|  Preliminary Number of Bonds generated:                             0
 GENERATE|  Achieved consistency in connectivity generation.

 CELL| Volume [angstrom^3]:                                             4586.323
 CELL| Vector a [angstrom]:      12.864     0.000     0.000    |a| =      12.864
 CELL| Vector b [angstrom]:      -6.432    11.141     0.000    |b| =      12.864
 CELL| Vector c [angstrom]:       0.000     0.000    32.000    |c| =      32.000
 CELL| Angle (b,c), alpha [degree]:                                       90.000
 CELL| Angle (a,c), beta  [degree]:                                       90.000
 CELL| Angle (a,b), gamma [degree]:                                      120.000
 CELL| Numerically orthorhombic:                                              NO

 CELL_REF| Volume [angstrom^3]:                                         4670.759
 CELL_REF| Vector a [angstrom    12.982     0.000     0.000    |a| =      12.982
 CELL_REF| Vector b [angstrom    -6.491    11.243     0.000    |b| =      12.982
 CELL_REF| Vector c [angstrom     0.000     0.000    32.000    |c| =      32.000
 CELL_REF| Angle (b,c), alpha [degree]:                                   90.000
 CELL_REF| Angle (a,c), beta  [degree]:                                   90.000
 CELL_REF| Angle (a,b), gamma [degree]:                                  120.000
 CELL_REF| Numerically orthorhombic:                                          NO

 *******************************************************************************
 *******************************************************************************
 **                                                                           **
 **     #####                         ##              ##                      **
 **    ##   ##            ##          ##              ##                      **
 **   ##     ##                       ##            ######                    **
 **   ##     ##  ##   ##  ##   #####  ##  ##   ####   ##    #####    #####    **
 **   ##     ##  ##   ##  ##  ##      ## ##   ##      ##   ##   ##  ##   ##   **
 **   ##  ## ##  ##   ##  ##  ##      ####     ###    ##   ######   ######    **
 **    ##  ###   ##   ##  ##  ##      ## ##      ##   ##   ##       ##        **
 **     #######   #####   ##   #####  ##  ##  ####    ##    #####   ##        **
 **           ##                                                    ##        **
 **                                                                           **
 **                                                ... make the atoms dance   **
 **                                                                           **
 **            Copyright (C) by CP2K developers group (2000 - 2018)           **
 **                                                                           **
 *******************************************************************************

 DFT| Spin unrestricted (spin-polarized) Kohn-Sham calculation               UKS
 DFT| Multiplicity                                                             1
 DFT| Number of spin states                                                    2
 DFT| Charge                                                                   0
 DFT| Self-interaction correction (SIC)                                       NO
 DFT| Cutoffs: density                                              1.000000E-10
 DFT|          gradient                                             1.000000E-10
 DFT|          tau                                                  1.000000E-10
 DFT|          cutoff_smoothing_range                               0.000000E+00
 DFT| XC density smoothing                                                  NONE
 DFT| XC derivatives                                                          PW
 FUNCTIONAL| ROUTINE=NEW
 FUNCTIONAL| PBE:
 FUNCTIONAL| J.P.Perdew, K.Burke, M.Ernzerhof, Phys. Rev. Letter, vol. 77, n 18,
 FUNCTIONAL|  pp. 3865-3868, (1996){spin polarized}                             
 vdW POTENTIAL|                                                   Pair Potential
 vdW POTENTIAL|          DFT-D3 (Version 3.1)
 vdW POTENTIAL|          Potential Form: S. Grimme et al, JCP 132: 154104 (2010)
 vdW POTENTIAL|          Zero Damping
 vdW POTENTIAL|          Cutoff Radius [Bohr]:                             18.90
 vdW POTENTIAL|          s6 Scaling Factor:                               1.0000
 vdW POTENTIAL|          sr6 Scaling Factor:                              1.2170
 vdW POTENTIAL|          s8 Scaling Factor:                               0.7220
 vdW POTENTIAL|          Cutoff for CN calculation:                   0.1000E-05

 QS| Method:                                                                 GPW
 QS| Density plane wave grid type                        NON-SPHERICAL FULLSPACE
 QS| Number of grid levels:                                                    5
 QS| Density cutoff [a.u.]:                                                600.0
 QS| Multi grid cutoff [a.u.]: 1) grid level                               600.0
 QS|                           2) grid level                               200.0
 QS|                           3) grid level                                66.7
 QS|                           4) grid level                                22.2
 QS|                           5) grid level                                 7.4
 QS| Grid level progression factor:                                          3.0
 QS| Relative density cutoff [a.u.]:                                        20.0
 QS| Consistent realspace mapping and integration 
 QS| Interaction thresholds: eps_pgf_orb:                                1.0E-07
 QS|                         eps_filter_matrix:                          0.0E+00
 QS|                         eps_core_charge:                            1.0E-16
 QS|                         eps_rho_gspace:                             1.0E-14
 QS|                         eps_rho_rspace:                             1.0E-14
 QS|                         eps_gvg_rspace:                             1.0E-07
 QS|                         eps_ppl:                                    1.0E-02
 QS|                         eps_ppnl:                                   1.0E-09


 ATOMIC KIND INFORMATION

  1. Atomic kind: N                                     Number of atoms:     100

     Orbital Basis Set                                        DZVP-MOLOPT-SR-GTH

       Number of orbital shell sets:                                           1
       Number of orbital shells:                                               5
       Number of primitive Cartesian functions:                                5
       Number of Cartesian basis functions:                                   14
       Number of spherical basis functions:                                   13
       Norm type:                                                              2

       Normalised Cartesian orbitals:

                        Set   Shell   Orbital            Exponent    Coefficient

                          1       1    2s                7.341988       0.360561
                                                         2.542637       0.139177
                                                         0.888575      -0.289383
                                                         0.333802      -0.182244
                                                         0.112012      -0.019197

                          1       2    3s                7.341988       0.282000
                                                         2.542637       0.177875
                                                         0.888575      -0.278381
                                                         0.333802       0.008577
                                                         0.112012       0.154176

                          1       3    3px               7.341988      -1.188719
                                                         2.542637      -0.973969
                                                         0.888575      -0.501079
                                                         0.333802      -0.144894
                                                         0.112012      -0.013986
                          1       3    3py               7.341988      -1.188719
                                                         2.542637      -0.973969
                                                         0.888575      -0.501079
                                                         0.333802      -0.144894
                                                         0.112012      -0.013986
                          1       3    3pz               7.341988      -1.188719
                                                         2.542637      -0.973969
                                                         0.888575      -0.501079
                                                         0.333802      -0.144894
                                                         0.112012      -0.013986

                          1       4    4px               7.341988      -0.094798
                                                         2.542637       0.050069
                                                         0.888575      -0.114797
                                                         0.333802       0.144793
                                                         0.112012       0.066710
                          1       4    4py               7.341988      -0.094798
                                                         2.542637       0.050069
                                                         0.888575      -0.114797
                                                         0.333802       0.144793
                                                         0.112012       0.066710
                          1       4    4pz               7.341988      -0.094798
                                                         2.542637       0.050069
                                                         0.888575      -0.114797
                                                         0.333802       0.144793
                                                         0.112012       0.066710

                          1       5    4dx2              7.341988       1.354688
                                                         2.542637       0.690378
                                                         0.888575       0.855359
                                                         0.333802       0.091746
                                                         0.112012       0.001253
                          1       5    4dxy              7.341988       2.346389
                                                         2.542637       1.195770
                                                         0.888575       1.481524
                                                         0.333802       0.158910
                                                         0.112012       0.002169
                          1       5    4dxz              7.341988       2.346389
                                                         2.542637       1.195770
                                                         0.888575       1.481524
                                                         0.333802       0.158910
                                                         0.112012       0.002169
                          1       5    4dy2              7.341988       1.354688
                                                         2.542637       0.690378
                                                         0.888575       0.855359
                                                         0.333802       0.091746
                                                         0.112012       0.001253
                          1       5    4dyz              7.341988       2.346389
                                                         2.542637       1.195770
                                                         0.888575       1.481524
                                                         0.333802       0.158910
                                                         0.112012       0.002169
                          1       5    4dz2              7.341988       1.354688
                                                         2.542637       0.690378
                                                         0.888575       0.855359
                                                         0.333802       0.091746
                                                         0.112012       0.001253

     GTH Potential information for                                    GTH-PBE-q5

       Description:                       Goedecker-Teter-Hutter pseudopotential
                                           Goedecker et al., PRB 54, 1703 (1996)
                                          Hartwigsen et al., PRB 58, 3641 (1998)
                                                      Krack, TCA 114, 145 (2005)

       Gaussian exponent of the core charge distribution:               6.208322
       Electronic configuration (s p d ...):                               2   3

       Parameters of the local part of the GTH pseudopotential:

                          rloc        C1          C2          C3          C4
                        0.283791  -12.415226    1.868096

       Parameters of the non-local part of the GTH pseudopotential:

                   l      r(l)      h(i,j,l)

                   0    0.255405   13.630263
                   1    0.245495

  2. Atomic kind: Ga                                    Number of atoms:     100

     Orbital Basis Set                                        DZVP-MOLOPT-SR-GTH

       Number of orbital shell sets:                                           1
       Number of orbital shells:                                               7
       Number of primitive Cartesian functions:                                6
       Number of Cartesian basis functions:                                   30
       Number of spherical basis functions:                                   25
       Norm type:                                                              2

       Normalised Cartesian orbitals:

                        Set   Shell   Orbital            Exponent    Coefficient

                          1       1    2s                7.066654       0.013136
                                                         3.428369      -0.094392
                                                         1.430064       0.265435
                                                         0.571611       0.056465
                                                         0.232197      -0.192187
                                                         0.076562      -0.044987

                          1       2    3s                7.066654      -0.098564
                                                         3.428369       0.010390
                                                         1.430064       0.351249
                                                         0.571611       0.182615
                                                         0.232197      -0.425358
                                                         0.076562       0.190349

                          1       3    3px               7.066654       0.002364
                                                         3.428369       0.019222
                                                         1.430064       0.250132
                                                         0.571611      -0.058486
                                                         0.232197      -0.159451
                                                         0.076562      -0.020696
                          1       3    3py               7.066654       0.002364
                                                         3.428369       0.019222
                                                         1.430064       0.250132
                                                         0.571611      -0.058486
                                                         0.232197      -0.159451
                                                         0.076562      -0.020696
                          1       3    3pz               7.066654       0.002364
                                                         3.428369       0.019222
                                                         1.430064       0.250132
                                                         0.571611      -0.058486
                                                         0.232197      -0.159451
                                                         0.076562      -0.020696

                          1       4    4px               7.066654       0.492448
                                                         3.428369      -0.614736
                                                         1.430064      -0.191654
                                                         0.571611       0.037801
                                                         0.232197       0.302315
                                                         0.076562      -0.071336
                          1       4    4py               7.066654       0.492448
                                                         3.428369      -0.614736
                                                         1.430064      -0.191654
                                                         0.571611       0.037801
                                                         0.232197       0.302315
                                                         0.076562      -0.071336
                          1       4    4pz               7.066654       0.492448
                                                         3.428369      -0.614736
                                                         1.430064      -0.191654
                                                         0.571611       0.037801
                                                         0.232197       0.302315
                                                         0.076562      -0.071336

                          1       5    4dx2              7.066654     -15.264855
                                                         3.428369      -5.345726
                                                         1.430064      -1.022732
                                                         0.571611      -0.123148
                                                         0.232197      -0.006983
                                                         0.076562      -0.000022
                          1       5    4dxy              7.066654     -26.439504
                                                         3.428369      -9.259069
                                                         1.430064      -1.771423
                                                         0.571611      -0.213299
                                                         0.232197      -0.012094
                                                         0.076562      -0.000037
                          1       5    4dxz              7.066654     -26.439504
                                                         3.428369      -9.259069
                                                         1.430064      -1.771423
                                                         0.571611      -0.213299
                                                         0.232197      -0.012094
                                                         0.076562      -0.000037
                          1       5    4dy2              7.066654     -15.264855
                                                         3.428369      -5.345726
                                                         1.430064      -1.022732
                                                         0.571611      -0.123148
                                                         0.232197      -0.006983
                                                         0.076562      -0.000022
                          1       5    4dyz              7.066654     -26.439504
                                                         3.428369      -9.259069
                                                         1.430064      -1.771423
                                                         0.571611      -0.213299
                                                         0.232197      -0.012094
                                                         0.076562      -0.000037
                          1       5    4dz2              7.066654     -15.264855
                                                         3.428369      -5.345726
                                                         1.430064      -1.022732
                                                         0.571611      -0.123148
                                                         0.232197      -0.006983
                                                         0.076562      -0.000022

                          1       6    5dx2              7.066654      -5.739265
                                                         3.428369      -2.129289
                                                         1.430064      -0.700423
                                                         0.571611       0.161606
                                                         0.232197       0.043513
                                                         0.076562       0.011205
                          1       6    5dxy              7.066654      -9.940698
                                                         3.428369      -3.688037
                                                         1.430064      -1.213168
                                                         0.571611       0.279909
                                                         0.232197       0.075368
                                                         0.076562       0.019407
                          1       6    5dxz              7.066654      -9.940698
                                                         3.428369      -3.688037
                                                         1.430064      -1.213168
                                                         0.571611       0.279909
                                                         0.232197       0.075368
                                                         0.076562       0.019407
                          1       6    5dy2              7.066654      -5.739265
                                                         3.428369      -2.129289
                                                         1.430064      -0.700423
                                                         0.571611       0.161606
                                                         0.232197       0.043513
                                                         0.076562       0.011205
                          1       6    5dyz              7.066654      -9.940698
                                                         3.428369      -3.688037
                                                         1.430064      -1.213168
                                                         0.571611       0.279909
                                                         0.232197       0.075368
                                                         0.076562       0.019407
                          1       6    5dz2              7.066654      -5.739265
                                                         3.428369      -2.129289
                                                         1.430064      -0.700423
                                                         0.571611       0.161606
                                                         0.232197       0.043513
                                                         0.076562       0.011205

                          1       7    5fx3              7.066654       0.705879
                                                         3.428369      -0.273976
                                                         1.430064       0.113667
                                                         0.571611       0.132480
                                                         0.232197       0.012437
                                                         0.076562       0.003241
                          1       7    5fx2y             7.066654       1.578393
                                                         3.428369      -0.612629
                                                         1.430064       0.254167
                                                         0.571611       0.296234
                                                         0.232197       0.027811
                                                         0.076562       0.007246
                          1       7    5fx2z             7.066654       1.578393
                                                         3.428369      -0.612629
                                                         1.430064       0.254167
                                                         0.571611       0.296234
                                                         0.232197       0.027811
                                                         0.076562       0.007246
                          1       7    5fxy2             7.066654       1.578393
                                                         3.428369      -0.612629
                                                         1.430064       0.254167
                                                         0.571611       0.296234
                                                         0.232197       0.027811
                                                         0.076562       0.007246
                          1       7    5fxyz             7.066654       2.733856
                                                         3.428369      -1.061105
                                                         1.430064       0.440230
                                                         0.571611       0.513092
                                                         0.232197       0.048170
                                                         0.076562       0.012551
                          1       7    5fxz2             7.066654       1.578393
                                                         3.428369      -0.612629
                                                         1.430064       0.254167
                                                         0.571611       0.296234
                                                         0.232197       0.027811
                                                         0.076562       0.007246
                          1       7    5fy3              7.066654       0.705879
                                                         3.428369      -0.273976
                                                         1.430064       0.113667
                                                         0.571611       0.132480
                                                         0.232197       0.012437
                                                         0.076562       0.003241
                          1       7    5fy2z             7.066654       1.578393
                                                         3.428369      -0.612629
                                                         1.430064       0.254167
                                                         0.571611       0.296234
                                                         0.232197       0.027811
                                                         0.076562       0.007246
                          1       7    5fyz2             7.066654       1.578393
                                                         3.428369      -0.612629
                                                         1.430064       0.254167
                                                         0.571611       0.296234
                                                         0.232197       0.027811
                                                         0.076562       0.007246
                          1       7    5fz3              7.066654       0.705879
                                                         3.428369      -0.273976
                                                         1.430064       0.113667
                                                         0.571611       0.132480
                                                         0.232197       0.012437
                                                         0.076562       0.003241

     GTH Potential information for                                   GTH-PBE-q13

       Description:                       Goedecker-Teter-Hutter pseudopotential
                                           Goedecker et al., PRB 54, 1703 (1996)
                                          Hartwigsen et al., PRB 58, 3641 (1998)
                                                      Krack, TCA 114, 145 (2005)

       Gaussian exponent of the core charge distribution:               2.082466
       Electronic configuration (s p d ...):                           2   1  10

       Parameters of the local part of the GTH pseudopotential:

                          rloc        C1          C2          C3          C4
                        0.490000

       Parameters of the non-local part of the GTH pseudopotential:

                   l      r(l)      h(i,j,l)

                   0    0.416777   10.475690   -4.921768    0.870706
                                   -4.921768    7.770178   -2.248152
                                    0.870706   -2.248152    1.784415
                   1    0.569627    1.777985    0.195860
                                    0.195860   -0.231744
                   2    0.238126  -16.248680

  3. Atomic kind: O                                     Number of atoms:       2

     Orbital Basis Set                                     DZVP-MOLOPT-SR-GTH-q6

       Number of orbital shell sets:                                           1
       Number of orbital shells:                                               5
       Number of primitive Cartesian functions:                                5
       Number of Cartesian basis functions:                                   14
       Number of spherical basis functions:                                   13
       Norm type:                                                              2

       Normalised Cartesian orbitals:

                        Set   Shell   Orbital            Exponent    Coefficient

                          1       1    2s               10.389228       0.396646
                                                         3.849621       0.208811
                                                         1.388401      -0.301641
                                                         0.496955      -0.274061
                                                         0.162492      -0.033677

                          1       2    3s               10.389228       0.303673
                                                         3.849621       0.240943
                                                         1.388401      -0.313066
                                                         0.496955      -0.043055
                                                         0.162492       0.213991

                          1       3    3px              10.389228      -1.530415
                                                         3.849621      -1.371928
                                                         1.388401      -0.761951
                                                         0.496955      -0.253695
                                                         0.162492      -0.035541
                          1       3    3py              10.389228      -1.530415
                                                         3.849621      -1.371928
                                                         1.388401      -0.761951
                                                         0.496955      -0.253695
                                                         0.162492      -0.035541
                          1       3    3pz              10.389228      -1.530415
                                                         3.849621      -1.371928
                                                         1.388401      -0.761951
                                                         0.496955      -0.253695
                                                         0.162492      -0.035541

                          1       4    4px              10.389228      -0.565392
                                                         3.849621      -0.038231
                                                         1.388401      -0.382373
                                                         0.496955       0.179070
                                                         0.162492       0.122714
                          1       4    4py              10.389228      -0.565392
                                                         3.849621      -0.038231
                                                         1.388401      -0.382373
                                                         0.496955       0.179070
                                                         0.162492       0.122714
                          1       4    4pz              10.389228      -0.565392
                                                         3.849621      -0.038231
                                                         1.388401      -0.382373
                                                         0.496955       0.179070
                                                         0.162492       0.122714

                          1       5    4dx2             10.389228       1.867377
                                                         3.849621       0.670994
                                                         1.388401       1.353441
                                                         0.496955       0.273538
                                                         0.162492       0.006620
                          1       5    4dxy             10.389228       3.234392
                                                         3.849621       1.162195
                                                         1.388401       2.344229
                                                         0.496955       0.473781
                                                         0.162492       0.011466
                          1       5    4dxz             10.389228       3.234392
                                                         3.849621       1.162195
                                                         1.388401       2.344229
                                                         0.496955       0.473781
                                                         0.162492       0.011466
                          1       5    4dy2             10.389228       1.867377
                                                         3.849621       0.670994
                                                         1.388401       1.353441
                                                         0.496955       0.273538
                                                         0.162492       0.006620
                          1       5    4dyz             10.389228       3.234392
                                                         3.849621       1.162195
                                                         1.388401       2.344229
                                                         0.496955       0.473781
                                                         0.162492       0.011466
                          1       5    4dz2             10.389228       1.867377
                                                         3.849621       0.670994
                                                         1.388401       1.353441
                                                         0.496955       0.273538
                                                         0.162492       0.006620

     GTH Potential information for                                    GTH-PBE-q6

       Description:                       Goedecker-Teter-Hutter pseudopotential
                                           Goedecker et al., PRB 54, 1703 (1996)
                                          Hartwigsen et al., PRB 58, 3641 (1998)
                                                      Krack, TCA 114, 145 (2005)

       Gaussian exponent of the core charge distribution:               8.360253
       Electronic configuration (s p d ...):                               2   4

       Parameters of the local part of the GTH pseudopotential:

                          rloc        C1          C2          C3          C4
                        0.244554  -16.667215    2.487311

       Parameters of the non-local part of the GTH pseudopotential:

                   l      r(l)      h(i,j,l)

                   0    0.220956   18.337458
                   1    0.211332

  4. Atomic kind: H                                     Number of atoms:       8

     Orbital Basis Set                                     DZVP-MOLOPT-SR-GTH-q1

       Number of orbital shell sets:                                           1
       Number of orbital shells:                                               3
       Number of primitive Cartesian functions:                                5
       Number of Cartesian basis functions:                                    5
       Number of spherical basis functions:                                    5
       Norm type:                                                              2

       Normalised Cartesian orbitals:

                        Set   Shell   Orbital            Exponent    Coefficient

                          1       1    2s               10.068468      -0.133023
                                                         2.680223      -0.177618
                                                         0.791502      -0.258419
                                                         0.239116      -0.107525
                                                         0.082193      -0.014019

                          1       2    3s               10.068468       0.344673
                                                         2.680223       1.819821
                                                         0.791502      -0.999069
                                                         0.239116       0.017430
                                                         0.082193       0.082660

                          1       3    3px              10.068468       0.155326
                                                         2.680223       0.367157
                                                         0.791502       0.311480
                                                         0.239116       0.080105
                                                         0.082193       0.033440
                          1       3    3py              10.068468       0.155326
                                                         2.680223       0.367157
                                                         0.791502       0.311480
                                                         0.239116       0.080105
                                                         0.082193       0.033440
                          1       3    3pz              10.068468       0.155326
                                                         2.680223       0.367157
                                                         0.791502       0.311480
                                                         0.239116       0.080105
                                                         0.082193       0.033440

     GTH Potential information for                                    GTH-PBE-q1

       Description:                       Goedecker-Teter-Hutter pseudopotential
                                           Goedecker et al., PRB 54, 1703 (1996)
                                          Hartwigsen et al., PRB 58, 3641 (1998)
                                                      Krack, TCA 114, 145 (2005)

       Gaussian exponent of the core charge distribution:              12.500000
       Electronic configuration (s p d ...):                                   1

       Parameters of the local part of the GTH pseudopotential:

                          rloc        C1          C2          C3          C4
                        0.200000   -4.178900    0.724463

  5. Atomic kind: C                                     Number of atoms:       2

     Orbital Basis Set                                     DZVP-MOLOPT-SR-GTH-q4

       Number of orbital shell sets:                                           1
       Number of orbital shells:                                               5
       Number of primitive Cartesian functions:                                5
       Number of Cartesian basis functions:                                   14
       Number of spherical basis functions:                                   13
       Norm type:                                                              2

       Normalised Cartesian orbitals:

                        Set   Shell   Orbital            Exponent    Coefficient

                          1       1    2s                5.605331       0.322515
                                                         2.113016       0.213043
                                                         0.769911      -0.209686
                                                         0.348157      -0.219794
                                                         0.128212      -0.022789

                          1       2    3s                5.605331       0.552234
                                                         2.113016       0.082072
                                                         0.769911       0.007843
                                                         0.348157       0.136893
                                                         0.128212       0.074283

                          1       3    3px               5.605331      -0.703879
                                                         2.113016      -0.642521
                                                         0.769911      -0.374851
                                                         0.348157      -0.139743
                                                         0.128212      -0.027849
                          1       3    3py               5.605331      -0.703879
                                                         2.113016      -0.642521
                                                         0.769911      -0.374851
                                                         0.348157      -0.139743
                                                         0.128212      -0.027849
                          1       3    3pz               5.605331      -0.703879
                                                         2.113016      -0.642521
                                                         0.769911      -0.374851
                                                         0.348157      -0.139743
                                                         0.128212      -0.027849

                          1       4    4px               5.605331      -0.480376
                                                         2.113016      -0.552894
                                                         0.769911      -0.316145
                                                         0.348157       0.210505
                                                         0.128212       0.076095
                          1       4    4py               5.605331      -0.480376
                                                         2.113016      -0.552894
                                                         0.769911      -0.316145
                                                         0.348157       0.210505
                                                         0.128212       0.076095
                          1       4    4pz               5.605331      -0.480376
                                                         2.113016      -0.552894
                                                         0.769911      -0.316145
                                                         0.348157       0.210505
                                                         0.128212       0.076095

                          1       5    4dx2              5.605331       0.640026
                                                         2.113016       0.274300
                                                         0.769911       0.446711
                                                         0.348157       0.028674
                                                         0.128212       0.029790
                          1       5    4dxy              5.605331       1.108557
                                                         2.113016       0.475102
                                                         0.769911       0.773726
                                                         0.348157       0.049666
                                                         0.128212       0.051599
                          1       5    4dxz              5.605331       1.108557
                                                         2.113016       0.475102
                                                         0.769911       0.773726
                                                         0.348157       0.049666
                                                         0.128212       0.051599
                          1       5    4dy2              5.605331       0.640026
                                                         2.113016       0.274300
                                                         0.769911       0.446711
                                                         0.348157       0.028674
                                                         0.128212       0.029790
                          1       5    4dyz              5.605331       1.108557
                                                         2.113016       0.475102
                                                         0.769911       0.773726
                                                         0.348157       0.049666
                                                         0.128212       0.051599
                          1       5    4dz2              5.605331       0.640026
                                                         2.113016       0.274300
                                                         0.769911       0.446711
                                                         0.348157       0.028674
                                                         0.128212       0.029790

     GTH Potential information for                                    GTH-PBE-q4

       Description:                       Goedecker-Teter-Hutter pseudopotential
                                           Goedecker et al., PRB 54, 1703 (1996)
                                          Hartwigsen et al., PRB 58, 3641 (1998)
                                                      Krack, TCA 114, 145 (2005)

       Gaussian exponent of the core charge distribution:               4.364419
       Electronic configuration (s p d ...):                               2   2

       Parameters of the local part of the GTH pseudopotential:

                          rloc        C1          C2          C3          C4
                        0.338471   -8.803674    1.339211

       Parameters of the non-local part of the GTH pseudopotential:

                   l      r(l)      h(i,j,l)

                   0    0.302576    9.622487
                   1    0.291507


 MOLECULE KIND INFORMATION


 All atoms are their own molecule, skipping detailed information


 TOTAL NUMBERS AND MAXIMUM NUMBERS

  Total number of            - Atomic kinds:                                   5
                             - Atoms:                                        212
                             - Shell sets:                                   212
                             - Shells:                                      1244
                             - Primitive Cartesian functions:               1160
                             - Cartesian basis functions:                   4496
                             - Spherical basis functions:                   3892

  Maximum angular momentum of- Orbital basis functions:                        3
                             - Local part of the GTH pseudopotential:          2
                             - Non-local part of the GTH pseudopotential:      4


 MODULE QUICKSTEP:  ATOMIC COORDINATES IN angstrom

  Atom  Kind  Element       X           Y           Z          Z(eff)       Mass

       1     1 N    7    0.091966    1.946355    2.485095      5.00      14.0067
       2     2 Ga  31    0.073625   -0.025526    2.818869     13.00      69.7230
       3     1 N    7    0.095070   -0.057603    5.012429      5.00      14.0067
       4     2 Ga  31    0.093028    1.767124    5.795874     13.00      69.7230
       5     1 N    7    0.090935    1.782745    7.798747      5.00      14.0067
       6     2 Ga  31    0.087895   -0.062420    8.440724     13.00      69.7230
       7     1 N    7    0.088757   -0.064069   10.417411      5.00      14.0067
       8     2 Ga  31    0.088692    1.775962   11.066608     13.00      69.7230
       9     1 N    7    0.087799    1.756886   13.062446      5.00      14.0067
      10     2 Ga  31    0.088036   -0.063403   13.864411     13.00      69.7230
      11     1 N    7    0.088996   -0.064527   16.068821      5.00      14.0067
      12     2 Ga  31    0.087351    1.974085   16.479104     13.00      69.7230
      13     2 Ga  31    0.065254    3.656837    1.364414     13.00      69.7230
      14     1 N    7   -1.394098    4.516711    2.522986      5.00      14.0067
      15     2 Ga  31   -1.587840    2.672414    3.275564     13.00      69.7230
      16     1 N    7   -1.517136    2.721679    5.254789      5.00      14.0067
      17     2 Ga  31   -1.546035    4.586283    5.806191     13.00      69.7230
      18     1 N    7   -1.528063    4.586123    7.801993      5.00      14.0067
      19     2 Ga  31   -1.508896    2.725009    8.432993     13.00      69.7230
      20     1 N    7   -1.508152    2.728105   10.429764      5.00      14.0067
      21     2 Ga  31   -1.534248    4.585687   11.069083     13.00      69.7230
      22     1 N    7   -1.552059    4.596893   13.063345      5.00      14.0067
      23     2 Ga  31   -1.509648    2.728038   13.618687     13.00      69.7230
      24     1 N    7   -1.537104    2.713572   15.581490      5.00      14.0067
      25     2 Ga  31   -1.357594    4.483808   16.479894     13.00      69.7230
      26     1 N    7    0.094402    3.644905   17.614012      5.00      14.0067
      27     1 N    7   -3.118340    7.486591    2.530007      5.00      14.0067
      28     2 Ga  31   -3.097342    5.482732    2.849701     13.00      69.7230
      29     1 N    7   -3.123768    5.508642    5.020695      5.00      14.0067
      30     2 Ga  31   -3.131205    7.328884    5.806753     13.00      69.7230
      31     1 N    7   -3.124567    7.354071    7.798528      5.00      14.0067
      32     2 Ga  31   -3.126352    5.506987    8.448303     13.00      69.7230
      33     1 N    7   -3.127150    5.507979   10.421279      5.00      14.0067
      34     2 Ga  31   -3.128801    7.346995   11.071260     13.00      69.7230
      35     1 N    7   -3.128678    7.327846   13.065010      5.00      14.0067
      36     2 Ga  31   -3.128199    5.506859   13.866618     13.00      69.7230
      37     1 N    7   -3.127470    5.506286   16.068723      5.00      14.0067
      38     2 Ga  31   -3.128833    7.546396   16.480015     13.00      69.7230
      39     2 Ga  31   -3.136124    9.221147    1.501896     13.00      69.7230
      40     1 N    7   -4.626035   10.090242    2.514291      5.00      14.0067
      41     2 Ga  31   -4.844608    8.239880    3.289510     13.00      69.7230
      42     1 N    7   -4.731240    8.294219    5.250693      5.00      14.0067
      43     2 Ga  31   -4.764070   10.169353    5.797176     13.00      69.7230
      44     1 N    7   -4.743475   10.155593    7.795456      5.00      14.0067
      45     2 Ga  31   -4.726742    8.299947    8.434668     13.00      69.7230
      46     1 N    7   -4.723777    8.298805   10.429252      5.00      14.0067
      47     2 Ga  31   -4.750618   10.157768   11.067384     13.00      69.7230
      48     1 N    7   -4.767907   10.167415   13.062202      5.00      14.0067
      49     2 Ga  31   -4.726315    8.299429   13.620181     13.00      69.7230
      50     1 N    7   -4.754207    8.284256   15.582205      5.00      14.0067
      51     2 Ga  31   -4.572283   10.053999   16.480978     13.00      69.7230
      52     1 N    7   -3.121664    9.215932   17.612983      5.00      14.0067
      53     1 N    7    3.298047    1.799523    2.615839      5.00      14.0067
      54     2 Ga  31    3.300036    0.060094    3.287554     13.00      69.7230
      55     1 N    7    3.309101   -0.065922    5.249963      5.00      14.0067
      56     2 Ga  31    3.299740    1.796230    5.872026     13.00      69.7230
      57     1 N    7    3.306809    1.792651    7.849035      5.00      14.0067
      58     2 Ga  31    3.304109   -0.072995    8.437504     13.00      69.7230
      59     1 N    7    3.305531   -0.076352   10.431301      5.00      14.0067
      60     2 Ga  31    3.305556    1.793355   11.025528     13.00      69.7230
      61     1 N    7    3.304407    1.793117   12.998144      5.00      14.0067
      62     2 Ga  31    3.303114   -0.076020   13.620222     13.00      69.7230
      63     1 N    7    3.301773   -0.044865   15.582281      5.00      14.0067
      64     2 Ga  31    3.303432    1.793389   15.861619     13.00      69.7230
      65     1 N    7    1.584430    4.518789    2.520653      5.00      14.0067
      66     2 Ga  31    1.768986    2.685468    3.265470     13.00      69.7230
      67     1 N    7    1.700988    2.721388    5.250082      5.00      14.0067
      68     2 Ga  31    1.732138    4.585836    5.806953     13.00      69.7230
      69     1 N    7    1.708135    4.584684    7.803668      5.00      14.0067
      70     2 Ga  31    1.688163    2.725795    8.436892     13.00      69.7230
      71     1 N    7    1.687042    2.727817   10.432344      5.00      14.0067
      72     2 Ga  31    1.713220    4.586469   11.069123     13.00      69.7230
      73     1 N    7    1.728065    4.597076   13.063977      5.00      14.0067
      74     2 Ga  31    1.684699    2.727982   13.619085     13.00      69.7230
      75     1 N    7    1.711463    2.712274   15.583081      5.00      14.0067
      76     2 Ga  31    1.538111    4.487240   16.479628     13.00      69.7230
      77     1 N    7    0.095293    7.347789    2.695837      5.00      14.0067
      78     2 Ga  31    0.102117    5.507218    3.337297     13.00      69.7230
      79     1 N    7    0.091976    5.520626    5.274305      5.00      14.0067
      80     2 Ga  31    0.100135    7.362160    5.905380     13.00      69.7230
      81     1 N    7    0.091459    7.366037    7.864871      5.00      14.0067
      82     2 Ga  31    0.090635    5.492399    8.443891     13.00      69.7230
      83     1 N    7    0.089300    5.494413   10.435369      5.00      14.0067
      84     2 Ga  31    0.090199    7.363739   11.028071     13.00      69.7230
      85     1 N    7    0.088283    7.364179   12.999807      5.00      14.0067
      86     2 Ga  31    0.087497    5.493892   13.619772     13.00      69.7230
      87     1 N    7    0.086031    5.524959   15.582400      5.00      14.0067
      88     2 Ga  31    0.087721    7.363665   15.861834     13.00      69.7230
      89     1 N    7   -1.618271   10.078043    2.522366      5.00      14.0067
      90     2 Ga  31   -1.473320    8.264536    3.335661     13.00      69.7230
      91     1 N    7   -1.504187    8.285882    5.262470      5.00      14.0067
      92     2 Ga  31   -1.491011   10.171755    5.809562     13.00      69.7230
      93     1 N    7   -1.508660   10.153308    7.800549      5.00      14.0067
      94     2 Ga  31   -1.529449    8.299440    8.446704     13.00      69.7230
      95     1 N    7   -1.530109    8.298811   10.436343      5.00      14.0067
      96     2 Ga  31   -1.504285   10.159036   11.070895     13.00      69.7230
      97     1 N    7   -1.488400   10.167929   13.064887      5.00      14.0067
      98     2 Ga  31   -1.531569    8.299136   13.621065     13.00      69.7230
      99     1 N    7   -1.503706    8.282513   15.584080      5.00      14.0067
     100     2 Ga  31   -1.679221   10.057659   16.480428     13.00      69.7230
     101     1 N    7    6.522952    1.917559    2.536435      5.00      14.0067
     102     2 Ga  31    6.542651   -0.063587    2.862062     13.00      69.7230
     103     1 N    7    6.519563   -0.062856    5.024373      5.00      14.0067
     104     2 Ga  31    6.522471    1.766888    5.803578     13.00      69.7230
     105     1 N    7    6.522170    1.782058    7.800015      5.00      14.0067
     106     2 Ga  31    6.524433   -0.063214    8.445338     13.00      69.7230
     107     1 N    7    6.521884   -0.064156   10.419283      5.00      14.0067
     108     2 Ga  31    6.521992    1.776795   11.067763     13.00      69.7230
     109     1 N    7    6.520309    1.756914   13.062944      5.00      14.0067
     110     2 Ga  31    6.520682   -0.062939   13.866299     13.00      69.7230
     111     1 N    7    6.520785   -0.064354   16.069402      5.00      14.0067
     112     2 Ga  31    6.519739    1.974803   16.478187     13.00      69.7230
     113     2 Ga  31    6.527858    3.650000    1.533954     13.00      69.7230
     114     1 N    7    5.022209    4.516702    2.529575      5.00      14.0067
     115     2 Ga  31    4.805186    2.665767    3.297004     13.00      69.7230
     116     1 N    7    4.913268    2.721417    5.257800      5.00      14.0067
     117     2 Ga  31    4.888937    4.594255    5.803808     13.00      69.7230
     118     1 N    7    4.905323    4.584770    7.800829      5.00      14.0067
     119     2 Ga  31    4.923153    2.727249    8.437252     13.00      69.7230
     120     1 N    7    4.924467    2.727956   10.431600      5.00      14.0067
     121     2 Ga  31    4.899315    4.587420   11.067076     13.00      69.7230
     122     1 N    7    4.880941    4.597044   13.061982      5.00      14.0067
     123     2 Ga  31    4.923055    2.728678   13.618821     13.00      69.7230
     124     1 N    7    4.894889    2.713740   15.581322      5.00      14.0067
     125     2 Ga  31    5.075590    4.483630   16.479051     13.00      69.7230
     126     1 N    7    6.527787    3.645720   17.610847      5.00      14.0067
     127     1 N    7    3.305577    7.479089    2.500575      5.00      14.0067
     128     1 N    7    3.308232    5.505607    5.029997      5.00      14.0067
     129     2 Ga  31    3.312146    7.333146    5.794376     13.00      69.7230
     130     1 N    7    3.304656    7.355321    7.793433      5.00      14.0067
     131     2 Ga  31    3.306690    5.509393    8.445150     13.00      69.7230
     132     1 N    7    3.305728    5.508443   10.419853      5.00      14.0067
     133     2 Ga  31    3.307547    7.347338   11.069635     13.00      69.7230
     134     1 N    7    3.304598    7.328037   13.064207      5.00      14.0067
     135     2 Ga  31    3.305005    5.506973   13.864953     13.00      69.7230
     136     1 N    7    3.305145    5.505880   16.068928      5.00      14.0067
     137     2 Ga  31    3.303598    7.543800   16.477999     13.00      69.7230
     138     2 Ga  31    3.344441    9.243656    1.318187     13.00      69.7230
     139     1 N    7    1.797817   10.086021    2.504003      5.00      14.0067
     140     2 Ga  31    1.694384    8.281822    3.287672     13.00      69.7230
     141     1 N    7    1.686423    8.284716    5.236916      5.00      14.0067
     142     2 Ga  31    1.677060   10.165696    5.794476     13.00      69.7230
     143     1 N    7    1.688053   10.152248    7.792753      5.00      14.0067
     144     2 Ga  31    1.712469    8.300828    8.444367     13.00      69.7230
     145     1 N    7    1.709414    8.299319   10.435053      5.00      14.0067
     146     2 Ga  31    1.683979   10.159096   11.069398     13.00      69.7230
     147     1 N    7    1.664600   10.167813   13.063538      5.00      14.0067
     148     2 Ga  31    1.707265    8.299496   13.620056     13.00      69.7230
     149     1 N    7    1.679580    8.284552   15.582845      5.00      14.0067
     150     2 Ga  31    1.857636   10.055481   16.478604     13.00      69.7230
     151     1 N    7    3.311499    9.216436   17.612778      5.00      14.0067
     152     1 N    7    9.750474    1.793036    2.626813      5.00      14.0067
     153     2 Ga  31    9.744445    0.029255    3.255714     13.00      69.7230
     154     1 N    7    9.736704   -0.066342    5.238253      5.00      14.0067
     155     2 Ga  31    9.746000    1.787681    5.864729     13.00      69.7230
     156     1 N    7    9.738119    1.792187    7.845231      5.00      14.0067
     157     2 Ga  31    9.740577   -0.074664    8.429277     13.00      69.7230
     158     1 N    7    9.737547   -0.076753   10.426959      5.00      14.0067
     159     2 Ga  31    9.738124    1.792506   11.022820     13.00      69.7230
     160     1 N    7    9.736311    1.792777   12.996584      5.00      14.0067
     161     2 Ga  31    9.736242   -0.075989   13.619389     13.00      69.7230
     162     1 N    7    9.734349   -0.045899   15.582409      5.00      14.0067
     163     2 Ga  31    9.735942    1.793074   15.861171     13.00      69.7230
     164     1 N    7    8.027094    4.517769    2.537171      5.00      14.0067
     165     2 Ga  31    8.244309    2.657879    3.299003     13.00      69.7230
     166     1 N    7    8.131996    2.721147    5.259174      5.00      14.0067
     167     2 Ga  31    8.155992    4.593258    5.800541     13.00      69.7230
     168     1 N    7    8.141056    4.585763    7.797904      5.00      14.0067
     169     2 Ga  31    8.123033    2.726761    8.433975     13.00      69.7230
     170     1 N    7    8.119073    2.728199   10.429993      5.00      14.0067
     171     2 Ga  31    8.143553    4.586720   11.068421     13.00      69.7230
     172     1 N    7    8.159776    4.597053   13.063341      5.00      14.0067
     173     2 Ga  31    8.117308    2.728149   13.618859     13.00      69.7230
     174     1 N    7    8.144396    2.711906   15.582611      5.00      14.0067
     175     2 Ga  31    7.970883    4.487836   16.477847     13.00      69.7230
     176     1 N    7    6.519145    7.366869    2.609409      5.00      14.0067
     177     2 Ga  31    6.518687    5.630343    3.295216     13.00      69.7230
     178     1 N    7    6.523163    5.509607    5.255703      5.00      14.0067
     179     2 Ga  31    6.516068    7.369390    5.867627     13.00      69.7230
     180     1 N    7    6.522149    7.365340    7.844419      5.00      14.0067
     181     2 Ga  31    6.522801    5.497922    8.435308     13.00      69.7230
     182     1 N    7    6.522050    5.495278   10.430092      5.00      14.0067
     183     2 Ga  31    6.521199    7.364631   11.023524     13.00      69.7230
     184     1 N    7    6.520138    7.364330   12.996694      5.00      14.0067
     185     2 Ga  31    6.519765    5.494878   13.618760     13.00      69.7230
     186     1 N    7    6.517926    5.525769   15.581382      5.00      14.0067
     187     2 Ga  31    6.519300    7.364004   15.862091     13.00      69.7230
     188     1 N    7    4.817300   10.093671    2.508799      5.00      14.0067
     189     2 Ga  31    4.992437    8.249960    3.252545     13.00      69.7230
     190     1 N    7    4.913601    8.292586    5.235264      5.00      14.0067
     191     2 Ga  31    4.941741   10.165402    5.781126     13.00      69.7230
     192     1 N    7    4.924764   10.155253    7.787743      5.00      14.0067
     193     2 Ga  31    4.904805    8.301349    8.430575     13.00      69.7230
     194     1 N    7    4.902665    8.298937   10.427608      5.00      14.0067
     195     2 Ga  31    4.927627   10.157565   11.066416     13.00      69.7230
     196     1 N    7    4.943432   10.167418   13.062341      5.00      14.0067
     197     2 Ga  31    4.901454    8.299331   13.619679     13.00      69.7230
     198     1 N    7    4.927326    8.283272   15.583894      5.00      14.0067
     199     2 Ga  31    4.756149   10.059569   16.477796     13.00      69.7230
     200     3 O    8    0.093807    4.080583   -0.429243      6.00      15.9994
     201     4 H    1   -0.150798    5.864588   -0.333082      1.00       1.0079
     202     5 C    6    1.289273    3.710688   -1.144630      4.00      12.0107
     203     4 H    1    2.202111    4.077111   -0.646248      1.00       1.0079
     204     4 H    1    1.367493    2.618202   -1.255014      1.00       1.0079
     205     4 H    1    1.232299    4.157891   -2.147339      1.00       1.0079
     206     2 Ga  31    3.279852    5.503935    2.853235     13.00      69.7230
     207     3 O    8   -0.198540    6.849115   -0.189414      6.00      15.9994
     208     4 H    1    0.043392    7.278518    1.658072      1.00       1.0079
     209     5 C    6    0.878608    7.444990   -0.925124      4.00      12.0107
     210     4 H    1    0.794583    8.533560   -0.806857      1.00       1.0079
     211     4 H    1    1.864558    7.128665   -0.543169      1.00       1.0079
     212     4 H    1    0.822144    7.207248   -1.998226      1.00       1.0079




 SCF PARAMETERS         Density guess:                                    ATOMIC
                        --------------------------------------------------------
                        max_scf:                                              80
                        max_scf_history:                                       0
                        max_diis:                                              4
                        --------------------------------------------------------
                        eps_scf:                                        5.00E-06
                        eps_scf_history:                                0.00E+00
                        eps_diis:                                       1.00E-01
                        eps_eigval:                                     1.00E-05
                        --------------------------------------------------------
                        level_shift [a.u.]:                                 0.00
                        --------------------------------------------------------
                        Outer loop SCF in use 
                        No variables optimised in outer loop
                        eps_scf                                         5.00E-06
                        max_scf                                                4
                        No outer loop optimization
                        step_size                                       5.00E-01

 PW_GRID| Information for grid number                                          1
 PW_GRID| Grid distributed over                                    80 processors
 PW_GRID| Real space group dimensions                                    80    1
 PW_GRID| the grid is blocked:                                                NO
 PW_GRID| Cutoff [a.u.]                                                    600.0
 PW_GRID| spherical cutoff:                                                   NO
 PW_GRID|   Bounds   1           -144     143                Points:         288
 PW_GRID|   Bounds   2           -144     143                Points:         288
 PW_GRID|   Bounds   3           -337     337                Points:         675
 PW_GRID| Volume element (a.u.^3)  0.5630E-03     Volume (a.u.^3)     31519.8467
 PW_GRID| Grid span                                                    FULLSPACE
 PW_GRID|   Distribution                         Average         Max         Min
 PW_GRID|   G-Vectors                           699840.0      699840      699840
 PW_GRID|   G-Rays                                2430.0        2430        2430
 PW_GRID|   Real Space Points                   699840.0      777600      583200

 PW_GRID| Information for grid number                                          2
 PW_GRID| Grid distributed over                                    80 processors
 PW_GRID| Real space group dimensions                                    80    1
 PW_GRID| the grid is blocked:                                                NO
 PW_GRID| Cutoff [a.u.]                                                    200.0
 PW_GRID| spherical cutoff:                                                   NO
 PW_GRID|   Bounds   1            -80      79                Points:         160
 PW_GRID|   Bounds   2            -80      79                Points:         160
 PW_GRID|   Bounds   3           -200     199                Points:         400
 PW_GRID| Volume element (a.u.^3)  0.3078E-02     Volume (a.u.^3)     31519.8467
 PW_GRID| Grid span                                                    FULLSPACE
 PW_GRID|   Distribution                         Average         Max         Min
 PW_GRID|   G-Vectors                           128000.0      128160      127840
 PW_GRID|   G-Rays                                 800.0         801         799
 PW_GRID|   Real Space Points                   128000.0      128000      128000

 PW_GRID| Information for grid number                                          3
 PW_GRID| Grid distributed over                                    80 processors
 PW_GRID| Real space group dimensions                                    80    1
 PW_GRID| the grid is blocked:                                                NO
 PW_GRID| Cutoff [a.u.]                                                     66.7
 PW_GRID| spherical cutoff:                                                   NO
 PW_GRID|   Bounds   1            -48      47                Points:          96
 PW_GRID|   Bounds   2            -48      47                Points:          96
 PW_GRID|   Bounds   3           -112     112                Points:         225
 PW_GRID| Volume element (a.u.^3)  0.1520E-01     Volume (a.u.^3)     31519.8467
 PW_GRID| Grid span                                                    FULLSPACE
 PW_GRID|   Distribution                         Average         Max         Min
 PW_GRID|   G-Vectors                            25920.0       26688       24864
 PW_GRID|   G-Rays                                 270.0         278         259
 PW_GRID|   Real Space Points                    25920.0       43200       21600

 PW_GRID| Information for grid number                                          4
[...]
 flops    13 x    25 x    50          92624220000     100.0%      0.0%      0.0%
 flops    25 x    13 x    50          92679795000     100.0%      0.0%      0.0%
 flops   242 x    64 x   178         118390767616     100.0%      0.0%      0.0%
 flops   242 x    64 x   183         121716350976     100.0%      0.0%      0.0%
 flops   973 x    32 x    50         124394547200     100.0%      0.0%      0.0%
 flops   973 x    50 x    32         124394547200     100.0%      0.0%      0.0%
 flops   242 x    64 x   195         129697751040     100.0%      0.0%      0.0%
 flops   242 x    32 x    32         129894014976     100.0%      0.0%      0.0%
 flops    25 x    18 x    13         130692416400     100.0%      0.0%      0.0%
 flops    13 x    18 x    25         130692416400     100.0%      0.0%      0.0%
 flops   955 x    32 x   178         143607552000     100.0%      0.0%      0.0%
 flops   955 x    32 x   183         147641472000     100.0%      0.0%      0.0%
 flops   991 x    32 x   178         149021030400     100.0%      0.0%      0.0%
 flops   991 x    32 x   183         153207014400     100.0%      0.0%      0.0%
 flops   955 x    32 x   195         157322880000     100.0%      0.0%      0.0%
 flops   991 x    32 x   195         163253376000     100.0%      0.0%      0.0%
 flops    25 x    25 x    50         178012500000     100.0%      0.0%      0.0%
 flops   973 x    64 x    50         180937523200     100.0%      0.0%      0.0%
 flops   973 x    50 x    64         180937523200     100.0%      0.0%      0.0%
 flops     5 x    32 x    25         183907360000     100.0%      0.0%      0.0%
 flops    25 x    32 x     5         183907360000     100.0%      0.0%      0.0%
 flops   242 x    64 x    32         188936749056     100.0%      0.0%      0.0%
 flops   242 x    32 x    64         188936749056     100.0%      0.0%      0.0%
 flops   955 x    64 x   178         208883712000     100.0%      0.0%      0.0%
 flops   955 x    64 x   183         214751232000     100.0%      0.0%      0.0%
 flops   991 x    64 x   178         216757862400     100.0%      0.0%      0.0%
 flops   991 x    64 x   183         222846566400     100.0%      0.0%      0.0%
 flops   224 x    32 x   178         226018738176     100.0%      0.0%      0.0%
 flops   955 x    64 x   195         228833280000     100.0%      0.0%      0.0%
 flops   224 x    32 x   183         232367579136     100.0%      0.0%      0.0%
 flops   991 x    64 x   195         237459456000     100.0%      0.0%      0.0%
 flops   224 x    32 x   195         247604797440     100.0%      0.0%      0.0%
 flops    25 x    18 x    25         248625000000     100.0%      0.0%      0.0%
 flops   242 x    64 x    64         274817089536     100.0%      0.0%      0.0%
 flops   973 x    32 x   178         292628582400     100.0%      0.0%      0.0%
 flops   973 x    32 x   183         300848486400     100.0%      0.0%      0.0%
 flops   973 x    32 x   195         320576256000     100.0%      0.0%      0.0%
 flops   224 x    64 x   178         328754528256     100.0%      0.0%      0.0%
 flops    13 x    13 x    32         329070483456     100.0%      0.0%      0.0%
 flops   224 x    64 x   183         337989206016     100.0%      0.0%      0.0%
 flops   224 x    64 x   195         360152432640     100.0%      0.0%      0.0%
 flops   224 x    32 x    32         360697430016     100.0%      0.0%      0.0%
 flops   973 x    64 x   178         425641574400     100.0%      0.0%      0.0%
 flops   955 x    32 x    32         429768458240     100.0%      0.0%      0.0%
 flops   973 x    64 x   183         437597798400     100.0%      0.0%      0.0%
 flops   991 x    32 x    32         445969154048     100.0%      0.0%      0.0%
 flops   973 x    64 x   195         466292736000     100.0%      0.0%      0.0%
 flops    13 x    13 x    64         478647975936     100.0%      0.0%      0.0%
 flops   224 x    32 x    64         524650807296     100.0%      0.0%      0.0%
 flops   224 x    64 x    32         524650807296     100.0%      0.0%      0.0%
 flops   955 x    32 x    64         625117757440     100.0%      0.0%      0.0%
 flops   955 x    64 x    32         625117757440     100.0%      0.0%      0.0%
 flops   991 x    32 x    64         648682405888     100.0%      0.0%      0.0%
 flops   991 x    64 x    32         648682405888     100.0%      0.0%      0.0%
 flops    13 x    25 x    32         652074508800     100.0%      0.0%      0.0%
 flops    25 x    13 x    32         652465756800     100.0%      0.0%      0.0%
 flops   224 x    64 x    64         763128446976     100.0%      0.0%      0.0%
 flops   973 x    32 x    32         875737612288     100.0%      0.0%      0.0%
 flops   955 x    64 x    64         909262192640     100.0%      0.0%      0.0%
 flops   991 x    64 x    64         943538044928     100.0%      0.0%      0.0%
 flops    13 x    25 x    64         948472012800     100.0%      0.0%      0.0%
 flops    25 x    13 x    64         949041100800     100.0%      0.0%      0.0%
 flops    25 x    25 x    32        1253208000000     100.0%      0.0%      0.0%
 flops   973 x    64 x    32        1273800163328     100.0%      0.0%      0.0%
 flops   973 x    32 x    64        1273800163328     100.0%      0.0%      0.0%
 flops    25 x    25 x    64        1822848000000     100.0%      0.0%      0.0%
 flops   973 x    64 x    64        1852800237568     100.0%      0.0%      0.0%
 flops    13 x    32 x    13        3247414876160     100.0%      0.0%      0.0%
 flops    25 x    32 x    13        6505578060800     100.0%      0.0%      0.0%
 flops    13 x    32 x    25        6505578060800     100.0%      0.0%      0.0%
 flops    25 x    32 x    25       12376000000000     100.0%      0.0%      0.0%
 flops inhomo. stacks              21785633560544     100.0%      0.0%      0.0%
 flops total                        81.516074E+12     100.0%      0.0%      0.0%
 flops max/rank                      1.415278E+12     100.0%      0.0%      0.0%
 matmuls inhomo. stacks                   2175040     100.0%      0.0%      0.0%
 matmuls total                         1616171292     100.0%      0.0%      0.0%
 number of processed stacks              29237024     100.0%      0.0%      0.0%
 average stack size                                    55.3       0.0       0.0
 marketing flops                    87.083901E+12
 -------------------------------------------------------------------------------
 # multiplications                           7657
 max memory usage/rank               1.384804E+09
 # max total images/rank                        5
 # max 3D layers                                1
 # MPI messages exchanged                69831840
 MPI messages size (bytes):
  total size                         8.617150E+12
  min size                           0.000000E+00
  max size                           1.894792E+06
  average size                     123.398586E+03
 MPI breakdown and total messages size (bytes):
             size <=      128              522880                        0
       128 < size <=     8192             9161306              75049418752
      8192 < size <=    32768            21114054             430726742336
     32768 < size <=   131072            30735920            2227534875008
    131072 < size <=  4194304             8297680            5883869464864
   4194304 < size <= 16777216                   0                        0
  16777216 < size                               0                        0
 -------------------------------------------------------------------------------

 *** WARNING in dbcsr/mm/dbcsr_mm.F:268 :: Using a non-square number of ***
 *** MPI ranks might lead to poor performance.                          ***
 *** Used ranks: 80                                                     ***
 *** Suggested: 81 169                                                  ***

 -------------------------------------------------------------------------------
 
 MEMORY| Estimated peak process memory [MiB]                                1351

 -------------------------------------------------------------------------------
 ----                             MULTIGRID INFO                            ----
 -------------------------------------------------------------------------------
 count for grid        1:        1095367          cutoff [a.u.]          600.00
 count for grid        2:        3841630          cutoff [a.u.]          200.00
 count for grid        3:        3016128          cutoff [a.u.]           66.67
 count for grid        4:        3384803          cutoff [a.u.]           22.22
 count for grid        5:        2533861          cutoff [a.u.]            7.41
 total gridlevel count  :       13871789

 -------------------------------------------------------------------------------
 -                                                                             -
 -                         MESSAGE PASSING PERFORMANCE                         -
 -                                                                             -
 -------------------------------------------------------------------------------

 ROUTINE             CALLS      AVE VOLUME [Bytes]
 MP_Group              797
 MP_Bcast            13868                  27703.
 MP_Allreduce        76723                    343.
 MP_Sync               385
 MP_Alltoall         43388                5323815.
 MP_SendRecv          4424                   5936.
 MP_ISendRecv       197184                 133520.
 MP_Wait           1706450
 MP_comm_split         380
 MP_ISend          1964416                 116832.
 MP_IRecv          1965016                 116741.
 MP_Recv               247                 162816.
 MP_Memory          852452
 -------------------------------------------------------------------------------


 -------------------------------------------------------------------------------
 -                                                                             -
 -                           R E F E R E N C E S                               -
 -                                                                             -
 -------------------------------------------------------------------------------
 
 CP2K version 7.0 (Development Version), the CP2K developers group (2018).
 CP2K is freely available from https://www.cp2k.org/ .

 Schuett, Ole; Messmer, Peter; Hutter, Juerg; VandeVondele, Joost. 
 Electronic Structure Calculations on Graphics Processing Units, John Wiley & Sons, Ltd, 173-190 (2016). 
 GPU-Accelerated Sparse Matrix-Matrix Multiplication for Linear Scaling Density Functional Theory.
 http://dx.doi.org/10.1002/9781118670712.ch8


 Borstnik, U; VandeVondele, J; Weber, V; Hutter, J. 
 PARALLEL COMPUTING, 40 (5-6), 47-58 (2014). 
 Sparse matrix multiplication: The distributed block-compressed sparse
 row library.
 http://dx.doi.org/10.1016/j.parco.2014.03.012


 Hutter, J; Iannuzzi, M; Schiffmann, F; VandeVondele, J. 
 WILEY INTERDISCIPLINARY REVIEWS-COMPUTATIONAL MOLECULAR SCIENCE, 4 (1), 15-25 (2014). 
 CP2K: atomistic simulations of condensed matter systems.
 http://dx.doi.org/10.1002/wcms.1159


 Grimme, S; Ehrlich, S; Goerigk, L. 
 JOURNAL OF COMPUTATIONAL CHEMISTRY, 32, 1456 (2011). 
 Effect of the damping function in dispersion corrected density functional theory.
 http://dx.doi.org/10.1002/jcc.21759


 Grimme, S; Antony, J; Ehrlich, S; Krieg, H. 
 JOURNAL OF CHEMICAL PHYSICS, 132 (15), 154104 (2010). 
 A consistent and accurate ab initio parametrization of density
 functional dispersion correction (DFT-D) for the 94 elements H-Pu.
 http://dx.doi.org/10.1063/1.3382344


 VandeVondele, J; Hutter, J. 
 JOURNAL OF CHEMICAL PHYSICS, 127 (11), 114105 (2007). 
 Gaussian basis sets for accurate calculations on molecular systems in
 gas and condensed phases.
 http://dx.doi.org/10.1063/1.2770708


 Krack, M. 
 THEORETICAL CHEMISTRY ACCOUNTS, 114 (1-3), 145-152 (2005). 
 Pseudopotentials for H to Kr optimized for gradient-corrected
 exchange-correlation functionals.
 http://dx.doi.org/10.1007/s00214-005-0655-y


 VandeVondele, J; Krack, M; Mohamed, F; Parrinello, M; Chassaing, T;
 Hutter, J. COMPUTER PHYSICS COMMUNICATIONS, 167 (2), 103-128 (2005). 
 QUICKSTEP: Fast and accurate density functional calculations using a
 mixed Gaussian and plane waves approach.
 http://dx.doi.org/10.1016/j.cpc.2004.12.014


 Frigo, M; Johnson, SG. 
 PROCEEDINGS OF THE IEEE, 93 (2), 216-231 (2005). 
 The design and implementation of FFTW3.
 http://dx.doi.org/10.1109/JPROC.2004.840301


 Kolafa, J. 
 JOURNAL OF COMPUTATIONAL CHEMISTRY, 25 (3), 335-342 (2004). 
 Time-reversible always stable predictor-corrector method for molecular dynamics of polarizable molecules.
 http://dx.doi.org/10.1002/jcc.10385


 VandeVondele, J; Hutter, J. 
 JOURNAL OF CHEMICAL PHYSICS, 118 (10), 4365-4369 (2003). 
 An efficient orbital transformation method for electronic structure
 calculations.
 http://dx.doi.org/10.1063/1.1543154


 Hartwigsen, C; Goedecker, S; Hutter, J. 
 PHYSICAL REVIEW B, 58 (7), 3641-3662 (1998). 
 Relativistic separable dual-space Gaussian pseudopotentials from H to Rn.
 http://dx.doi.org/10.1103/PhysRevB.58.3641


 Lippert, G; Hutter, J; Parrinello, M. 
 MOLECULAR PHYSICS, 92 (3), 477-487 (1997). 
 A hybrid Gaussian and plane wave density functional scheme.
 http://dx.doi.org/10.1080/002689797170220


 Perdew, JP; Burke, K; Ernzerhof, M. 
 PHYSICAL REVIEW LETTERS, 77 (18), 3865-3868 (1996). 
 Generalized gradient approximation made simple.
 http://dx.doi.org/10.1103/PhysRevLett.77.3865


 Goedecker, S; Teter, M; Hutter, J. 
 PHYSICAL REVIEW B, 54 (3), 1703-1710 (1996). 
 Separable dual-space Gaussian pseudopotentials.
 http://dx.doi.org/10.1103/PhysRevB.54.1703


 -------------------------------------------------------------------------------
 -                                                                             -
 -                                T I M I N G                                  -
 -                                                                             -
 -------------------------------------------------------------------------------
 SUBROUTINE                       CALLS  ASD         SELF TIME        TOTAL TIME
                                MAXIMUM       AVERAGE  MAXIMUM  AVERAGE  MAXIMUM
 CP2K                                 1  1.0    0.074    0.088 3964.575 3964.598
 cp_geo_opt                           1  2.0    0.002    0.020 3963.603 3963.621
 geoopt_bfgs                          1  3.0    0.018    0.056 3963.601 3963.611
 cp_eval_at                          15  4.0    0.006    0.007 3957.887 3957.890
 qs_forces                           14  5.0    0.010    0.014 3875.585 3875.585
 qs_energies                         15  5.9    0.013    0.028 3669.619 3669.644
 scf_env_do_scf                      15  6.9    0.007    0.040 3478.402 3478.413
 scf_env_do_scf_inner_loop          253  8.0    0.020    0.032 3111.172 3111.199
 rebuild_ks_matrix                  267  9.8    0.002    0.002 1693.740 1694.167
 qs_ks_build_kohn_sham_matrix       267 10.8    0.089    0.174 1693.738 1694.165
 qs_ks_update_qs_env                269  9.0    0.002    0.002 1437.272 1437.657
 qs_rho_update_rho                  268  9.0    0.003    0.003 1412.993 1413.790
 calculate_rho_elec                 536 10.0  693.871  707.696 1412.990 1413.787
 sum_up_and_integrate               148 11.7    2.209    2.463  925.208  925.568
 integrate_v_rspace                 296 12.7  512.247  532.078  922.998  923.655
 pw_transfer                       8446 13.3    0.892    1.054  864.772  870.309
 fft_wrap_pw1pw2                   7912 14.4    0.093    0.105  860.510  866.071
 fft_wrap_pw1pw2_600               4584 15.6   51.811   58.638  800.395  805.063
 fft3d_ps                          7912 16.4  238.286  264.643  739.531  747.480
 rs_pw_transfer                    4234 12.9    0.055    0.084  709.846  718.029
 density_rs2pw                      536 11.0    0.038    0.050  646.260  660.047
 qs_vxc_create                      267 11.8    0.011    0.012  595.301  595.453
 dbcsr_multiply_generic            7657 13.7    0.512    0.710  545.745  546.759
 mp_waitall_1                   1553506 16.7  484.910  507.384  484.910  507.384
 qs_scf_new_mos                     253  9.0    0.003    0.015  492.311  492.801
 qs_scf_loop_do_ot                  253 10.0    0.011    0.033  492.308  492.799
 mp_alltoall_z22v                  7912 18.4  434.109  484.093  434.109  484.093
 ot_scf_mini                        253 11.0    0.042    0.095  451.177  451.498
 xc_vxc_pw_create                   148 12.7   20.631   23.364  438.812  438.907
 multiply_cannon                   7657 14.7    2.431    2.584  418.006  426.605
 init_scf_loop                       16  7.9    0.006    0.023  366.842  366.859
 mp_waitany                      152944 14.9  309.315  338.498  309.315  338.498
 xc_rho_set_and_dset_create         267 13.8    4.745    5.053  329.386  334.550
 potential_pw2rs                    296 13.7    0.232    0.272  328.957  329.751
 x_to_yz                           3441 18.0   37.663   43.328  286.161  305.147
 rs_pw_transfer_RS2PW_600           566 12.9  114.207  123.802  288.886  297.288
 multiply_cannon_metrocomm3      153140 15.7    0.421    0.460  245.834  277.839
 qs_ks_update_qs_env_forces          14  6.0    0.000    0.000  258.816  258.897
 yz_to_x                           2807 16.8   23.432   24.444  208.638  232.117
 ot_mini                            253 12.0    0.003    0.016  229.523  229.898
 prepare_preconditioner              16  8.9    0.000    0.001  206.242  206.311
 rs_pw_transfer_PW2RS_600           340 15.2   77.202   83.241  195.825  200.180
 make_preconditioner                 32  9.9    0.006    0.032  191.073  191.121
 make_full_all                       32 10.9    0.014    0.027  175.959  176.061
 xc_exc_calc                        119 13.0    0.579    0.662  156.477  156.576
 cp_fm_syevd                        380 13.9    0.003    0.005  146.688  146.896
 qs_ot_get_derivative               268 13.0    0.004    0.005  143.893  144.317
 cp_fm_redistribute_end             380 14.9   50.057  142.583   51.018  143.488
 cp_fm_syevd_base                   380 14.6   91.833  138.613   91.833  138.613
 mp_alltoall_d11v                  9002 15.2  107.015  121.406  107.015  121.406
 multiply_cannon_metrocomm1      153140 15.7    0.488    0.529   92.533  118.059
 init_scf_run                        15  6.9    0.002    0.005  117.025  117.037
 scf_env_initial_rho_setup           15  7.9    0.003    0.004  117.023  117.035
 rs_distribute_matrix               860 11.9    1.098    2.097   98.660  112.284
 wfi_extrapolate                     15  8.9    0.013    0.043  110.436  110.453
 qs_ot_get_p                        538 11.9    0.009    0.037   99.960  101.130
 apply_preconditioner_dbcsr         300 14.0    0.001    0.014   93.711   93.901
 apply_all                          300 15.0    0.035    0.059   93.710   93.901
 ot_new_cg_direction                134 13.0    0.009    0.033   83.960   83.987
 mp_sum_d                         12149 14.4   61.194   79.618   61.194   79.618
 -------------------------------------------------------------------------------

 The number of warnings for this run is : 1
 
 -------------------------------------------------------------------------------
  **** **** ******  **  PROGRAM ENDED AT                 2019-06-30 03:39:41.551
 ***** ** ***  *** **   PROGRAM RAN ON            blg4712.int.ets1.calculquebec.
 **    ****   ******    PROGRAM RAN BY                                       rzk
 ***** **    ** ** **   PROGRAM PROCESS ID                                 68044
  **** **  *******  **  PROGRAM STOPPED IN /scratch/rzk/rzk/GaN-carbene/443-adat
                                           oms-both-2x2/04-2Methanol/02-Combine1
                                           2-Rotate60
