     212
 i =        1, E =     -8504.6504949427
  N        -0.0331607728        2.0297473938        2.5466690854
 Ga        -0.0328662327        0.0570074272        2.8826968612
  N        -0.0336999674        0.0474617687        5.0287826693
 Ga        -0.0356667818        1.8751677357        5.8153199657
  N        -0.0342921080        1.8916588931        7.8090366564
 Ga        -0.0329551448        0.0465115496        8.4544319157
  N        -0.0327303401        0.0468081963       10.4262782855
 Ga        -0.0337117087        1.8870125950       11.0771091184
  N        -0.0329361449        1.8677386893       13.0696433443
 Ga        -0.0334093536        0.0476492281       13.8740824153
  N        -0.0325719106        0.0504563243       16.0732648022
 Ga        -0.0341475587        2.0946651124       16.4889415144
 Ga        -0.0350073982        3.7294863566        1.5168669798
  N        -1.5145615642        4.6158148971        2.5122688742
 Ga        -1.7362490933        2.7719266715        3.3122912091
  N        -1.6467956858        2.8303886835        5.2707062348
 Ga        -1.6648792043        4.7037994681        5.8117507839
  N        -1.6523120399        4.6957269492        7.8069240964
 Ga        -1.6323781196        2.8388909748        8.4476010103
  N        -1.6308934702        2.8391979265       10.4390745546
 Ga        -1.6567226523        4.6985199292       11.0768535772
  N        -1.6731337246        4.7088871230       13.0694449349
 Ga        -1.6303013370        2.8395941234       13.6252008215
  N        -1.6588655020        2.8210970217       15.5842330309
 Ga        -1.4797195831        4.5932334932       16.4880114287
  N        -0.0358504487        3.7627902862       17.6213345978
  N        -3.2487166059        7.5913605178        2.5237579113
 Ga        -3.2344479239        5.6134677579        2.8564319710
  N        -3.2453256814        5.6136584214        5.0173678004
 Ga        -3.2482143311        7.4435956465        5.8013088256
  N        -3.2499486546        7.4629088856        7.7989090734
 Ga        -3.2501358460        5.6183918568        8.4528248952
  N        -3.2498994472        5.6188392516       10.4251536012
 Ga        -3.2499488146        7.4581496711       11.0759734738
  N        -3.2489888598        7.4393108866       13.0682246820
 Ga        -3.2490455149        5.6194658088       13.8733089542
  N        -3.2486014275        5.6181112288       16.0724613949
 Ga        -3.2502003019        7.6594474263       16.4847651906
 Ga        -3.2455101992        9.3244688083        1.4555027620
  N        -4.7553231208       10.2025320723        2.5203503398
 Ga        -4.9518801093        8.3475827909        3.2819885999
  N        -4.8586327557        8.4016434681        5.2500944023
 Ga        -4.8809126857       10.2738186220        5.8055580978
  N        -4.8667561117       10.2651744268        7.8013819434
 Ga        -4.8472013561        8.4083282681        8.4431741706
  N        -4.8461163401        8.4097934606       10.4354161527
 Ga        -4.8722557499       10.2678591981       11.0769661691
  N        -4.8884269178       10.2786173858       13.0694767997
 Ga        -4.8459914650        8.4097003310       13.6250816410
  N        -4.8725177646        8.3925182685       15.5852630089
 Ga        -4.7003888442       10.1665027978       16.4845997867
  N        -3.2527373823        9.3333237763       17.6218539435
  N         3.1671141675        1.9105077093        2.5978207862
 Ga         3.1800943050        0.1570199447        3.2842860195
  N         3.1827885554        0.0526140137        5.2506302583
 Ga         3.1844635977        1.9052530746        5.8927065175
  N         3.1843792386        1.9024813115        7.8621062349
 Ga         3.1825402703        0.0347059134        8.4476785624
  N         3.1824274975        0.0340941561       10.4383889813
 Ga         3.1825934256        1.9045119886       11.0327648058
  N         3.1834206104        1.9041661945       13.0026060526
 Ga         3.1834476973        0.0356386180       13.6270506141
  N         3.1840702139        0.0655969318       15.5893544542
 Ga         3.1836993666        1.9046665717       15.8689126685
  N         1.4576684752        4.6184856535        2.5188094977
 Ga         1.6702309337        2.7902004936        3.3308758885
  N         1.5764356704        2.8314645854        5.2810795452
 Ga         1.6116441635        4.7142200851        5.8070845641
  N         1.5814110904        4.6942923573        7.8061459783
 Ga         1.5647652734        2.8390879080        8.4471923140
  N         1.5633594231        2.8386527021       10.4391405989
 Ga         1.5901973386        4.6990034326       11.0755713707
  N         1.6068205677        4.7086641703       13.0688722269
 Ga         1.5647776116        2.8394385349       13.6260680494
  N         1.5927269513        2.8217229385       15.5857204121
 Ga         1.4107601308        4.5928658706       16.4881261362
  N        -0.0337937229        7.4700725561        2.6128960247
 Ga        -0.0152242557        5.7258890639        3.3023468065
  N        -0.0341051985        5.6171232540        5.2656249585
 Ga        -0.0326527203        7.4716839300        5.8844832334
  N        -0.0343082803        7.4760414124        7.8576134153
 Ga        -0.0335502221        5.6070411426        8.4470825312
  N        -0.0342033625        5.6063986850       10.4392502516
 Ga        -0.0342302511        7.4760187115       11.0323815500
  N        -0.0332857370        7.4759725742       13.0026887872
 Ga        -0.0329163216        5.6063681340       13.6270852222
  N        -0.0325673020        5.6388475422       15.5885509579
 Ga        -0.0322274808        7.4763546353       15.8661345933
  N        -1.7473035967       10.2019704981        2.5252629577
 Ga        -1.5464982724        8.3468282002        3.2869754342
  N        -1.6393722381        8.4029171395        5.2539052521
 Ga        -1.6173491779       10.2746151741        5.8050425553
  N        -1.6332188264       10.2655111852        7.8016336735
 Ga        -1.6523170532        8.4087795460        8.4437687663
  N        -1.6536934806        8.4101386815       10.4360131785
 Ga        -1.6265652100       10.2686792965       11.0759159008
  N        -1.6097068586       10.2785772828       13.0683961038
 Ga        -1.6517658399        8.4098520033       13.6258892952
  N        -1.6258513578        8.3935271978       15.5865985738
 Ga        -1.8016260010       10.1654180947       16.4846783764
  N         6.3913509827        2.0188832477        2.5365422932
 Ga         6.3955460928        0.0412332532        2.8718788638
  N         6.3990106215        0.0475802191        5.0266963346
 Ga         6.3973219286        1.8740730039        5.8078757572
  N         6.3979462712        1.8933730587        7.8029721157
 Ga         6.3972692199        0.0478041310        8.4522604785
  N         6.3985940112        0.0477611209       10.4248703335
 Ga         6.3989180495        1.8872121019       11.0768540013
  N         6.3994943516        1.8675908795       13.0694147625
 Ga         6.3989327796        0.0470263434       13.8727233104
  N         6.3998312028        0.0503494084       16.0732689276
 Ga         6.3981324232        2.0911533546       16.4858237456
 Ga         6.4263730239        3.7441981996        1.4981540469
  N         4.9037408845        4.6229634723        2.5192171843
 Ga         4.6836707292        2.7746884800        3.2963873093
  N         4.7898292348        2.8312998045        5.2567475747
 Ga         4.7543055677        4.7092488686        5.8048139114
  N         4.7851379751        4.6920985574        7.8027413024
 Ga         4.8015101008        2.8390306110        8.4484814464
  N         4.8022990497        2.8390055589       10.4393036925
 Ga         4.7765459032        4.6989607680       11.0759956003
  N         4.7596690678        4.7089519545       13.0694457905
 Ga         4.8021729810        2.8395683480       13.6244802224
  N         4.7748470754        2.8214106839       15.5846393980
 Ga         4.9486642895        4.5955073959       16.4848271488
  N         6.3958666176        3.7632540243       17.6184859586
  N         3.1851331307        7.5968040241        2.5045483433
  N         3.1872477918        5.6187320348        5.0354525954
 Ga         3.1833447640        7.4303472324        5.8078398018
  N         3.1830055920        7.4680610936        7.8053288136
 Ga         3.1834473430        5.6178129953        8.4456106266
  N         3.1838953602        5.6185054692       10.4218927728
 Ga         3.1830145429        7.4578117395       11.0755501823
  N         3.1833109626        7.4394536763       13.0685017284
 Ga         3.1823916169        5.6195127356       13.8737232738
  N         3.1836259931        5.6182828396       16.0731808441
 Ga         3.1819054114        7.6600010714       16.4863118432
 Ga         3.1816581222        9.3510527751        1.4996543184
  N         1.6792393939       10.1948975070        2.5372614893
 Ga         1.4743255789        8.3373042037        3.3024506205
  N         1.5771857903        8.4041120882        5.2634221948
 Ga         1.5478154898       10.2753530821        5.8107694926
  N         1.5641041183       10.2659065238        7.8054749441
 Ga         1.5841841758        8.4088445226        8.4467872509
  N         1.5853219456        8.4102213376       10.4384029112
 Ga         1.5596932590       10.2688896126       11.0764411572
  N         1.5434867626       10.2790425228       13.0690153354
 Ga         1.5860944840        8.4100879391       13.6253287991
  N         1.5602050778        8.3933475286       15.5856470511
 Ga         1.7331282810       10.1655080015       16.4863909932
  N         3.1804225486        9.3329560003       17.6252823937
  N         9.6174150418        1.9060512574        2.6191817587
 Ga         9.6134948215        0.1641795976        3.3007705703
  N         9.6141515147        0.0492107968        5.2618496347
 Ga         9.6126217282        1.9046651577        5.8915806181
  N         9.6129943308        1.9036528955        7.8615130693
 Ga         9.6141153001        0.0352150763        8.4478819492
  N         9.6150680513        0.0348136858       10.4386531118
 Ga         9.6141747640        1.9049567223       11.0325378685
  N         9.6147920642        1.9043515253       13.0025814688
 Ga         9.6153493002        0.0354505713       13.6273116855
  N         9.6153819721        0.0649864573       15.5897169806
 Ga         9.6157755948        1.9042748131       15.8685077007
  N         7.9067771107        4.6318489675        2.5336068656
 Ga         8.1050315596        2.7736794288        3.2960098003
  N         8.0063377412        2.8303423402        5.2574454686
 Ga         8.0354877015        4.7028193641        5.8050317692
  N         8.0175183412        4.6951522026        7.8007223118
 Ga         7.9952430982        2.8391003087        8.4459457991
  N         7.9950992318        2.8398281951       10.4373429093
 Ga         8.0216980558        4.6988620470       11.0759760174
  N         8.0392569268        4.7087126111       13.0686378195
 Ga         7.9966565252        2.8396579422       13.6253592031
  N         8.0236969268        2.8220201656       15.5859515960
 Ga         7.8464583734        4.5947104934       16.4849121640
  N         6.3969899869        7.4711328870        2.6053203533
 Ga         6.4014673736        5.7317254272        3.3007495778
  N         6.4001577378        5.6138999406        5.2606228012
 Ga         6.3986953773        7.4723766292        5.8813357505
  N         6.3998177311        7.4748165955        7.8541991180
 Ga         6.3990973875        5.6060358792        8.4432838652
  N         6.3997359883        5.6062049322       10.4360329348
 Ga         6.3993455997        7.4754061088       11.0314464813
  N         6.3994521452        7.4753211814       13.0021437951
 Ga         6.3996537000        5.6060955768       13.6265147283
  N         6.3999393603        5.6379031543       15.5889805814
 Ga         6.3994383937        7.4763476359       15.8664322233
  N         4.6858619078       10.1984911611        2.5366684274
 Ga         4.8919659194        8.3433194677        3.3004649515
  N         4.7895812720        8.4035959748        5.2613217954
 Ga         4.8157091446       10.2748874076        5.8107100141
  N         4.8004832127       10.2654850941        7.8049838653
 Ga         4.7814571346        8.4081216772        8.4458509049
  N         4.7806192539        8.4101312682       10.4374469494
 Ga         4.8059025450       10.2687005653       11.0766524726
  N         4.8225398015       10.2787252753       13.0689524027
 Ga         4.7806142091        8.4098334252       13.6260648049
  N         4.8060077414        8.3933775069       15.5869285571
 Ga         4.6305195160       10.1653976808       16.4861495450
  O         1.0589083828        3.4655153557       -0.2637941861
  H         1.8131996678        4.0344325660        0.0232939044
  C         1.5601920599        2.0845645405       -0.4520750357
  H         2.2118307248        1.8087576469        0.3940570601
  H         0.6812299984        1.4334054905       -0.4824345936
  H         2.0926778400        2.0537572177       -1.4095070069
 Ga         3.2059120206        5.5977313899        2.6542821523
  O         3.2033922525        5.5529597710        0.1853922358
  H         3.0151923561        6.4907187796       -0.0151727534
  C         4.4195821045        5.1693710198       -0.5037468105
  H         5.3115245335        5.5790018792       -0.0018544048
  H         4.4457574855        4.0716746771       -0.4440858677
  H         4.3857403570        5.4832789024       -1.5526115200
     212
 i =        2, E =     -8504.6540851976
  N        -0.0360605384        2.0288352315        2.5448849593
 Ga        -0.0333674475        0.0604902517        2.8851582093
  N        -0.0342659439        0.0478278036        5.0289459578
 Ga        -0.0327868285        1.8790170366        5.8154412213
  N        -0.0346839009        1.8910916806        7.8080837517
 Ga        -0.0328340069        0.0467654559        8.4560504560
  N        -0.0328908257        0.0466194275       10.4262766741
 Ga        -0.0332018737        1.8872898043       11.0778916430
  N        -0.0332604046        1.8676337530       13.0684072634
 Ga        -0.0331390369        0.0484943487       13.8763280089
  N        -0.0327426100        0.0502127741       16.0735911920
 Ga        -0.0343250521        2.1002077470       16.4899934879
 Ga        -0.0287028685        3.7304659346        1.5146202289
  N        -1.5144583980        4.6134259298        2.5096775686
 Ga        -1.7353519308        2.7720629890        3.3121948415
  N        -1.6473238312        2.8301315159        5.2694796473
 Ga        -1.6597121065        4.7039533319        5.8121911707
  N        -1.6530487290        4.6957776623        7.8060460068
 Ga        -1.6321193744        2.8390420802        8.4487786979
  N        -1.6306005275        2.8395968785       10.4382989268
 Ga        -1.6561885121        4.6989701734       11.0782466883
  N        -1.6736488605        4.7085412698       13.0689879940
 Ga        -1.6309211038        2.8388341755       13.6264407821
  N        -1.6599850667        2.8188049576       15.5825509404
 Ga        -1.4771736619        4.5910220429       16.4884348600
  N        -0.0334540456        3.7666741997       17.6192484549
  N        -3.2487153897        7.5920366487        2.5229176644
 Ga        -3.2277139894        5.6117100444        2.8598569375
  N        -3.2447746793        5.6132979417        5.0172044552
 Ga        -3.2485643740        7.4447010190        5.8021812067
  N        -3.2499427820        7.4630294871        7.7975765073
 Ga        -3.2496041519        5.6184632256        8.4547819066
  N        -3.2500042823        5.6185924604       10.4251325185
 Ga        -3.2496878409        7.4580239374       11.0769820779
  N        -3.2492827198        7.4387006147       13.0671786753
 Ga        -3.2489811204        5.6192058097       13.8769948143
  N        -3.2492823708        5.6169406978       16.0725366626
 Ga        -3.2506851557        7.6612135231       16.4842341587
 Ga        -3.2457762653        9.3252919991        1.4634662357
  N        -4.7548379791       10.2017235179        2.5196015753
 Ga        -4.9563867766        8.3453292969        3.2803745694
  N        -4.8599010361        8.4010241072        5.2458777029
 Ga        -4.8806172706       10.2734342786        5.8062352886
  N        -4.8665533879       10.2650367903        7.8000986648
 Ga        -4.8474777315        8.4082165366        8.4444129481
  N        -4.8459414467        8.4099970295       10.4346457801
 Ga        -4.8720106542       10.2682184262       11.0782766323
  N        -4.8887520964       10.2783939364       13.0690076408
 Ga        -4.8461440545        8.4092183492       13.6261308194
  N        -4.8720816055        8.3923291301       15.5842610671
 Ga        -4.6998019446       10.1657014427       16.4843207118
  N        -3.2501185568        9.3372630910       17.6269855643
  N         3.1675043699        1.9152044495        2.5957823888
 Ga         3.1790940371        0.1620656969        3.2841599430
  N         3.1826410607        0.0528663440        5.2477846313
 Ga         3.1835236376        1.9050373554        5.8961298624
  N         3.1842936419        1.9027833588        7.8630544693
 Ga         3.1825221117        0.0354084655        8.4487275738
  N         3.1826173919        0.0341181627       10.4373476983
 Ga         3.1823170848        1.9050197831       11.0330731693
  N         3.1831267115        1.9036629426       13.0006472961
 Ga         3.1829653046        0.0356686456       13.6282465527
  N         3.1826952290        0.0639568681       15.5893184674
 Ga         3.1828779446        1.9029410993       15.8670856814
  N         1.4526024321        4.6167829447        2.5277148328
 Ga         1.6670193544        2.7925800320        3.3291048647
  N         1.5801166619        2.8317033799        5.2766550139
 Ga         1.6170395516        4.7168747807        5.8043369472
  N         1.5823915249        4.6949639333        7.8060499314
 Ga         1.5641227842        2.8406166268        8.4469372687
  N         1.5632199111        2.8390943215       10.4376319256
 Ga         1.5902697772        4.6992270509       11.0763812225
  N         1.6072571086        4.7086097075       13.0684245556
 Ga         1.5646124147        2.8388626163       13.6270961899
  N         1.5928776821        2.8188825551       15.5844544704
 Ga         1.4095353353        4.5916031026       16.4884745373
  N        -0.0291134256        7.4673991895        2.6094126299
 Ga        -0.0126899038        5.7225026400        3.3019093032
  N        -0.0319053263        5.6202938048        5.2619986304
 Ga        -0.0319761845        7.4716623495        5.8865701021
  N        -0.0338424679        7.4760517629        7.8575794733
 Ga        -0.0325312685        5.6059544106        8.4466522878
  N        -0.0341026935        5.6064005518       10.4378257055
 Ga        -0.0339676188        7.4757644440       11.0330016084
  N        -0.0334837929        7.4760037853       13.0019832928
 Ga        -0.0331250630        5.6055092758       13.6281102272
  N        -0.0335138746        5.6401441532       15.5877506700
 Ga        -0.0330205274        7.4757379797       15.8627159333
  N        -1.7483960236       10.2011874945        2.5251116612
 Ga        -1.5415082772        8.3436239744        3.2866451374
  N        -1.6389683377        8.4025844739        5.2508617325
 Ga        -1.6186905863       10.2739963120        5.8064552449
  N        -1.6333055052       10.2654036694        7.8007106714
 Ga        -1.6516183573        8.4083994284        8.4446575071
  N        -1.6536061381        8.4104052092       10.4350086784
 Ga        -1.6269067621       10.2686681415       11.0777511080
  N        -1.6095446096       10.2786105722       13.0687631863
 Ga        -1.6524346029        8.4092909729       13.6269678349
  N        -1.6274049148        8.3925131355       15.5863328801
 Ga        -1.8007928916       10.1660837333       16.4842251355
  N         6.3967238271        2.0139720743        2.5435388255
 Ga         6.3973631212        0.0373970320        2.8774966108
  N         6.3994676251        0.0470694724        5.0273729579
 Ga         6.3943754979        1.8767549130        5.8094972707
  N         6.3986227052        1.8923977212        7.8026094643
 Ga         6.3972270762        0.0474693929        8.4543241879
  N         6.3983912889        0.0474916110       10.4249989801
 Ga         6.3987936871        1.8872444021       11.0779887919
  N         6.3993956446        1.8676240515       13.0681576622
 Ga         6.3991552250        0.0481820556       13.8754941867
  N         6.3994065130        0.0505550771       16.0735857152
 Ga         6.3976398310        2.0985697002       16.4879624380
 Ga         6.4419803774        3.7305082219        1.5186273547
  N         4.9149678020        4.6146855709        2.5271285941
 Ga         4.6840767572        2.7733763346        3.3003055024
  N         4.7865169254        2.8305469210        5.2551882027
 Ga         4.7499115933        4.7121842951        5.8023834537
  N         4.7843859741        4.6926246802        7.8028317213
 Ga         4.8019346436        2.8400212112        8.4489684268
  N         4.8025694819        2.8390995709       10.4384407461
 Ga         4.7760636990        4.6994828487       11.0763451211
  N         4.7592015637        4.7087067146       13.0680422549
 Ga         4.8015897502        2.8390746134       13.6255058687
  N         4.7725083583        2.8188941259       15.5821821520
 Ga         4.9530638592        4.5921921354       16.4865120650
  N         6.3986739331        3.7671989798       17.6161544703
  N         3.1849726552        7.5940428913        2.4788843188
  N         3.1879552380        5.6182850800        5.0360817932
 Ga         3.1843360795        7.4236641579        5.8054748507
  N         3.1830439663        7.4669566580        7.8051370274
 Ga         3.1830659426        5.6174936322        8.4484558174
  N         3.1835255983        5.6181708264       10.4230091682
 Ga         3.1830661750        7.4570622903       11.0753999702
  N         3.1831774819        7.4386599914       13.0668104228
 Ga         3.1828560212        5.6192728002       13.8767897622
  N         3.1837187682        5.6169051064       16.0730975018
 Ga         3.1817915509        7.6613901037       16.4852029400
 Ga         3.1829898381        9.3655912979        1.4921074396
  N         1.6808485613       10.1970080844        2.5389395936
 Ga         1.4807795227        8.3344011746        3.2962401569
  N         1.5773261487        8.3999025320        5.2549212781
 Ga         1.5501468591       10.2701193723        5.8106232287
  N         1.5635258591       10.2664619903        7.8040477367
 Ga         1.5853814494        8.4087146346        8.4471079945
  N         1.5853974520        8.4106068923       10.4375036283
 Ga         1.5598616085       10.2688868714       11.0778245476
  N         1.5431608027       10.2790486153       13.0688197315
 Ga         1.5864127647        8.4095501736       13.6258394495
  N         1.5603448447        8.3925357763       15.5845025441
 Ga         1.7332973807       10.1650543777       16.4854657768
  N         3.1830890173        9.3370443500       17.6277801451
  N         9.6195471152        1.9051845235        2.6124875972
 Ga         9.6141914444        0.1665184553        3.3043183090
  N         9.6141563483        0.0501822306        5.2626389609
 Ga         9.6139975080        1.9048417927        5.8941740495
  N         9.6129871695        1.9037668769        7.8614861859
 Ga         9.6139904281        0.0352236198        8.4489041352
  N         9.6151297216        0.0347222080       10.4377762871
 Ga         9.6144489690        1.9051492262       11.0329506727
  N         9.6147854102        1.9039072282       13.0003624876
 Ga         9.6149321347        0.0356987796       13.6286078133
  N         9.6145047022        0.0638319856       15.5898729591
 Ga         9.6152734187        1.9027619025       15.8673927651
  N         7.9119525670        4.6296379602        2.5394498905
 Ga         8.1134980856        2.7690466176        3.3055722135
  N         8.0067857453        2.8301591207        5.2612625205
 Ga         8.0327262645        4.7037582065        5.8075456777
  N         8.0186416221        4.6949597930        7.8009689002
 Ga         7.9953919159        2.8388423110        8.4479120719
  N         7.9950018241        2.8401754963       10.4370401685
 Ga         8.0215157970        4.6991262283       11.0782038317
  N         8.0393450942        4.7084049145       13.0690263503
 Ga         7.9968219161        2.8386669580       13.6270085083
  N         8.0247652752        2.8188309169       15.5845740123
 Ga         7.8433296094        4.5927628219       16.4864979321
  N         6.3933391709        7.4671678153        2.5980153129
 Ga         6.4013093220        5.7303826157        3.3042775805
  N         6.4004119957        5.6171809189        5.2585800109
 Ga         6.3977631089        7.4732263158        5.8847649803
  N         6.3993220089        7.4748794903        7.8550014517
 Ga         6.3983695922        5.6049331403        8.4441176389
  N         6.4000613663        5.6062205962       10.4355177792
 Ga         6.3991557352        7.4754373360       11.0324031659
  N         6.3993904769        7.4754680672       13.0012368793
 Ga         6.3989789326        5.6056056749       13.6278191454
  N         6.3986631945        5.6401496103       15.5877100884
 Ga         6.3989908941        7.4758774320       15.8633944806
  N         4.6863115065       10.2013784632        2.5388847180
 Ga         4.8867229148        8.3413283567        3.2931513368
  N         4.7905224488        8.4008485955        5.2517436148
 Ga         4.8142907286       10.2709505562        5.8110565923
  N         4.8008837783       10.2660960807        7.8040118667
 Ga         4.7798624318        8.4082114837        8.4466151671
  N         4.7806118998        8.4105594439       10.4367937659
 Ga         4.8057258216       10.2686505522       11.0785371857
  N         4.8225282263       10.2786967475       13.0696045629
 Ga         4.7799608275        8.4090130637       13.6269093371
  N         4.8048966842        8.3922034295       15.5865314280
 Ga         4.6317190263       10.1659407810       16.4851483495
  O         1.0561841422        3.4679950341       -0.2621752207
  H         1.8139034010        4.0599362296       -0.0039976419
  C         1.5630583576        2.0923209948       -0.4488085056
  H         2.2137037288        1.8061628423        0.3955167626
  H         0.6851439224        1.4364160602       -0.4819374432
  H         2.0926993313        2.0527800978       -1.4091458576
 Ga         3.1809962727        5.5856996248        2.7442584484
  O         3.1767261649        5.5303541412        0.1442858692
  H         3.0147178599        6.4937744471        0.0200755130
  C         4.4098256589        5.1708302298       -0.5270770667
  H         5.2876274240        5.6100226483       -0.0173572117
  H         4.4529479293        4.0747655905       -0.4671563593
  H         4.3884429920        5.4799946238       -1.5775986044
     212
 i =        3, E =     -8504.6566278746
  N        -0.0374133943        2.0272584093        2.5423874063
 Ga        -0.0348279451        0.0627009868        2.8876651980
  N        -0.0336503592        0.0480765988        5.0271187882
 Ga        -0.0323927687        1.8796720453        5.8153223449
  N        -0.0342155589        1.8920277912        7.8060995521
 Ga        -0.0333324435        0.0469809462        8.4557100422
  N        -0.0330397087        0.0467734157       10.4246604213
 Ga        -0.0328227861        1.8875205795       11.0791288170
  N        -0.0333626332        1.8669980124       13.0671968865
 Ga        -0.0332499362        0.0489674785       13.8793082516
  N        -0.0333223607        0.0488056613       16.0712458451
 Ga        -0.0337460046        2.1034076045       16.4924012012
 Ga        -0.0174896460        3.7321744635        1.5134486436
  N        -1.5134366517        4.6106100322        2.5058923751
 Ga        -1.7325985719        2.7720653638        3.3098103723
  N        -1.6468289583        2.8306241246        5.2668528311
 Ga        -1.6576173562        4.7037710120        5.8125437301
  N        -1.6518204108        4.6957908824        7.8042391514
 Ga        -1.6316978885        2.8392769923        8.4503987801
  N        -1.6300805461        2.8400968009       10.4371980525
 Ga        -1.6558189749        4.6993484008       11.0801725804
  N        -1.6742739174        4.7083949947       13.0685516822
 Ga        -1.6312155146        2.8381996531       13.6274262541
  N        -1.6602502768        2.8175902657       15.5819258844
 Ga        -1.4752119118        4.5912992036       16.4903634110
  N        -0.0320282949        3.7688598636       17.6162161989
  N        -3.2479289891        7.5914809843        2.5232355238
 Ga        -3.2218646536        5.6090458391        2.8628478564
  N        -3.2429478867        5.6139994994        5.0151285880
 Ga        -3.2489107578        7.4455205906        5.8008629325
  N        -3.2499764091        7.4631184108        7.7943637643
 Ga        -3.2489211574        5.6181412211        8.4553202833
  N        -3.2498520089        5.6183890566       10.4239492011
 Ga        -3.2495475421        7.4577139326       11.0785782856
  N        -3.2495237954        7.4375068733       13.0664879141