 DBCSR| Multiplication driver                                               BLAS
 DBCSR| Multrec recursion limit                                              512
 DBCSR| Multiplication stack size                                           1000
 DBCSR| Maximum elements for images                                    UNLIMITED
 DBCSR| Multiplicative factor virtual images                                   1
 DBCSR| Multiplication size stacks                                             3
 DBCSR| Number of 3D layers                                               SINGLE
 DBCSR| Use MPI memory allocation                                              T
 DBCSR| Use RMA algorithm                                                      F
 DBCSR| Use Communication thread                                               T
 DBCSR| Communication thread load                                             87


  **** **** ******  **  PROGRAM STARTED AT               2019-05-26 08:48:20.032
 ***** ** ***  *** **   PROGRAM STARTED ON        blg9119.int.ets1.calculquebec.
 **    ****   ******    PROGRAM STARTED BY                                   rzk
 ***** **    ** ** **   PROGRAM PROCESS ID                                151797
  **** **  *******  **  PROGRAM STARTED IN /lustre03/project/6004141/rzk/GaN-car
                                           bene/01-Methanol/443-capped/03-both-a
                                           ds

 CP2K| version string:                    CP2K version 7.0 (Development Version)
 CP2K| source code revision number:                                    svn:18619
 CP2K| cp2kflags: libint fftw3 libxc parallel mpi3 scalapack mkl                
 CP2K| is freely available from                            https://www.cp2k.org/
 CP2K| Program compiled at                          Sun Apr  7 00:48:11 EDT 2019
 CP2K| Program compiled on                      beluga2.int.ets1.calculquebec.ca
 CP2K| Program compiled for                    Beluga-Linux-x86-64-intel-openmpi
 CP2K| Data directory path    /home/rzk/projects/def-rzk/group/cp2k/cp2k-mcgill/
 CP2K| Input file name                                                 start.inp
 
 GLOBAL| Force Environment number                                              1
 GLOBAL| Basis set file name                                        BASIS_MOLOPT
 GLOBAL| Potential file name                                      GTH_POTENTIALS
 GLOBAL| MM Potential file name                                     MM_POTENTIAL
 GLOBAL| Coordinate file name                                      __STD_INPUT__
 GLOBAL| Method name                                                        CP2K
 GLOBAL| Project name                                                       TEST
 GLOBAL| Preferred FFT library                                             FFTW3
 GLOBAL| Preferred diagonalization lib.                                       SL
 GLOBAL| Run type                                                        GEO_OPT
 GLOBAL| All-to-all communication in single precision                          F
 GLOBAL| FFTs using library dependent lengths                                  F
 GLOBAL| Global print level                                               MEDIUM
 GLOBAL| MPI I/O enabled                                                       T
 GLOBAL| Total number of message passing processes                            80
 GLOBAL| Number of threads for this process                                    1
 GLOBAL| This output is from process                                           0
 GLOBAL| CPU model name :  Intel(R) Xeon(R) Gold 6148 CPU @ 2.40GHz

 MEMORY| system memory details [Kb]
 MEMORY|                        rank 0           min           max       average
 MEMORY| MemTotal            196614300     196614300     196614300     196614300
 MEMORY| MemFree             173553808     173550364     184507364     179026603
 MEMORY| Buffers                    76            76            76            76
 MEMORY| Cached               10821788       1204228      10821788       6013008
 MEMORY| Slab                  2267336       1045260       2267336       1656298
 MEMORY| SReclaimable           199680        152792        199680        176236
 MEMORY| MemLikelyFree       184575352     184571908     185864460     185215923


 *** Fundamental physical constants (SI units) ***

 *** Literature: B. J. Mohr and B. N. Taylor,
 ***             CODATA recommended values of the fundamental physical
 ***             constants: 2006, Web Version 5.1
 ***             http://physics.nist.gov/constants

 Speed of light in vacuum [m/s]                             2.99792458000000E+08
 Magnetic constant or permeability of vacuum [N/A**2]       1.25663706143592E-06
 Electric constant or permittivity of vacuum [F/m]          8.85418781762039E-12
 Planck constant (h) [J*s]                                  6.62606896000000E-34
 Planck constant (h-bar) [J*s]                              1.05457162825177E-34
 Elementary charge [C]                                      1.60217648700000E-19
 Electron mass [kg]                                         9.10938215000000E-31
 Electron g factor [ ]                                     -2.00231930436220E+00
 Proton mass [kg]                                           1.67262163700000E-27
 Fine-structure constant                                    7.29735253760000E-03
 Rydberg constant [1/m]                                     1.09737315685270E+07
 Avogadro constant [1/mol]                                  6.02214179000000E+23
 Boltzmann constant [J/K]                                   1.38065040000000E-23
 Atomic mass unit [kg]                                      1.66053878200000E-27
 Bohr radius [m]                                            5.29177208590000E-11

 *** Conversion factors ***

 [u] -> [a.u.]                                              1.82288848426455E+03
 [Angstrom] -> [Bohr] = [a.u.]                              1.88972613288564E+00
 [a.u.] = [Bohr] -> [Angstrom]                              5.29177208590000E-01
 [a.u.] -> [s]                                              2.41888432650478E-17
 [a.u.] -> [fs]                                             2.41888432650478E-02
 [a.u.] -> [J]                                              4.35974393937059E-18
 [a.u.] -> [N]                                              8.23872205491840E-08
 [a.u.] -> [K]                                              3.15774647902944E+05
 [a.u.] -> [kJ/mol]                                         2.62549961709828E+03
 [a.u.] -> [kcal/mol]                                       6.27509468713739E+02
 [a.u.] -> [Pa]                                             2.94210107994716E+13
 [a.u.] -> [bar]                                            2.94210107994716E+08
 [a.u.] -> [atm]                                            2.90362800883016E+08
 [a.u.] -> [eV]                                             2.72113838565563E+01
 [a.u.] -> [Hz]                                             6.57968392072181E+15
 [a.u.] -> [1/cm] (wave numbers)                            2.19474631370540E+05
 [a.u./Bohr**2] -> [1/cm]                                   5.14048714338585E+03
 

 CELL_TOP| Volume [angstrom^3]:                                         4160.044
 CELL_TOP| Vector a [angstrom    12.846     0.000     0.000    |a| =      12.846
 CELL_TOP| Vector b [angstrom    -6.447    11.167     0.000    |b| =      12.895
 CELL_TOP| Vector c [angstrom     0.000     0.000    29.000    |c| =      29.000
 CELL_TOP| Angle (b,c), alpha [degree]:                                   90.000
 CELL_TOP| Angle (a,c), beta  [degree]:                                   90.000
 CELL_TOP| Angle (a,b), gamma [degree]:                                  120.000
 CELL_TOP| Numerically orthorhombic:                                          NO
 
 GENERATE|  Preliminary Number of Bonds generated:                             0
 GENERATE|  Achieved consistency in connectivity generation.

 CELL| Volume [angstrom^3]:                                             4160.044
 CELL| Vector a [angstrom]:      12.846     0.000     0.000    |a| =      12.846
 CELL| Vector b [angstrom]:      -6.447    11.167     0.000    |b| =      12.895
 CELL| Vector c [angstrom]:       0.000     0.000    29.000    |c| =      29.000
 CELL| Angle (b,c), alpha [degree]:                                       90.000
 CELL| Angle (a,c), beta  [degree]:                                       90.000
 CELL| Angle (a,b), gamma [degree]:                                      120.000
 CELL| Numerically orthorhombic:                                              NO

 CELL_REF| Volume [angstrom^3]:                                         4232.876
 CELL_REF| Vector a [angstrom    12.982     0.000     0.000    |a| =      12.982
 CELL_REF| Vector b [angstrom    -6.491    11.243     0.000    |b| =      12.982
 CELL_REF| Vector c [angstrom     0.000     0.000    29.000    |c| =      29.000
 CELL_REF| Angle (b,c), alpha [degree]:                                   90.000
 CELL_REF| Angle (a,c), beta  [degree]:                                   90.000
 CELL_REF| Angle (a,b), gamma [degree]:                                  120.000
 CELL_REF| Numerically orthorhombic:                                          NO

 *******************************************************************************
 *******************************************************************************
 **                                                                           **
 **     #####                         ##              ##                      **
 **    ##   ##            ##          ##              ##                      **
 **   ##     ##                       ##            ######                    **
 **   ##     ##  ##   ##  ##   #####  ##  ##   ####   ##    #####    #####    **
 **   ##     ##  ##   ##  ##  ##      ## ##   ##      ##   ##   ##  ##   ##   **
 **   ##  ## ##  ##   ##  ##  ##      ####     ###    ##   ######   ######    **
 **    ##  ###   ##   ##  ##  ##      ## ##      ##   ##   ##       ##        **
 **     #######   #####   ##   #####  ##  ##  ####    ##    #####   ##        **
 **           ##                                                    ##        **
 **                                                                           **
 **                                                ... make the atoms dance   **
 **                                                                           **
 **            Copyright (C) by CP2K developers group (2000 - 2018)           **
 **                                                                           **
 *******************************************************************************

 DFT| Spin restricted Kohn-Sham (RKS) calculation                            RKS
 DFT| Multiplicity                                                             1
 DFT| Number of spin states                                                    1
 DFT| Charge                                                                   0
 DFT| Self-interaction correction (SIC)                                       NO
 DFT| Cutoffs: density                                              1.000000E-10
 DFT|          gradient                                             1.000000E-10
 DFT|          tau                                                  1.000000E-10
 DFT|          cutoff_smoothing_range                               0.000000E+00
 DFT| XC density smoothing                                                  NONE
 DFT| XC derivatives                                                          PW
 FUNCTIONAL| ROUTINE=NEW
 FUNCTIONAL| PBE:
 FUNCTIONAL| J.P.Perdew, K.Burke, M.Ernzerhof, Phys. Rev. Letter, vol. 77, n 18,
 FUNCTIONAL|  pp. 3865-3868, (1996){spin unpolarized}                           
 vdW POTENTIAL|                                                   Pair Potential
 vdW POTENTIAL|          DFT-D3 (Version 3.1)
 vdW POTENTIAL|          Potential Form: S. Grimme et al, JCP 132: 154104 (2010)
 vdW POTENTIAL|          Zero Damping
 vdW POTENTIAL|          Cutoff Radius [Bohr]:                             18.90
 vdW POTENTIAL|          s6 Scaling Factor:                               1.0000
 vdW POTENTIAL|          sr6 Scaling Factor:                              1.2170
 vdW POTENTIAL|          s8 Scaling Factor:                               0.7220
 vdW POTENTIAL|          Cutoff for CN calculation:                   0.1000E-05

 QS| Method:                                                                 GPW
 QS| Density plane wave grid type                        NON-SPHERICAL FULLSPACE
 QS| Number of grid levels:                                                    5
 QS| Density cutoff [a.u.]:                                                600.0
 QS| Multi grid cutoff [a.u.]: 1) grid level                               600.0
 QS|                           2) grid level                               200.0
 QS|                           3) grid level                                66.7
 QS|                           4) grid level                                22.2
 QS|                           5) grid level                                 7.4
 QS| Grid level progression factor:                                          3.0
 QS| Relative density cutoff [a.u.]:                                        20.0
 QS| Consistent realspace mapping and integration 
 QS| Interaction thresholds: eps_pgf_orb:                                1.0E-07
 QS|                         eps_filter_matrix:                          0.0E+00
 QS|                         eps_core_charge:                            1.0E-16
 QS|                         eps_rho_gspace:                             1.0E-14
 QS|                         eps_rho_rspace:                             1.0E-14
 QS|                         eps_gvg_rspace:                             1.0E-07
 QS|                         eps_ppl:                                    1.0E-02
 QS|                         eps_ppnl:                                   1.0E-09


 ATOMIC KIND INFORMATION

  1. Atomic kind: Ga                                    Number of atoms:      96

     Orbital Basis Set                                    DZVP-MOLOPT-SR-GTH-q13

       Number of orbital shell sets:                                           1
       Number of orbital shells:                                               7
       Number of primitive Cartesian functions:                                6
       Number of Cartesian basis functions:                                   30
       Number of spherical basis functions:                                   25
       Norm type:                                                              2

       Normalised Cartesian orbitals:

                        Set   Shell   Orbital            Exponent    Coefficient

                          1       1    2s                7.066654       0.013136
                                                         3.428369      -0.094392
                                                         1.430064       0.265435
                                                         0.571611       0.056465
                                                         0.232197      -0.192187
                                                         0.076562      -0.044987

                          1       2    3s                7.066654      -0.098564
                                                         3.428369       0.010390
                                                         1.430064       0.351249
                                                         0.571611       0.182615
                                                         0.232197      -0.425358
                                                         0.076562       0.190349

                          1       3    3px               7.066654       0.002364
                                                         3.428369       0.019222
                                                         1.430064       0.250132
                                                         0.571611      -0.058486
                                                         0.232197      -0.159451
                                                         0.076562      -0.020696
                          1       3    3py               7.066654       0.002364
                                                         3.428369       0.019222
                                                         1.430064       0.250132
                                                         0.571611      -0.058486
                                                         0.232197      -0.159451
                                                         0.076562      -0.020696
                          1       3    3pz               7.066654       0.002364
                                                         3.428369       0.019222
                                                         1.430064       0.250132
                                                         0.571611      -0.058486
                                                         0.232197      -0.159451
                                                         0.076562      -0.020696

                          1       4    4px               7.066654       0.492448
                                                         3.428369      -0.614736
                                                         1.430064      -0.191654
                                                         0.571611       0.037801
                                                         0.232197       0.302315
                                                         0.076562      -0.071336
                          1       4    4py               7.066654       0.492448
                                                         3.428369      -0.614736
                                                         1.430064      -0.191654
                                                         0.571611       0.037801
                                                         0.232197       0.302315
                                                         0.076562      -0.071336
                          1       4    4pz               7.066654       0.492448
                                                         3.428369      -0.614736
                                                         1.430064      -0.191654
                                                         0.571611       0.037801
                                                         0.232197       0.302315
                                                         0.076562      -0.071336

                          1       5    4dx2              7.066654     -15.264855
                                                         3.428369      -5.345726
                                                         1.430064      -1.022732
                                                         0.571611      -0.123148
                                                         0.232197      -0.006983
                                                         0.076562      -0.000022
                          1       5    4dxy              7.066654     -26.439504
                                                         3.428369      -9.259069
                                                         1.430064      -1.771423
                                                         0.571611      -0.213299
                                                         0.232197      -0.012094
                                                         0.076562      -0.000037
                          1       5    4dxz              7.066654     -26.439504
                                                         3.428369      -9.259069
                                                         1.430064      -1.771423
                                                         0.571611      -0.213299
                                                         0.232197      -0.012094
                                                         0.076562      -0.000037
                          1       5    4dy2              7.066654     -15.264855
                                                         3.428369      -5.345726
                                                         1.430064      -1.022732
                                                         0.571611      -0.123148
                                                         0.232197      -0.006983
                                                         0.076562      -0.000022
                          1       5    4dyz              7.066654     -26.439504
                                                         3.428369      -9.259069
                                                         1.430064      -1.771423
                                                         0.571611      -0.213299
                                                         0.232197      -0.012094
                                                         0.076562      -0.000037
                          1       5    4dz2              7.066654     -15.264855
                                                         3.428369      -5.345726
                                                         1.430064      -1.022732
                                                         0.571611      -0.123148
                                                         0.232197      -0.006983
                                                         0.076562      -0.000022

                          1       6    5dx2              7.066654      -5.739265
                                                         3.428369      -2.129289
                                                         1.430064      -0.700423
                                                         0.571611       0.161606
                                                         0.232197       0.043513
                                                         0.076562       0.011205
                          1       6    5dxy              7.066654      -9.940698
                                                         3.428369      -3.688037
                                                         1.430064      -1.213168
                                                         0.571611       0.279909
                                                         0.232197       0.075368
                                                         0.076562       0.019407
                          1       6    5dxz              7.066654      -9.940698
                                                         3.428369      -3.688037
                                                         1.430064      -1.213168
                                                         0.571611       0.279909
                                                         0.232197       0.075368
                                                         0.076562       0.019407
                          1       6    5dy2              7.066654      -5.739265
                                                         3.428369      -2.129289
                                                         1.430064      -0.700423
                                                         0.571611       0.161606
                                                         0.232197       0.043513
                                                         0.076562       0.011205
                          1       6    5dyz              7.066654      -9.940698
                                                         3.428369      -3.688037
                                                         1.430064      -1.213168
                                                         0.571611       0.279909
                                                         0.232197       0.075368
                                                         0.076562       0.019407
                          1       6    5dz2              7.066654      -5.739265
                                                         3.428369      -2.129289
                                                         1.430064      -0.700423
                                                         0.571611       0.161606
                                                         0.232197       0.043513
                                                         0.076562       0.011205

                          1       7    5fx3              7.066654       0.705879
                                                         3.428369      -0.273976
                                                         1.430064       0.113667
                                                         0.571611       0.132480
                                                         0.232197       0.012437
                                                         0.076562       0.003241
                          1       7    5fx2y             7.066654       1.578393
                                                         3.428369      -0.612629
                                                         1.430064       0.254167
                                                         0.571611       0.296234
                                                         0.232197       0.027811
                                                         0.076562       0.007246
                          1       7    5fx2z             7.066654       1.578393
                                                         3.428369      -0.612629
                                                         1.430064       0.254167
                                                         0.571611       0.296234
                                                         0.232197       0.027811
                                                         0.076562       0.007246
                          1       7    5fxy2             7.066654       1.578393
                                                         3.428369      -0.612629
                                                         1.430064       0.254167
                                                         0.571611       0.296234
                                                         0.232197       0.027811
                                                         0.076562       0.007246
                          1       7    5fxyz             7.066654       2.733856
                                                         3.428369      -1.061105
                                                         1.430064       0.440230
                                                         0.571611       0.513092
                                                         0.232197       0.048170
                                                         0.076562       0.012551
                          1       7    5fxz2             7.066654       1.578393
                                                         3.428369      -0.612629
                                                         1.430064       0.254167
                                                         0.571611       0.296234
                                                         0.232197       0.027811
                                                         0.076562       0.007246
                          1       7    5fy3              7.066654       0.705879
                                                         3.428369      -0.273976
                                                         1.430064       0.113667
                                                         0.571611       0.132480
                                                         0.232197       0.012437
                                                         0.076562       0.003241
                          1       7    5fy2z             7.066654       1.578393
                                                         3.428369      -0.612629
                                                         1.430064       0.254167
                                                         0.571611       0.296234
                                                         0.232197       0.027811
                                                         0.076562       0.007246
                          1       7    5fyz2             7.066654       1.578393
                                                         3.428369      -0.612629
                                                         1.430064       0.254167
                                                         0.571611       0.296234
                                                         0.232197       0.027811
                                                         0.076562       0.007246
                          1       7    5fz3              7.066654       0.705879
                                                         3.428369      -0.273976
                                                         1.430064       0.113667
                                                         0.571611       0.132480
                                                         0.232197       0.012437
                                                         0.076562       0.003241

     GTH Potential information for                                   GTH-PBE-q13

       Description:                       Goedecker-Teter-Hutter pseudopotential
                                           Goedecker et al., PRB 54, 1703 (1996)
                                          Hartwigsen et al., PRB 58, 3641 (1998)
                                                      Krack, TCA 114, 145 (2005)

       Gaussian exponent of the core charge distribution:               2.082466
       Electronic configuration (s p d ...):                           2   1  10

       Parameters of the local part of the GTH pseudopotential:

                          rloc        C1          C2          C3          C4
                        0.490000

       Parameters of the non-local part of the GTH pseudopotential:

                   l      r(l)      h(i,j,l)

                   0    0.416777   10.475690   -4.921768    0.870706
                                   -4.921768    7.770178   -2.248152
                                    0.870706   -2.248152    1.784415
                   1    0.569627    1.777985    0.195860
                                    0.195860   -0.231744
                   2    0.238126  -16.248680

  2. Atomic kind: N                                     Number of atoms:      96

     Orbital Basis Set                                     DZVP-MOLOPT-SR-GTH-q5

       Number of orbital shell sets:                                           1
       Number of orbital shells:                                               5
       Number of primitive Cartesian functions:                                5
       Number of Cartesian basis functions:                                   14
       Number of spherical basis functions:                                   13
       Norm type:                                                              2

       Normalised Cartesian orbitals:

                        Set   Shell   Orbital            Exponent    Coefficient

                          1       1    2s                7.341988       0.360561
                                                         2.542637       0.139177
                                                         0.888575      -0.289383
                                                         0.333802      -0.182244
                                                         0.112012      -0.019197

                          1       2    3s                7.341988       0.282000
                                                         2.542637       0.177875
                                                         0.888575      -0.278381
                                                         0.333802       0.008577
                                                         0.112012       0.154176

                          1       3    3px               7.341988      -1.188719
                                                         2.542637      -0.973969
                                                         0.888575      -0.501079
                                                         0.333802      -0.144894
                                                         0.112012      -0.013986
                          1       3    3py               7.341988      -1.188719
                                                         2.542637      -0.973969
                                                         0.888575      -0.501079
                                                         0.333802      -0.144894
                                                         0.112012      -0.013986
                          1       3    3pz               7.341988      -1.188719
                                                         2.542637      -0.973969
                                                         0.888575      -0.501079
                                                         0.333802      -0.144894
                                                         0.112012      -0.013986

                          1       4    4px               7.341988      -0.094798
                                                         2.542637       0.050069
                                                         0.888575      -0.114797
                                                         0.333802       0.144793
                                                         0.112012       0.066710
                          1       4    4py               7.341988      -0.094798
                                                         2.542637       0.050069
                                                         0.888575      -0.114797
                                                         0.333802       0.144793
                                                         0.112012       0.066710
                          1       4    4pz               7.341988      -0.094798
                                                         2.542637       0.050069
                                                         0.888575      -0.114797
                                                         0.333802       0.144793
                                                         0.112012       0.066710

                          1       5    4dx2              7.341988       1.354688
                                                         2.542637       0.690378
                                                         0.888575       0.855359
                                                         0.333802       0.091746
                                                         0.112012       0.001253
                          1       5    4dxy              7.341988       2.346389
                                                         2.542637       1.195770
                                                         0.888575       1.481524
                                                         0.333802       0.158910
                                                         0.112012       0.002169
                          1       5    4dxz              7.341988       2.346389
                                                         2.542637       1.195770
                                                         0.888575       1.481524
                                                         0.333802       0.158910
                                                         0.112012       0.002169
                          1       5    4dy2              7.341988       1.354688
                                                         2.542637       0.690378
                                                         0.888575       0.855359
                                                         0.333802       0.091746
                                                         0.112012       0.001253
                          1       5    4dyz              7.341988       2.346389
                                                         2.542637       1.195770
                                                         0.888575       1.481524
                                                         0.333802       0.158910
                                                         0.112012       0.002169
                          1       5    4dz2              7.341988       1.354688
                                                         2.542637       0.690378
                                                         0.888575       0.855359
                                                         0.333802       0.091746
                                                         0.112012       0.001253

     GTH Potential information for                                    GTH-PBE-q5

       Description:                       Goedecker-Teter-Hutter pseudopotential
                                           Goedecker et al., PRB 54, 1703 (1996)
                                          Hartwigsen et al., PRB 58, 3641 (1998)
                                                      Krack, TCA 114, 145 (2005)

       Gaussian exponent of the core charge distribution:               6.208322
       Electronic configuration (s p d ...):                               2   3

       Parameters of the local part of the GTH pseudopotential:

                          rloc        C1          C2          C3          C4
                        0.283791  -12.415226    1.868096

       Parameters of the non-local part of the GTH pseudopotential:

                   l      r(l)      h(i,j,l)

                   0    0.255405   13.630263
                   1    0.245495

  3. Atomic kind: H                                     Number of atoms:      20

     Orbital Basis Set                                     DZVP-MOLOPT-SR-GTH-q1

       Number of orbital shell sets:                                           1
       Number of orbital shells:                                               3
       Number of primitive Cartesian functions:                                5
       Number of Cartesian basis functions:                                    5
       Number of spherical basis functions:                                    5
       Norm type:                                                              2

       Normalised Cartesian orbitals:

                        Set   Shell   Orbital            Exponent    Coefficient

                          1       1    2s               10.068468      -0.133023
                                                         2.680223      -0.177618
                                                         0.791502      -0.258419
                                                         0.239116      -0.107525
                                                         0.082193      -0.014019

                          1       2    3s               10.068468       0.344673
                                                         2.680223       1.819821
                                                         0.791502      -0.999069
                                                         0.239116       0.017430
                                                         0.082193       0.082660

                          1       3    3px              10.068468       0.155326
                                                         2.680223       0.367157
                                                         0.791502       0.311480
                                                         0.239116       0.080105
                                                         0.082193       0.033440
                          1       3    3py              10.068468       0.155326
                                                         2.680223       0.367157
                                                         0.791502       0.311480
                                                         0.239116       0.080105
                                                         0.082193       0.033440
                          1       3    3pz              10.068468       0.155326
                                                         2.680223       0.367157
                                                         0.791502       0.311480
                                                         0.239116       0.080105
                                                         0.082193       0.033440

     GTH Potential information for                                    GTH-PBE-q1

       Description:                       Goedecker-Teter-Hutter pseudopotential
                                           Goedecker et al., PRB 54, 1703 (1996)
                                          Hartwigsen et al., PRB 58, 3641 (1998)
                                                      Krack, TCA 114, 145 (2005)

       Gaussian exponent of the core charge distribution:              12.500000
       Electronic configuration (s p d ...):                                   1

       Parameters of the local part of the GTH pseudopotential:

                          rloc        C1          C2          C3          C4
                        0.200000   -4.178900    0.724463

  4. Atomic kind: O                                     Number of atoms:       1

     Orbital Basis Set                                     DZVP-MOLOPT-SR-GTH-q6

       Number of orbital shell sets:                                           1
       Number of orbital shells:                                               5
       Number of primitive Cartesian functions:                                5
       Number of Cartesian basis functions:                                   14
       Number of spherical basis functions:                                   13
       Norm type:                                                              2

       Normalised Cartesian orbitals:

                        Set   Shell   Orbital            Exponent    Coefficient

                          1       1    2s               10.389228       0.396646
                                                         3.849621       0.208811
                                                         1.388401      -0.301641
                                                         0.496955      -0.274061
                                                         0.162492      -0.033677

                          1       2    3s               10.389228       0.303673
                                                         3.849621       0.240943
                                                         1.388401      -0.313066
                                                         0.496955      -0.043055
                                                         0.162492       0.213991

                          1       3    3px              10.389228      -1.530415
                                                         3.849621      -1.371928
                                                         1.388401      -0.761951
                                                         0.496955      -0.253695
                                                         0.162492      -0.035541
                          1       3    3py              10.389228      -1.530415
                                                         3.849621      -1.371928
                                                         1.388401      -0.761951
                                                         0.496955      -0.253695
                                                         0.162492      -0.035541
                          1       3    3pz              10.389228      -1.530415
                                                         3.849621      -1.371928
                                                         1.388401      -0.761951
                                                         0.496955      -0.253695
                                                         0.162492      -0.035541

                          1       4    4px              10.389228      -0.565392
                                                         3.849621      -0.038231
                                                         1.388401      -0.382373
                                                         0.496955       0.179070
                                                         0.162492       0.122714
                          1       4    4py              10.389228      -0.565392
                                                         3.849621      -0.038231
                                                         1.388401      -0.382373
                                                         0.496955       0.179070
                                                         0.162492       0.122714
                          1       4    4pz              10.389228      -0.565392
                                                         3.849621      -0.038231
                                                         1.388401      -0.382373
                                                         0.496955       0.179070
                                                         0.162492       0.122714

                          1       5    4dx2             10.389228       1.867377
                                                         3.849621       0.670994
                                                         1.388401       1.353441
                                                         0.496955       0.273538
                                                         0.162492       0.006620
                          1       5    4dxy             10.389228       3.234392
                                                         3.849621       1.162195
                                                         1.388401       2.344229
                                                         0.496955       0.473781
                                                         0.162492       0.011466
                          1       5    4dxz             10.389228       3.234392
                                                         3.849621       1.162195
                                                         1.388401       2.344229
                                                         0.496955       0.473781
                                                         0.162492       0.011466
                          1       5    4dy2             10.389228       1.867377
                                                         3.849621       0.670994
                                                         1.388401       1.353441
                                                         0.496955       0.273538
                                                         0.162492       0.006620
                          1       5    4dyz             10.389228       3.234392
                                                         3.849621       1.162195
                                                         1.388401       2.344229
                                                         0.496955       0.473781
                                                         0.162492       0.011466
                          1       5    4dz2             10.389228       1.867377
                                                         3.849621       0.670994
                                                         1.388401       1.353441
                                                         0.496955       0.273538
                                                         0.162492       0.006620

     GTH Potential information for                                    GTH-PBE-q6

       Description:                       Goedecker-Teter-Hutter pseudopotential
                                           Goedecker et al., PRB 54, 1703 (1996)
                                          Hartwigsen et al., PRB 58, 3641 (1998)
                                                      Krack, TCA 114, 145 (2005)

       Gaussian exponent of the core charge distribution:               8.360253
       Electronic configuration (s p d ...):                               2   4

       Parameters of the local part of the GTH pseudopotential:

                          rloc        C1          C2          C3          C4
                        0.244554  -16.667215    2.487311

       Parameters of the non-local part of the GTH pseudopotential:

                   l      r(l)      h(i,j,l)

                   0    0.220956   18.337458
                   1    0.211332

  5. Atomic kind: C                                     Number of atoms:       1

     Orbital Basis Set                                     DZVP-MOLOPT-SR-GTH-q4

       Number of orbital shell sets:                                           1
       Number of orbital shells:                                               5
       Number of primitive Cartesian functions:                                5
       Number of Cartesian basis functions:                                   14
       Number of spherical basis functions:                                   13
       Norm type:                                                              2

       Normalised Cartesian orbitals:

                        Set   Shell   Orbital            Exponent    Coefficient

                          1       1    2s                5.605331       0.322515
                                                         2.113016       0.213043
                                                         0.769911      -0.209686
                                                         0.348157      -0.219794
                                                         0.128212      -0.022789

                          1       2    3s                5.605331       0.552234
                                                         2.113016       0.082072
                                                         0.769911       0.007843
                                                         0.348157       0.136893
                                                         0.128212       0.074283

                          1       3    3px               5.605331      -0.703879
                                                         2.113016      -0.642521
                                                         0.769911      -0.374851
                                                         0.348157      -0.139743
                                                         0.128212      -0.027849
                          1       3    3py               5.605331      -0.703879
                                                         2.113016      -0.642521
                                                         0.769911      -0.374851
                                                         0.348157      -0.139743
                                                         0.128212      -0.027849
                          1       3    3pz               5.605331      -0.703879
                                                         2.113016      -0.642521
                                                         0.769911      -0.374851
                                                         0.348157      -0.139743
                                                         0.128212      -0.027849

                          1       4    4px               5.605331      -0.480376
                                                         2.113016      -0.552894
                                                         0.769911      -0.316145
                                                         0.348157       0.210505
                                                         0.128212       0.076095
                          1       4    4py               5.605331      -0.480376
                                                         2.113016      -0.552894
                                                         0.769911      -0.316145
                                                         0.348157       0.210505
                                                         0.128212       0.076095
                          1       4    4pz               5.605331      -0.480376
                                                         2.113016      -0.552894
                                                         0.769911      -0.316145
                                                         0.348157       0.210505
                                                         0.128212       0.076095

                          1       5    4dx2              5.605331       0.640026
                                                         2.113016       0.274300
                                                         0.769911       0.446711
                                                         0.348157       0.028674
                                                         0.128212       0.029790
                          1       5    4dxy              5.605331       1.108557
                                                         2.113016       0.475102
                                                         0.769911       0.773726
                                                         0.348157       0.049666
                                                         0.128212       0.051599
                          1       5    4dxz              5.605331       1.108557
                                                         2.113016       0.475102
                                                         0.769911       0.773726
                                                         0.348157       0.049666
                                                         0.128212       0.051599
                          1       5    4dy2              5.605331       0.640026
                                                         2.113016       0.274300
                                                         0.769911       0.446711
                                                         0.348157       0.028674
                                                         0.128212       0.029790
                          1       5    4dyz              5.605331       1.108557
                                                         2.113016       0.475102
                                                         0.769911       0.773726
                                                         0.348157       0.049666
                                                         0.128212       0.051599
                          1       5    4dz2              5.605331       0.640026
                                                         2.113016       0.274300
                                                         0.769911       0.446711
                                                         0.348157       0.028674
                                                         0.128212       0.029790

     GTH Potential information for                                    GTH-PBE-q4

       Description:                       Goedecker-Teter-Hutter pseudopotential
                                           Goedecker et al., PRB 54, 1703 (1996)
                                          Hartwigsen et al., PRB 58, 3641 (1998)
                                                      Krack, TCA 114, 145 (2005)

       Gaussian exponent of the core charge distribution:               4.364419
       Electronic configuration (s p d ...):                               2   2

       Parameters of the local part of the GTH pseudopotential:

                          rloc        C1          C2          C3          C4
                        0.338471   -8.803674    1.339211

       Parameters of the non-local part of the GTH pseudopotential:

                   l      r(l)      h(i,j,l)

                   0    0.302576    9.622487
                   1    0.291507


 MOLECULE KIND INFORMATION


 All atoms are their own molecule, skipping detailed information


 TOTAL NUMBERS AND MAXIMUM NUMBERS

  Total number of            - Atomic kinds:                                   5
                             - Atoms:                                        214
                             - Shell sets:                                   214
                             - Shells:                                      1222
                             - Primitive Cartesian functions:               1166
                             - Cartesian basis functions:                   4352
                             - Spherical basis functions:                   3774

  Maximum angular momentum of- Orbital basis functions:                        3
                             - Local part of the GTH pseudopotential:          2
                             - Non-local part of the GTH pseudopotential:      4


 MODULE QUICKSTEP:  ATOMIC COORDINATES IN angstrom

  Atom  Kind  Element       X           Y           Z          Z(eff)       Mass

       1     1 Ga  31    0.001694   -0.000981   -0.173528     13.00      69.7230
       2     2 N    7   -0.004308    1.858041    0.612286      5.00      14.0067
       3     1 Ga  31    0.000463    1.860614    2.546815     13.00      69.7230
       4     2 N    7    0.005730    0.002010    3.235517      5.00      14.0067
       5     1 Ga  31    0.006576    0.000581    5.196221     13.00      69.7230
       6     2 N    7    0.001781    1.859019    5.857794      5.00      14.0067
       7     1 Ga  31    0.004463    1.860311    7.826821     13.00      69.7230
       8     2 N    7    0.013745    0.002604    8.479479      5.00      14.0067
       9     1 Ga  31    0.009937    0.006690   10.467622     13.00      69.7230
      10     2 N    7   -0.006619    1.865337   11.059322      5.00      14.0067
      11     1 Ga  31   -0.033238    1.852343   13.128622     13.00      69.7230
      12     2 N    7   -0.012929   -0.001686   13.471504      5.00      14.0067
      13     1 Ga  31   -1.610462    2.790745   -0.173578     13.00      69.7230
      14     2 N    7   -1.616246    4.649841    0.612285      5.00      14.0067
      15     1 Ga  31   -1.611608    4.652555    2.547038     13.00      69.7230
      16     2 N    7   -1.605738    2.793677    3.235178      5.00      14.0067
      17     1 Ga  31   -1.604509    2.791944    5.195786     13.00      69.7230
      18     2 N    7   -1.610917    4.651171    5.855147      5.00      14.0067
      19     1 Ga  31   -1.608184    4.652296    7.823416     13.00      69.7230
      20     2 N    7   -1.601158    2.794542    8.474451      5.00      14.0067
      21     1 Ga  31   -1.609489    2.799854   10.459519     13.00      69.7230
      22     2 N    7   -1.612224    4.654424   11.058799      5.00      14.0067
      23     1 Ga  31   -1.628255    4.635763   13.135669     13.00      69.7230
      24     2 N    7   -1.623326    2.792604   13.539123      5.00      14.0067
      25     1 Ga  31   -3.222237    5.582623   -0.173958     13.00      69.7230
      26     2 N    7   -3.227917    7.441618    0.612223      5.00      14.0067
      27     1 Ga  31   -3.223260    7.444325    2.546891     13.00      69.7230
      28     2 N    7   -3.217981    5.585716    3.235235      5.00      14.0067
      29     1 Ga  31   -3.217287    5.584691    5.195912     13.00      69.7230
      30     2 N    7   -3.221933    7.442985    5.858274      5.00      14.0067
      31     1 Ga  31   -3.219225    7.444838    7.827544     13.00      69.7230
      32     2 N    7   -3.211952    5.585353    8.475972      5.00      14.0067
      33     1 Ga  31   -3.217876    5.588635   10.463396     13.00      69.7230
      34     2 N    7   -3.230930    7.449140   11.053554      5.00      14.0067
      35     1 Ga  31   -3.256187    7.438917   13.117864     13.00      69.7230
      36     2 N    7   -3.235333    5.583726   13.464000      5.00      14.0067
      37     1 Ga  31   -4.833923    8.374517   -0.173450     13.00      69.7230
      38     2 N    7   -4.839721   10.233396    0.612942      5.00      14.0067
      39     1 Ga  31   -4.835046   10.236027    2.547697     13.00      69.7230
      40     2 N    7   -4.829509    8.377162    3.235546      5.00      14.0067
      41     1 Ga  31   -4.828280    8.375762    5.196238     13.00      69.7230
      42     2 N    7   -4.834399   10.234776    5.856122      5.00      14.0067
      43     1 Ga  31   -4.831244   10.236386    7.824089     13.00      69.7230
      44     2 N    7   -4.825426    8.378938    8.475530      5.00      14.0067
      45     1 Ga  31   -4.834274    8.385670   10.460373     13.00      69.7230
      46     2 N    7   -4.834288   10.237171   11.068873      5.00      14.0067
      47     1 Ga  31   -4.852825   10.215587   13.151496     13.00      69.7230
      48     2 N    7   -4.845719    8.372997   13.552211      5.00      14.0067
      49     1 Ga  31    3.213024   -0.000973   -0.173037     13.00      69.7230
      50     2 N    7    3.207162    1.857891    0.613195      5.00      14.0067
      51     1 Ga  31    3.211885    1.860402    2.547991     13.00      69.7230
      52     2 N    7    3.217540    0.001581    3.236283      5.00      14.0067
      53     1 Ga  31    3.219059   -0.000106    5.197100     13.00      69.7230
      54     2 N    7    3.212578    1.859269    5.855904      5.00      14.0067
      55     1 Ga  31    3.215391    1.860070    7.824131     13.00      69.7230
      56     2 N    7    3.222209    0.002794    8.475367      5.00      14.0067
      57     1 Ga  31    3.214600    0.007594   10.460254     13.00      69.7230
      58     2 N    7    3.212067    1.862441   11.057121      5.00      14.0067
      59     1 Ga  31    3.194526    1.843113   13.131748     13.00      69.7230
      60     2 N    7    3.200716    0.000064   13.535152      5.00      14.0067
      61     1 Ga  31    1.601307    2.790584   -0.173515     13.00      69.7230
      62     2 N    7    1.595359    4.649776    0.611995      5.00      14.0067
      63     1 Ga  31    1.599989    4.652417    2.546618     13.00      69.7230
      64     2 N    7    1.605333    2.793753    3.235205      5.00      14.0067
      65     1 Ga  31    1.606269    2.792352    5.195772     13.00      69.7230
      66     2 N    7    1.601193    4.650822    5.857202      5.00      14.0067
      67     1 Ga  31    1.603254    4.651820    7.826184     13.00      69.7230
      68     2 N    7    1.612026    2.793538    8.477333      5.00      14.0067
      69     1 Ga  31    1.606088    2.797595   10.465018     13.00      69.7230
      70     2 N    7    1.592654    4.657202   11.053101      5.00      14.0067
      71     1 Ga  31    1.568543    4.643318   13.118457     13.00      69.7230
      72     2 N    7    1.588283    2.789829   13.466932      5.00      14.0067
      73     1 Ga  31   -0.010774    5.582604   -0.173713     13.00      69.7230
      74     2 N    7   -0.016543    7.441636    0.612353      5.00      14.0067
      75     1 Ga  31   -0.011868    7.444224    2.547131     13.00      69.7230
      76     2 N    7   -0.006274    5.585385    3.235131      5.00      14.0067
      77     1 Ga  31   -0.005058    5.583895    5.195881     13.00      69.7230
      78     2 N    7   -0.011024    7.442913    5.855736      5.00      14.0067
      79     1 Ga  31   -0.008345    7.444494    7.823999     13.00      69.7230
      80     2 N    7   -0.002207    5.586752    8.473829      5.00      14.0067
      81     1 Ga  31   -0.011187    5.593272   10.458250     13.00      69.7230
      82     2 N    7   -0.011859    7.444938   11.067898      5.00      14.0067
      83     1 Ga  31   -0.028528    7.423924   13.150892     13.00      69.7230
      84     2 N    7   -0.022178    5.578783   13.543325      5.00      14.0067
      85     1 Ga  31   -1.622579    8.374510   -0.173599     13.00      69.7230
      86     2 N    7   -1.628384   10.233324    0.612857      5.00      14.0067
      87     1 Ga  31   -1.623657   10.235880    2.547511     13.00      69.7230
      88     2 N    7   -1.618260    8.377223    3.235486      5.00      14.0067
      89     1 Ga  31   -1.617268    8.376113    5.196237     13.00      69.7230
      90     2 N    7   -1.621948   10.234134    5.859084      5.00      14.0067
      91     1 Ga  31   -1.618689   10.235613    7.828584     13.00      69.7230
      92     2 N    7   -1.611353    8.376771    8.479547      5.00      14.0067
      93     1 Ga  31   -1.615421    8.380344   10.467890     13.00      69.7230
      94     2 N    7   -1.629778   10.240462   11.057136      5.00      14.0067
      95     1 Ga  31   -1.654949   10.229426   13.123580     13.00      69.7230
      96     2 N    7   -1.635626    8.374799   13.468114      5.00      14.0067
      97     1 Ga  31    6.424374   -0.001086   -0.172940     13.00      69.7230
      98     2 N    7    6.418574    1.857970    0.612700      5.00      14.0067
      99     1 Ga  31    6.423166    1.860488    2.547305     13.00      69.7230
     100     2 N    7    6.428597    0.001907    3.235866      5.00      14.0067
     101     1 Ga  31    6.429737    0.000482    5.196651     13.00      69.7230
     102     2 N    7    6.425159    1.858876    5.858361      5.00      14.0067
     103     1 Ga  31    6.428460    1.859880    7.827598     13.00      69.7230
     104     2 N    7    6.436195    0.001676    8.479604      5.00      14.0067
     105     1 Ga  31    6.432206    0.003677   10.467358     13.00      69.7230
     106     2 N    7    6.417583    1.864940   11.054560      5.00      14.0067
     107     1 Ga  31    6.392289    1.851137   13.118947     13.00      69.7230
     108     2 N    7    6.412004   -0.000891   13.473174      5.00      14.0067
     109     1 Ga  31    4.812463    2.790642   -0.173126     13.00      69.7230
     110     2 N    7    4.806675    4.649802    0.612399      5.00      14.0067
     111     1 Ga  31    4.811178    4.652338    2.547063     13.00      69.7230
     112     2 N    7    4.817099    2.793598    3.235941      5.00      14.0067
     113     1 Ga  31    4.818583    2.791753    5.196795     13.00      69.7230
     114     2 N    7    4.812220    4.651489    5.854637      5.00      14.0067
     115     1 Ga  31    4.815285    4.652726    7.822561     13.00      69.7230
     116     2 N    7    4.822091    2.795033    8.472366      5.00      14.0067
     117     1 Ga  31    4.813945    2.801446   10.456390     13.00      69.7230
     118     2 N    7    4.811310    4.654360   11.060807      5.00      14.0067
     119     1 Ga  31    4.795506    4.635312   13.138925     13.00      69.7230
     120     2 N    7    4.800648    2.789723   13.530618      5.00      14.0067
     121     1 Ga  31    3.200760    5.582567   -0.173981     13.00      69.7230
     122     2 N    7    3.194939    7.441647    0.612024      5.00      14.0067
     123     1 Ga  31    3.199633    7.444331    2.546691     13.00      69.7230
     124     2 N    7    3.204836    5.585690    3.234934      5.00      14.0067
     125     1 Ga  31    3.205524    5.584544    5.195581     13.00      69.7230
     126     2 N    7    3.201049    7.442835    5.858051      5.00      14.0067
     127     1 Ga  31    3.203333    7.444228    7.827369     13.00      69.7230
     128     2 N    7    3.211471    5.584719    8.475674      5.00      14.0067
     129     1 Ga  31    3.206852    5.588171   10.462724     13.00      69.7230
     130     2 N    7    3.193370    7.447845   11.052854      5.00      14.0067
     131     1 Ga  31    3.166869    7.436529   13.117056     13.00      69.7230
     132     2 N    7    3.187604    5.582760   13.465448      5.00      14.0067
     133     1 Ga  31    1.588792    8.374578   -0.173458     13.00      69.7230
     134     2 N    7    1.583088   10.233350    0.613148      5.00      14.0067
     135     1 Ga  31    1.587790   10.235926    2.547996     13.00      69.7230
     136     2 N    7    1.593377    8.376947    3.235489      5.00      14.0067
     137     1 Ga  31    1.594670    8.375552    5.196202     13.00      69.7230
     138     2 N    7    1.588706   10.234434    5.856127      5.00      14.0067
     139     1 Ga  31    1.591293   10.235557    7.824235     13.00      69.7230
     140     2 N    7    1.597630    8.378304    8.476402      5.00      14.0067
     141     1 Ga  31    1.588984    8.383708   10.461427     13.00      69.7230
     142     2 N    7    1.589557   10.236210   11.068211      5.00      14.0067
     143     1 Ga  31    1.571440   10.216595   13.150496     13.00      69.7230
     144     2 N    7    1.577290    8.371942   13.543719      5.00      14.0067
     145     1 Ga  31    9.635581   -0.000885   -0.173106     13.00      69.7230
     146     2 N    7    9.629989    1.857999    0.612850      5.00      14.0067
     147     1 Ga  31    9.634721    1.860399    2.547511     13.00      69.7230
     148     2 N    7    9.640531    0.001672    3.236200      5.00      14.0067
     149     1 Ga  31    9.641856   -0.000089    5.197195     13.00      69.7230
     150     2 N    7    9.635662    1.859449    5.855525      5.00      14.0067
     151     1 Ga  31    9.638597    1.860572    7.823705     13.00      69.7230
     152     2 N    7    9.644890    0.002896    8.474425      5.00      14.0067
     153     1 Ga  31    9.635902    0.007268   10.458609     13.00      69.7230
     154     2 N    7    9.635620    1.860878   11.062642      5.00      14.0067
     155     1 Ga  31    9.618618    1.842806   13.141423     13.00      69.7230
     156     2 N    7    9.624646   -0.000300   13.543407      5.00      14.0067
     157     1 Ga  31    8.023937    2.790736   -0.173322     13.00      69.7230
     158     2 N    7    8.018171    4.649883    0.612127      5.00      14.0067
     159     1 Ga  31    8.022896    4.652561    2.546612     13.00      69.7230
     160     2 N    7    8.028237    2.793810    3.235023      5.00      14.0067
     161     1 Ga  31    8.029074    2.792268    5.195590     13.00      69.7230
     162     2 N    7    8.023849    4.651006    5.856853      5.00      14.0067
     163     1 Ga  31    8.026478    4.652029    7.825872     13.00      69.7230
     164     2 N    7    8.035881    2.794200    8.477949      5.00      14.0067
     165     1 Ga  31    8.031926    2.798437   10.465797     13.00      69.7230
     166     2 N    7    8.015573    4.657644   11.055792      5.00      14.0067
     167     1 Ga  31    7.989172    4.645720   13.122932     13.00      69.7230
     168     2 N    7    8.010660    2.791022   13.466354      5.00      14.0067
     169     1 Ga  31    6.412087    5.582571   -0.173737     13.00      69.7230
     170     2 N    7    6.406304    7.441681    0.612259      5.00      14.0067
     171     1 Ga  31    6.410879    7.444531    2.546992     13.00      69.7230
     172     2 N    7    6.416504    5.585552    3.234572      5.00      14.0067
     173     1 Ga  31    6.417659    5.584002    5.194954     13.00      69.7230
     174     2 N    7    6.411809    7.442983    5.855190      5.00      14.0067
     175     1 Ga  31    6.414797    7.444216    7.823225     13.00      69.7230
     176     2 N    7    6.420903    5.587017    8.474413      5.00      14.0067
     177     1 Ga  31    6.414081    5.594286   10.459380     13.00      69.7230
     178     2 N    7    6.412834    7.444620   11.067713      5.00      14.0067
     179     1 Ga  31    6.395160    7.424934   13.150493     13.00      69.7230
     180     2 N    7    6.399014    5.580530   13.547883      5.00      14.0067
     181     1 Ga  31    4.800309    8.374380   -0.174003     13.00      69.7230
     182     2 N    7    4.794517   10.233395    0.612264      5.00      14.0067
     183     1 Ga  31    4.799204   10.236011    2.546971     13.00      69.7230
     184     2 N    7    4.804480    8.377480    3.235463      5.00      14.0067
     185     1 Ga  31    4.805362    8.376275    5.196241     13.00      69.7230
     186     2 N    7    4.801143   10.234322    5.859440      5.00      14.0067
     187     1 Ga  31    4.804030   10.235567    7.828979     13.00      69.7230
     188     2 N    7    4.811791    8.376354    8.478408      5.00      14.0067
     189     1 Ga  31    4.807936    8.379021   10.466238     13.00      69.7230
     190     2 N    7    4.793283   10.240261   11.051683      5.00      14.0067
     191     1 Ga  31    4.766532   10.230219   13.114517     13.00      69.7230
     192     2 N    7    4.786834    8.375884   13.462554      5.00      14.0067
     193     3 H    1    4.800600    8.377584   -1.725873      1.00       1.0079
     194     3 H    1    1.588701    8.378693   -1.725355      1.00       1.0079
     195     3 H    1   -1.622711    8.378360   -1.725475      1.00       1.0079
     196     3 H    1   -4.834311    8.378649   -1.725316      1.00       1.0079
     197     3 H    1    6.412067    5.585878   -1.725606      1.00       1.0079
     198     3 H    1    3.201188    5.585978   -1.725835      1.00       1.0079
     199     3 H    1   -0.010901    5.586455   -1.725570      1.00       1.0079
     200     3 H    1   -3.222799    5.586187   -1.725828      1.00       1.0079
     201     3 H    1    8.024345    2.794636   -1.725145      1.00       1.0079
     202     3 H    1    4.812047    2.794537   -1.724935      1.00       1.0079
     203     3 H    1    1.601350    2.793802   -1.725366      1.00       1.0079
     204     3 H    1   -1.610801    2.793810   -1.725446      1.00       1.0079
     205     3 H    1    0.002530    0.002566   -1.725371      1.00       1.0079
     206     3 H    1    3.212799    0.002623   -1.724898      1.00       1.0079
     207     3 H    1    6.424315    0.002141   -1.724777      1.00       1.0079
     208     3 H    1    9.634777    0.003352   -1.724948      1.00       1.0079
     209     4 O    8    1.244866    4.749104   15.853100      6.00      15.9994
     210     3 H    1    0.494310    5.344091   15.622700      1.00       1.0079
     211     5 C    6    0.695203    3.548601   16.460300      4.00      12.0107
     212     3 H    1   -0.190431    3.192796   15.911400      1.00       1.0079
     213     3 H    1    1.475710    2.782056   16.410600      1.00       1.0079
     214     3 H    1    0.433259    3.752607   17.506900      1.00       1.0079




 SCF PARAMETERS         Density guess:                                    ATOMIC
                        --------------------------------------------------------
                        max_scf:                                             100
                        max_scf_history:                                       0
                        max_diis:                                              4
                        --------------------------------------------------------
                        eps_scf:                                        5.00E-06
                        eps_scf_history:                                0.00E+00
                        eps_diis:                                       1.00E-01
                        eps_eigval:                                     1.00E-05
                        --------------------------------------------------------
                        level_shift [a.u.]:                                 0.00
                        --------------------------------------------------------
                        Outer loop SCF in use 
                        No variables optimised in outer loop
                        eps_scf                                         5.00E-06
                        max_scf                                                4
                        No outer loop optimization
                        step_size                                       5.00E-01

 PW_GRID| Information for grid number                                          1
 PW_GRID| Grid distributed over                                    80 processors
 PW_GRID| Real space group dimensions                                    80    1
 PW_GRID| the grid is blocked:                                                NO
 PW_GRID| Cutoff [a.u.]                                                    600.0
 PW_GRID| spherical cutoff:                                                   NO
 PW_GRID|   Bounds   1           -144     143                Points:         288
 PW_GRID|   Bounds   2           -144     143                Points:         288
 PW_GRID|   Bounds   3           -312     312                Points:         625
 PW_GRID| Volume element (a.u.^3)  0.5510E-03     Volume (a.u.^3)     28564.8611
 PW_GRID| Grid span                                                    FULLSPACE
 PW_GRID|   Distribution                         Average         Max         Min
 PW_GRID|   G-Vectors                           648000.0      648000      648000
 PW_GRID|   G-Rays                                2250.0        2250        2250
 PW_GRID|   Real Space Points                   648000.0      720000      540000

 PW_GRID| Information for grid number                                          2
 PW_GRID| Grid distributed over                                    80 processors
 PW_GRID| Real space group dimensions                                    80    1
 PW_GRID| the grid is blocked:                                                NO
 PW_GRID| Cutoff [a.u.]                                                    200.0
 PW_GRID| spherical cutoff:                                                   NO
 PW_GRID|   Bounds   1            -80      79                Points:         160
 PW_GRID|   Bounds   2            -80      79                Points:         160
 PW_GRID|   Bounds   3           -180     179                Points:         360
 PW_GRID| Volume element (a.u.^3)  0.3099E-02     Volume (a.u.^3)     28564.8611
 PW_GRID| Grid span                                                    FULLSPACE
 PW_GRID|   Distribution                         Average         Max         Min
 PW_GRID|   G-Vectors                           115200.0      115360      115040
 PW_GRID|   G-Rays                                 720.0         721         719
 PW_GRID|   Real Space Points                   115200.0      115200      115200

 PW_GRID| Information for grid number                                          3
 PW_GRID| Grid distributed over                                    80 processors
 PW_GRID| Real space group dimensions                                    80    1
 PW_GRID| the grid is blocked:                                                NO
 PW_GRID| Cutoff [a.u.]                                                     66.7
 PW_GRID| spherical cutoff:                                                   NO
 PW_GRID|   Bounds   1            -48      47                Points:          96
 PW_GRID|   Bounds   2            -48      47                Points:          96
 PW_GRID|   Bounds   3           -108     107                Points:         216
 PW_GRID| Volume element (a.u.^3)  0.1435E-01     Volume (a.u.^3)     28564.8611
 PW_GRID| Grid span                                                    FULLSPACE
 PW_GRID|   Distribution                         Average         Max         Min
 PW_GRID|   G-Vectors                            24883.2       25728       23616
 PW_GRID|   G-Rays                                 259.2         268         246
[...]
      2       N      2       5.000          4.129                         0.871
      3       Ga     1      13.000         13.895                        -0.895
      4       N      2       5.000          4.120                         0.880
      5       Ga     1      13.000         13.887                        -0.887
      6       N      2       5.000          4.120                         0.880
      7       Ga     1      13.000         13.881                        -0.881
      8       N      2       5.000          4.121                         0.879
      9       Ga     1      13.000         13.903                        -0.903
     10       N      2       5.000          4.109                         0.891
     11       Ga     1      13.000         14.091                        -1.091
     12       N      2       5.000          4.182                         0.818
     13       Ga     1      13.000         14.235                        -1.235
     14       N      2       5.000          4.130                         0.870
     15       Ga     1      13.000         13.894                        -0.894
     16       N      2       5.000          4.120                         0.880
     17       Ga     1      13.000         13.885                        -0.885
     18       N      2       5.000          4.118                         0.882
     19       Ga     1      13.000         13.887                        -0.887
     20       N      2       5.000          4.114                         0.886
     21       Ga     1      13.000         13.906                        -0.906
     22       N      2       5.000          4.112                         0.888
     23       Ga     1      13.000         14.147                        -1.147
     24       N      2       5.000          4.478                         0.522
     25       Ga     1      13.000         14.235                        -1.235
     26       N      2       5.000          4.130                         0.870
     27       Ga     1      13.000         13.895                        -0.895
     28       N      2       5.000          4.120                         0.880
     29       Ga     1      13.000         13.887                        -0.887
     30       N      2       5.000          4.120                         0.880
     31       Ga     1      13.000         13.888                        -0.888
     32       N      2       5.000          4.121                         0.879
     33       Ga     1      13.000         13.896                        -0.896
     34       N      2       5.000          4.126                         0.874
     35       Ga     1      13.000         14.023                        -1.023
     36       N      2       5.000          4.223                         0.777
     37       Ga     1      13.000         14.235                        -1.235
     38       N      2       5.000          4.130                         0.870
     39       Ga     1      13.000         13.895                        -0.895
     40       N      2       5.000          4.120                         0.880
     41       Ga     1      13.000         13.886                        -0.886
     42       N      2       5.000          4.120                         0.880
     43       Ga     1      13.000         13.886                        -0.886
     44       N      2       5.000          4.119                         0.881
     45       Ga     1      13.000         13.917                        -0.917
     46       N      2       5.000          4.115                         0.885
     47       Ga     1      13.000         14.015                        -1.015
     48       N      2       5.000          4.169                         0.831
     49       Ga     1      13.000         14.235                        -1.235
     50       N      2       5.000          4.130                         0.870
     51       Ga     1      13.000         13.894                        -0.894
     52       N      2       5.000          4.120                         0.880
     53       Ga     1      13.000         13.886                        -0.886
     54       N      2       5.000          4.119                         0.881
     55       Ga     1      13.000         13.891                        -0.891
     56       N      2       5.000          4.119                         0.881
     57       Ga     1      13.000         13.910                        -0.910
     58       N      2       5.000          4.116                         0.884
     59       Ga     1      13.000         14.009                        -1.009
     60       N      2       5.000          4.179                         0.821
     61       Ga     1      13.000         14.234                        -1.234
     62       N      2       5.000          4.130                         0.870
     63       Ga     1      13.000         13.894                        -0.894
     64       N      2       5.000          4.120                         0.880
     65       Ga     1      13.000         13.886                        -0.886
     66       N      2       5.000          4.119                         0.881
     67       Ga     1      13.000         13.885                        -0.885
     68       N      2       5.000          4.119                         0.881
     69       Ga     1      13.000         13.901                        -0.901
     70       N      2       5.000          4.113                         0.887
     71       Ga     1      13.000         14.064                        -1.064
     72       N      2       5.000          4.186                         0.814
     73       Ga     1      13.000         14.235                        -1.235
     74       N      2       5.000          4.130                         0.870
     75       Ga     1      13.000         13.895                        -0.895
     76       N      2       5.000          4.120                         0.880
     77       Ga     1      13.000         13.884                        -0.884
     78       N      2       5.000          4.120                         0.880
     79       Ga     1      13.000         13.883                        -0.883
     80       N      2       5.000          4.116                         0.884
     81       Ga     1      13.000         13.905                        -0.905
     82       N      2       5.000          4.113                         0.887
     83       Ga     1      13.000         14.065                        -1.065
     84       N      2       5.000          4.467                         0.533
     85       Ga     1      13.000         14.235                        -1.235
     86       N      2       5.000          4.130                         0.870
     87       Ga     1      13.000         13.895                        -0.895
     88       N      2       5.000          4.120                         0.880
     89       Ga     1      13.000         13.886                        -0.886
     90       N      2       5.000          4.120                         0.880
     91       Ga     1      13.000         13.888                        -0.888
     92       N      2       5.000          4.124                         0.876
     93       Ga     1      13.000         13.901                        -0.901
     94       N      2       5.000          4.110                         0.890
     95       Ga     1      13.000         14.018                        -1.018
     96       N      2       5.000          4.175                         0.825
     97       Ga     1      13.000         14.235                        -1.235
     98       N      2       5.000          4.130                         0.870
     99       Ga     1      13.000         13.895                        -0.895
    100       N      2       5.000          4.121                         0.879
    101       Ga     1      13.000         13.884                        -0.884
    102       N      2       5.000          4.120                         0.880
    103       Ga     1      13.000         13.887                        -0.887
    104       N      2       5.000          4.118                         0.882
    105       Ga     1      13.000         13.913                        -0.913
    106       N      2       5.000          4.112                         0.888
    107       Ga     1      13.000         14.019                        -1.019
    108       N      2       5.000          4.177                         0.823
    109       Ga     1      13.000         14.234                        -1.234
    110       N      2       5.000          4.130                         0.870
    111       Ga     1      13.000         13.896                        -0.896
    112       N      2       5.000          4.120                         0.880
    113       Ga     1      13.000         13.886                        -0.886
    114       N      2       5.000          4.120                         0.880
    115       Ga     1      13.000         13.883                        -0.883
    116       N      2       5.000          4.120                         0.880
    117       Ga     1      13.000         13.913                        -0.913
    118       N      2       5.000          4.119                         0.881
    119       Ga     1      13.000         14.012                        -1.012
    120       N      2       5.000          4.176                         0.824
    121       Ga     1      13.000         14.234                        -1.234
    122       N      2       5.000          4.130                         0.870
    123       Ga     1      13.000         13.895                        -0.895
    124       N      2       5.000          4.120                         0.880
    125       Ga     1      13.000         13.886                        -0.886
    126       N      2       5.000          4.121                         0.879
    127       Ga     1      13.000         13.883                        -0.883
    128       N      2       5.000          4.119                         0.881
    129       Ga     1      13.000         13.909                        -0.909
    130       N      2       5.000          4.116                         0.884
    131       Ga     1      13.000         14.024                        -1.024
    132       N      2       5.000          4.183                         0.817
    133       Ga     1      13.000         14.235                        -1.235
    134       N      2       5.000          4.130                         0.870
    135       Ga     1      13.000         13.895                        -0.895
    136       N      2       5.000          4.120                         0.880
    137       Ga     1      13.000         13.885                        -0.885
    138       N      2       5.000          4.119                         0.881
    139       Ga     1      13.000         13.887                        -0.887
    140       N      2       5.000          4.121                         0.879
    141       Ga     1      13.000         13.902                        -0.902
    142       N      2       5.000          4.115                         0.885
    143       Ga     1      13.000         14.016                        -1.016
    144       N      2       5.000          4.173                         0.827
    145       Ga     1      13.000         14.235                        -1.235
    146       N      2       5.000          4.130                         0.870
    147       Ga     1      13.000         13.895                        -0.895
    148       N      2       5.000          4.120                         0.880
    149       Ga     1      13.000         13.886                        -0.886
    150       N      2       5.000          4.119                         0.881
    151       Ga     1      13.000         13.884                        -0.884
    152       N      2       5.000          4.120                         0.880
    153       Ga     1      13.000         13.903                        -0.903
    154       N      2       5.000          4.112                         0.888
    155       Ga     1      13.000         14.090                        -1.090
    156       N      2       5.000          4.192                         0.808
    157       Ga     1      13.000         14.235                        -1.235
    158       N      2       5.000          4.130                         0.870
    159       Ga     1      13.000         13.896                        -0.896
    160       N      2       5.000          4.120                         0.880
    161       Ga     1      13.000         13.886                        -0.886
    162       N      2       5.000          4.120                         0.880
    163       Ga     1      13.000         13.886                        -0.886
    164       N      2       5.000          4.121                         0.879
    165       Ga     1      13.000         13.905                        -0.905
    166       N      2       5.000          4.118                         0.882
    167       Ga     1      13.000         14.051                        -1.051
    168       N      2       5.000          4.181                         0.819
    169       Ga     1      13.000         14.235                        -1.235
    170       N      2       5.000          4.130                         0.870
    171       Ga     1      13.000         13.896                        -0.896
    172       N      2       5.000          4.121                         0.879
    173       Ga     1      13.000         13.886                        -0.886
    174       N      2       5.000          4.121                         0.879
    175       Ga     1      13.000         13.883                        -0.883
    176       N      2       5.000          4.121                         0.879
    177       Ga     1      13.000         13.912                        -0.912
    178       N      2       5.000          4.112                         0.888
    179       Ga     1      13.000         14.016                        -1.016
    180       N      2       5.000          4.173                         0.827
    181       Ga     1      13.000         14.235                        -1.235
    182       N      2       5.000          4.130                         0.870
    183       Ga     1      13.000         13.895                        -0.895
    184       N      2       5.000          4.120                         0.880
    185       Ga     1      13.000         13.886                        -0.886
    186       N      2       5.000          4.119                         0.881
    187       Ga     1      13.000         13.888                        -0.888
    188       N      2       5.000          4.120                         0.880
    189       Ga     1      13.000         13.914                        -0.914
    190       N      2       5.000          4.126                         0.874
    191       Ga     1      13.000         14.018                        -1.018
    192       N      2       5.000          4.175                         0.825
    193       H      3       1.000          0.401                         0.599
    194       H      3       1.000          0.401                         0.599
    195       H      3       1.000          0.401                         0.599
    196       H      3       1.000          0.401                         0.599
    197       H      3       1.000          0.401                         0.599
    198       H      3       1.000          0.401                         0.599
    199       H      3       1.000          0.401                         0.599
    200       H      3       1.000          0.401                         0.599
    201       H      3       1.000          0.401                         0.599
    202       H      3       1.000          0.401                         0.599
    203       H      3       1.000          0.401                         0.599
    204       H      3       1.000          0.401                         0.599
    205       H      3       1.000          0.401                         0.599
    206       H      3       1.000          0.401                         0.599
    207       H      3       1.000          0.401                         0.599
    208       H      3       1.000          0.401                         0.599
    209       O      4       6.000          6.391                        -0.391
    210       H      3       1.000          0.457                         0.543
    211       C      5       4.000          4.398                        -0.398
    212       H      3       1.000          0.469                         0.531
    213       H      3       1.000          0.556                         0.444
    214       H      3       1.000          0.548                         0.452

  Total Charge                                                            0.002
 !-----------------------------------------------------------------------------!

 ENERGY| Total FORCE_EVAL ( QS ) energy (a.u.):            -8151.579856391796966


 --------  Informations at step =    66 ------------
  Optimization Method        =                 BFGS
  Total Energy               =     -8151.5798563918
  Real energy change         =        -0.0001446758
  Predicted change in energy =        -0.0001280530
  Scaling factor             =         0.8364548071
  Step size                  =         0.0279462654
  Trust radius               =         0.4724315332
  Decrease in energy         =                  YES
  Used time                  =              207.270

  Convergence check :
  Max. step size             =         0.0279462654
  Conv. limit for step size  =         0.0030000000
  Convergence in step size   =                   NO
  RMS step size              =         0.0041280153
  Conv. limit for RMS step   =         0.0015000000
  Convergence in RMS step    =                   NO
  Max. gradient              =         0.0019773601
  Conv. limit for gradients  =         0.0004500000
  Conv. for gradients        =                   NO
  RMS gradient               =         0.0002673421
  Conv. limit for RMS grad.  =         0.0003000000
  Conv. in RMS gradients     =                  YES
 ---------------------------------------------------

 --------------------------
 OPTIMIZATION STEP:     67
 --------------------------

 Number of electrons:                                                       1758
 Number of occupied orbitals:                                                879
 Number of molecular orbitals:                                               879

 Number of orbital functions:                                               3774
 Number of independent orbital functions:                                   3774

 Parameters for the always stable predictor-corrector (ASPC) method:

  ASPC order: 3

  B(1) =   3.000000
  B(2) =  -3.428571
  B(3) =   1.928571
  B(4) =  -0.571429
  B(5) =   0.071429

 Extrapolation method: ASPC


 SCF WAVEFUNCTION OPTIMIZATION

  ----------------------------------- OT ---------------------------------------
  Minimizer      : CG                  : conjugate gradient
  Preconditioner : FULL_ALL            : diagonalization, state selective
  Precond_solver : DEFAULT
  Line search    : 2PNT                : 2 energies, one gradient
  stepsize       :    0.15000000                  energy_gap     :    0.08000000
  eps_taylor     :   0.10000E-15                  max_taylor     :             4
  ----------------------------------- OT ---------------------------------------

  Step     Update method      Time    Convergence         Total energy    Change
  ------------------------------------------------------------------------------
