     214
 i =        1, E =     -8151.4288349363
 Ga         0.0019352492       -0.0008905316       -0.1734439692
  N        -0.0041797535        1.8580817726        0.6121943971
 Ga         0.0006472440        1.8605861520        2.5466648440
  N         0.0060357252        0.0021373835        3.2353962883
 Ga         0.0067098930        0.0004925934        5.1961955921
  N         0.0023452479        1.8591442442        5.8576126326
 Ga         0.0043545517        1.8597901277        7.8268176344
  N         0.0140985449        0.0022802813        8.4778459965
 Ga         0.0080893654        0.0055687103       10.4661775526
  N        -0.0073532333        1.8654096383       11.0535580281
 Ga        -0.0359839902        1.8476716852       13.1202441974
  N        -0.0124907031       -0.0031940204       13.4794012533
 Ga        -1.6102028482        2.7908185827       -0.1734680201
  N        -1.6161349748        4.6498935894        0.6121897951
 Ga        -1.6113760579        4.6525223282        2.5469342743
  N        -1.6053459488        2.7937478239        3.2351750130
 Ga        -1.6044743685        2.7920190454        5.1959195288
  N        -1.6104767079        4.6512589867        5.8557083811
 Ga        -1.6081602952        4.6528021443        7.8246623843
  N        -1.6003448972        2.7947945210        8.4727372352
 Ga        -1.6103701213        2.8017269087       10.4581165292
  N        -1.6129266138        4.6546386215       11.0556886621
 Ga        -1.6325999826        4.6345994763       13.1280034534
  N        -1.6199926635        2.7936006358       13.5487567699
 Ga        -3.2220061775        5.5827392181       -0.1737553317
  N        -3.2278551693        7.4416950090        0.6121856673
 Ga        -3.2230832904        7.4443342848        2.5468827870
  N        -3.2176651861        5.5857250559        3.2351417578
 Ga        -3.2171720596        5.5846994529        5.1960832578
  N        -3.2217017050        7.4431379440        5.8584079054
 Ga        -3.2191498680        7.4447825097        7.8279638887
  N        -3.2124521450        5.5857933551        8.4756286081
 Ga        -3.2168071045        5.5882781646       10.4629647779
  N        -3.2314155588        7.4489390413       11.0518700211
 Ga        -3.2570029709        7.4393867342       13.1151024432
  N        -3.2355807040        5.5849693431       13.4697368178
 Ga        -4.8337686814        8.3746837524       -0.1732927265
  N        -4.8396087868       10.2334931592        0.6129314260
 Ga        -4.8348450395       10.2360478854        2.5476452797
  N        -4.8292868490        8.3772942870        3.2354100422
 Ga        -4.8280380521        8.3757179234        5.1962309916
  N        -4.8340807883       10.2349026699        5.8560055203
 Ga        -4.8309734284       10.2362778174        7.8242981938
  N        -4.8253589567        8.3790975409        8.4756834346
 Ga        -4.8349166257        8.3859827127       10.4607747593
  N        -4.8347489308       10.2386825003       11.0647718692
 Ga        -4.8524996971       10.2155938708       13.1465916675
  N        -4.8460375675        8.3735907979       13.5545754939
 Ga         3.2131542763       -0.0009055831       -0.1729509155
  N         3.2072038347        1.8579335979        0.6130767794
 Ga         3.2120275590        1.8604166768        2.5478145815
  N         3.2176953675        0.0016925846        3.2361311124
 Ga         3.2192459133        0.0000640138        5.1969439011
  N         3.2125277598        1.8593198268        5.8557901979
 Ga         3.2159394419        1.8601918002        7.8241714905
  N         3.2225643215        0.0028469689        8.4745320618
 Ga         3.2152833108        0.0066205365       10.4598137412
  N         3.2121090105        1.8617157899       11.0551738565
 Ga         3.1964251936        1.8414591961       13.1291988789
  N         3.1996877217       -0.0009588811       13.5394991080
 Ga         1.6014370557        2.7906717520       -0.1734009545
  N         1.5953942333        4.6498011602        0.6120177856
 Ga         1.6001147021        4.6523801604        2.5466598663
  N         1.6054821742        2.7936875276        3.2349663890
 Ga         1.6065766248        2.7925400816        5.1954298228
  N         1.6012965261        4.6504945842        5.8573081780
 Ga         1.6037771788        4.6522727280        7.8264331690
  N         1.6118268176        2.7933137776        8.4759174758
 Ga         1.6063003004        2.7984384508       10.4639768095
  N         1.5931289107        4.6567217526       11.0568152648
 Ga         1.5667820059        4.6445599196       13.1305178028
  N         1.5868169377        2.7845484554       13.4579090824
 Ga        -0.0105851822        5.5826944360       -0.1735963049
  N        -0.0165049659        7.4416294838        0.6123707031
 Ga        -0.0117313546        7.4441777933        2.5471493146
  N        -0.0061341978        5.5853714998        3.2351215968
 Ga        -0.0047019621        5.5838739766        5.1959325295
  N        -0.0109764277        7.4428894238        5.8555245566
 Ga        -0.0080150569        7.4443235546        7.8238332778
  N        -0.0014633678        5.5869510929        8.4731411015
 Ga        -0.0110323130        5.5914050212       10.4579987296
  N        -0.0101750304        7.4441525711       11.0644787459
 Ga        -0.0296819388        7.4269521897       13.1437183863
  N        -0.0311663424        5.5828009194       13.5525147632
 Ga        -1.6223930844        8.3745758239       -0.1734349775
  N        -1.6283576072       10.2333671856        0.6127546246
 Ga        -1.6235439879       10.2358881243        2.5473882980
  N        -1.6180804384        8.3772889059        3.2353627845
 Ga        -1.6171509767        8.3761494087        5.1961663657
  N        -1.6220354884       10.2341375958        5.8591261024
 Ga        -1.6184742263       10.2354657182        7.8288308649
  N        -1.6107682417        8.3765889490        8.4796638852
 Ga        -1.6156127887        8.3800322453       10.4684875359
  N        -1.6283195430       10.2401561509       11.0566477403
 Ga        -1.6559575006       10.2281407496       13.1237346382
  N        -1.6373056752        8.3738490883       13.4721524980
 Ga         6.4244942917       -0.0010040238       -0.1727747173
  N         6.4186271682        1.8580276952        0.6126381184
 Ga         6.4232635549        1.8604808731        2.5473786479
  N         6.4285771406        0.0018745403        3.2358237779
 Ga         6.4300315346        0.0006060781        5.1968132624
  N         6.4251980609        1.8590126315        5.8582384695
 Ga         6.4288385676        1.8597623143        7.8276948118
  N         6.4361445842        0.0015115962        8.4793200079
 Ga         6.4329198963        0.0046078521       10.4670571617
  N         6.4171077458        1.8654612118       11.0544812078
 Ga         6.3927268781        1.8526951017       13.1185546221
  N         6.4106327058       -0.0002192186       13.4713805448
 Ga         4.8125794693        2.7907197865       -0.1729904716
  N         4.8067383651        4.6498010165        0.6124579571
 Ga         4.8113126328        4.6522856349        2.5472249423
  N         4.8170734745        2.7935201596        3.2358064211
 Ga         4.8188281383        2.7919174277        5.1967768552
  N         4.8123946425        4.6514026117        5.8546977628
 Ga         4.8151802283        4.6526647228        7.8229141950
  N         4.8223123585        2.7946397905        8.4727572465
 Ga         4.8138977745        2.8023000075       10.4570535658
  N         4.8093612093        4.6552134586       11.0614408694
 Ga         4.7985721945        4.6334764443       13.1391830423
  N         4.7998793358        2.7888040826       13.5346971965
 Ga         3.2008829660        5.5826271894       -0.1737891700
  N         3.1950311993        7.4416683681        0.6120052634
 Ga         3.1997214175        7.4442081650        2.5467222678
  N         3.2048941182        5.5856050547        3.2350467506
 Ga         3.2057590991        5.5844374485        5.1959168408
  N         3.2012139323        7.4428421708        5.8581367811
 Ga         3.2032996736        7.4444281983        7.8277475333
  N         3.2114368984        5.5851831866        8.4741635464
 Ga         3.2054109285        5.5877448580       10.4608179164
  N         3.1940102667        7.4467299880       11.0534275928
 Ga         3.1670876868        7.4402225549       13.1172742412
  N         3.1909208901        5.5848329295       13.4520475077
 Ga         1.5889381319        8.3746050937       -0.1732425446
  N         1.5831530499       10.2334080157        0.6131595421
 Ga         1.5879268112       10.2359051596        2.5481818812
  N         1.5934716875        8.3768342582        3.2354851411
 Ga         1.5949291773        8.3757442322        5.1963397306
  N         1.5887307467       10.2344110166        5.8559736696
 Ga         1.5921940182       10.2360478476        7.8243090330
  N         1.5971884680        8.3785421558        8.4760071367
 Ga         1.5905324908        8.3842875660       10.4613483618
  N         1.5888126878       10.2360492414       11.0715539480
 Ga         1.5717560978       10.2170481459       13.1542753885
  N         1.5756623555        8.3716301889       13.5453371876
 Ga         9.6357981217       -0.0007915645       -0.1729261329
  N         9.6301547198        1.8580981110        0.6128722119
 Ga         9.6349007328        1.8604125573        2.5477304237
  N         9.6406905962        0.0016871015        3.2363640977
 Ga         9.6421800855        0.0001126665        5.1978402302
  N         9.6361218822        1.8598955910        5.8558132990
 Ga         9.6386126438        1.8597556495        7.8245977069
  N         9.6449470002        0.0027978362        8.4751464817
 Ga         9.6359022271        0.0077604638       10.4594823008
  N         9.6367695875        1.8611687215       11.0602596191
 Ga         9.6226954779        1.8436334994       13.1374632391
  N         9.6241713669        0.0008927534       13.5481832831
 Ga         8.0240968654        2.7908114879       -0.1731043809
  N         8.0183065785        4.6499583206        0.6121284281
 Ga         8.0230072708        4.6525026349        2.5467509237
  N         8.0283319639        2.7937892835        3.2350116369
 Ga         8.0293845703        2.7923637357        5.1958755567
  N         8.0240929049        4.6511141646        5.8568840950
 Ga         8.0264794532        4.6519898514        7.8260678371
  N         8.0359462216        2.7944176123        8.4781578761
 Ga         8.0324639104        2.7975804416       10.4659327955
  N         8.0152871246        4.6576644107       11.0556330122
 Ga         7.9907224887        4.6447467322       13.1221455224
  N         8.0126187969        2.7895743876       13.4670399578
 Ga         6.4122414393        5.5826615828       -0.1734615114
  N         6.4064387776        7.4417539975        0.6122910387
 Ga         6.4110712972        7.4444427627        2.5471197186
  N         6.4166205880        5.5855230500        3.2346566340
 Ga         6.4179195152        5.5840062823        5.1952709958
  N         6.4121766466        7.4430527344        5.8551991761
 Ga         6.4150126780        7.4440458242        7.8235397858
  N         6.4206651113        5.5866235112        8.4746369248
 Ga         6.4123965716        5.5936978451       10.4595076372
  N         6.4132128880        7.4440643273       11.0677285989
 Ga         6.3952644265        7.4257626571       13.1498502976
  N         6.4006562745        5.5808061688       13.5458672050
 Ga         4.8004768546        8.3744774640       -0.1737696789
  N         4.7946927626       10.2334917034        0.6122684928
 Ga         4.7993450051       10.2360124257        2.5471034349
  N         4.8045866702        8.3774034531        3.2353437693
 Ga         4.8056350928        8.3763692015        5.1963722893
  N         4.8017639508       10.2342973312        5.8594938258
 Ga         4.8032909790       10.2358010406        7.8295310955
  N         4.8121729985        8.3760084869        8.4780830837
 Ga         4.8084169262        8.3786769486       10.4659583090
  N         4.7933789327       10.2394808540       11.0501475810
 Ga         4.7656248103       10.2330517421       13.1117029948
  N         4.7869671287        8.3783144741       13.4619350125
  H         4.8006507188        8.3776418344       -1.7258423477
  H         1.5887463420        8.3786874162       -1.7253223560
  H        -1.6226636602        8.3783329825       -1.7254585613
  H        -4.8342301670        8.3786030130       -1.7253376176
  H         6.4120960836        5.5859108814       -1.7255527456
  H         3.2012072878        5.5859701881       -1.7258321704
  H        -0.0108694133        5.5863980407       -1.7256188701
  H        -3.2226769227        5.5861834380       -1.7257949635
  H         8.0243726971        2.7945493130       -1.7251629385
  H         4.8120939661        2.7944478439       -1.7250021587
  H         1.6014347306        2.7937778941       -1.7254048858
  H        -1.6107475681        2.7938323290       -1.7254771185
  H         0.0025174544        0.0025213856       -1.7254361967
  H         3.2128434783        0.0026277087       -1.7249322663
  H         6.4243852941        0.0021380616       -1.7248040070
  H         9.6348836523        0.0032612412       -1.7249917082
  O         1.2463077039        4.7486027362       15.8624591593
  H         0.5010615112        5.3385840594       15.6160485209
  C         0.6943612762        3.5525618542       16.4609875815
  H        -0.1927421150        3.1913994233       15.9177385618
  H         1.4754910810        2.7856291588       16.4111826346
  H         0.4268129735        3.7475398695       17.5087108483
     214
 i =        2, E =     -8151.4292239354
 Ga         0.0022658229       -0.0007709508       -0.1735522931
  N        -0.0039417997        1.8581661933        0.6121716808
 Ga         0.0008820346        1.8605537669        2.5466520797
  N         0.0063942087        0.0021589406        3.2355391480
 Ga         0.0071156840        0.0002854356        5.1964581439
  N         0.0029284682        1.8590427792        5.8567445530
 Ga         0.0051656127        1.8598838304        7.8260373951
  N         0.0142992400        0.0019592043        8.4734474764
 Ga         0.0064052676        0.0039097975       10.4613601432
  N        -0.0097065418        1.8644125390       11.0482182140
 Ga        -0.0386294258        1.8428158403       13.1101231579
  N        -0.0127686126       -0.0035629639       13.4865068891
 Ga        -1.6098683545        2.7909917237       -0.1735373386
  N        -1.6158632194        4.6499963389        0.6122316984
 Ga        -1.6110137775        4.6524639025        2.5469722414
  N        -1.6049259834        2.7938505093        3.2357492066
 Ga        -1.6043113888        2.7923176032        5.1967520073
  N        -1.6100050729        4.6516345122        5.8552805129
 Ga        -1.6076354047        4.6534484138        7.8244125042
  N        -1.5992825007        2.7953560571        8.4682754215
 Ga        -1.6112450638        2.8040170654       10.4532450693
  N        -1.6147836345        4.6547748083       11.0543619180
 Ga        -1.6357082114        4.6344829803       13.1209015097
  N        -1.6156092088        2.7951260064       13.5573042553
 Ga        -3.2216277019        5.5829070339       -0.1737073910
  N        -3.2276547179        7.4417982262        0.6122152782
 Ga        -3.2227186729        7.4442141419        2.5468963579
  N        -3.2171981838        5.5857141639        3.2354663734
 Ga        -3.2168410736        5.5848096888        5.1966288644
  N        -3.2213658607        7.4432816243        5.8583037761
 Ga        -3.2191689569        7.4447805058        7.8279107681
  N        -3.2126354660        5.5862424470        8.4738011425
 Ga        -3.2163060074        5.5887233252       10.4607270800
  N        -3.2308926888        7.4494661525       11.0529431570
 Ga        -3.2573858377        7.4391704075       13.1153550034
  N        -3.2359428535        5.5850842812       13.4737731190
 Ga        -4.8334475011        8.3748566627       -0.1733310341
  N        -4.8393846326       10.2336009681        0.6129121015
 Ga        -4.8345271860       10.2360590254        2.5475905885
  N        -4.8288655810        8.3773700110        3.2355457156
 Ga        -4.8274792361        8.3756523648        5.1964922326
  N        -4.8334764032       10.2348992100        5.8552973273
 Ga        -4.8304970498       10.2361399751        7.8237175290
  N        -4.8252548725        8.3793156764        8.4747845121
 Ga        -4.8354247210        8.3857807103       10.4599618282
  N        -4.8352935150       10.2401378226       11.0624435599
 Ga        -4.8529043173       10.2166480411       13.1436299119
  N        -4.8466777917        8.3744805638       13.5534081301
 Ga         3.2134601333       -0.0007202525       -0.1731608742
  N         3.2074115536        1.8580559262        0.6128631440
 Ga         3.2123907104        1.8604260743        2.5475160098
  N         3.2180419691        0.0018013715        3.2361483929
 Ga         3.2196149979        0.0002198187        5.1970252837
  N         3.2129049393        1.8594257459        5.8553595665
 Ga         3.2164742782        1.8600970676        7.8239051265
  N         3.2234832107        0.0024119967        8.4723635015
 Ga         3.2157027461        0.0053126103       10.4578021791
  N         3.2129090219        1.8598752860       11.0534799287
 Ga         3.1994318623        1.8396838789       13.1259625655
  N         3.1981970971       -0.0015322755       13.5426673256
 Ga         1.6017763992        2.7909237829       -0.1735369897
  N         1.5955872450        4.6499387769        0.6120429667
 Ga         1.6004034689        4.6524294268        2.5466186605
  N         1.6058397512        2.7937030356        3.2348892511
 Ga         1.6069291943        2.7924949892        5.1953532051
  N         1.6016783417        4.6503062276        5.8561492648
 Ga         1.6042491349        4.6525089921        7.8252508222
  N         1.6123864966        2.7935535771        8.4755376238
 Ga         1.6063823653        2.7987743223       10.4646971044
  N         1.5917786176        4.6553385396       11.0618427812
 Ga         1.5640567073        4.6461789412       13.1488558851
  N         1.5860507782        2.7789138882       13.4406808899
 Ga        -0.0102169091        5.5828672815       -0.1736893036
  N        -0.0162823989        7.4416627280        0.6124567121
 Ga        -0.0113995709        7.4441147162        2.5472133612
  N        -0.0058267857        5.5853318914        3.2353392506
 Ga        -0.0044144826        5.5839092700        5.1961816184
  N        -0.0107117242        7.4428941404        5.8554831575
 Ga        -0.0072130543        7.4444460179        7.8240670462
  N        -0.0003157691        5.5869387701        8.4724461948
 Ga        -0.0107439580        5.5894310193       10.4581082124
  N        -0.0087945853        7.4430269639       11.0634681775
 Ga        -0.0319023546        7.4294731963       13.1364001312
  N        -0.0399330912        5.5878100537       13.5670691636
 Ga        -1.6220043527        8.3746834716       -0.1734539798
  N        -1.6281743123       10.2334640275        0.6126470660
 Ga        -1.6231552916       10.2359065511        2.5472524471
  N        -1.6177749240        8.3773514395        3.2354790701
 Ga        -1.6169708182        8.3761181184        5.1963886174
  N        -1.6218671736       10.2340971684        5.8589706719
 Ga        -1.6174037449       10.2353021759        7.8287581227
  N        -1.6103217922        8.3763664638        8.4785276315
 Ga        -1.6149837475        8.3798524938       10.4673857106
  N        -1.6277523957       10.2391596800       11.0576156645
 Ga        -1.6577329518       10.2271813669       13.1257698271
  N        -1.6391384240        8.3739111663       13.4731993395
 Ga         6.4248597462       -0.0008632239       -0.1727682504
  N         6.4188102456        1.8581767526        0.6126048250
 Ga         6.4236658995        1.8604838510        2.5474730076
  N         6.4288320370        0.0018662081        3.2359862686
 Ga         6.4305500414        0.0007599504        5.1971951487
  N         6.4256844159        1.8592085197        5.8581157395
 Ga         6.4291026449        1.8597037053        7.8277041742
  N         6.4364429515        0.0017738839        8.4798238703
 Ga         6.4333506631        0.0050819776       10.4679007619
  N         6.4166923168        1.8662346441       11.0556430214
 Ga         6.3929513070        1.8546467853       13.1196468592
  N         6.4087797226        0.0004357401       13.4676256767
 Ga         4.8128821230        2.7909680413       -0.1730859081
  N         4.8069508898        4.6498845498        0.6125855308
 Ga         4.8116612857        4.6522845889        2.5473716399
  N         4.8172754556        2.7935181387        3.2357189120
 Ga         4.8195288555        2.7920137322        5.1967698795
  N         4.8128649560        4.6512577914        5.8544165015
 Ga         4.8149957596        4.6529063551        7.8229599938
  N         4.8223182663        2.7944044083        8.4726383064
 Ga         4.8138245202        2.8023294985       10.4570479922
  N         4.8082733582        4.6549444394       11.0606902367
 Ga         4.8008130852        4.6314619943       13.1383168922
  N         4.7986701771        2.7885704132       13.5402566322
 Ga         3.2012349647        5.5827317605       -0.1737185782
  N         3.1952823581        7.4417054514        0.6120865907
 Ga         3.2000180195        7.4441323090        2.5468176159
  N         3.2051509010        5.5855428837        3.2352122190
 Ga         3.2063889137        5.5845871830        5.1962750802
  N         3.2016107258        7.4431191156        5.8577977705
 Ga         3.2036079793        7.4441438508        7.8276388058
  N         3.2108271702        5.5852589295        8.4750728960
 Ga         3.2026961822        5.5868242233       10.4630464858
  N         3.1941629918        7.4472708837       11.0526028753
 Ga         3.1665056215        7.4443343390       13.1160912019
  N         3.1933681101        5.5870859957       13.4330244022
 Ga         1.5892784689        8.3747470786       -0.1731183601
  N         1.5834227083       10.2335410568        0.6133076731
 Ga         1.5883555164       10.2359565660        2.5484268676
  N         1.5937643225        8.3768054456        3.2356049639
 Ga         1.5953169552        8.3761784384        5.1966413514
  N         1.5892373957       10.2347188967        5.8556961317
 Ga         1.5928319828       10.2365060598        7.8241808130
  N         1.5976295788        8.3789671395        8.4756162218
 Ga         1.5909606884        8.3855178463       10.4612491153
  N         1.5883491519       10.2361323306       11.0768544848
 Ga         1.5723276229       10.2177096892       13.1609265962
  N         1.5731705816        8.3708047101       13.5461411742
 Ga         9.6361957531       -0.0006396104       -0.1728303822
  N         9.6304577553        1.8581934311        0.6130435926
 Ga         9.6352569173        1.8604003051        2.5480148160
  N         9.6410862237        0.0017784572        3.2365871401
 Ga         9.6427994979        0.0005085442        5.1983035499
  N         9.6367771789        1.8601471282        5.8556853343
 Ga         9.6386736640        1.8589542742        7.8248513885
  N         9.6449340870        0.0025926212        8.4752470942
 Ga         9.6359957367        0.0086447510       10.4602530050
  N         9.6390104804        1.8620206896       11.0598909802
 Ga         9.6275848490        1.8444334586       13.1349943663
  N         9.6240394144        0.0020059925       13.5528210208
 Ga         8.0245213484        2.7909602152       -0.1730036359
  N         8.0185346235        4.6500772928        0.6122727082
 Ga         8.0233841050        4.6523765660        2.5470174177
  N         8.0287097886        2.7937693964        3.2353546026
 Ga         8.0301336653        2.7926536982        5.1965193712
  N         8.0246073549        4.6513483597        5.8569235164
 Ga         8.0263804376        4.6517773872        7.8262606199
  N         8.0361086174        2.7943441131        8.4779223126
 Ga         8.0332569499        2.7962550359       10.4654962832
  N         8.0155301257        4.6571347798       11.0573155241
 Ga         7.9919541549        4.6442860253       13.1227007498
  N         8.0146719161        2.7884049839       13.4648739915
 Ga         6.4125242831        5.5828280431       -0.1732935185
  N         6.4066832697        7.4418625444        0.6124392638
 Ga         6.4113784585        7.4443299990        2.5473295513
  N         6.4169669288        5.5854670566        3.2349518303
 Ga         6.4185836847        5.5840976095        5.1958047981
  N         6.4129397707        7.4430874230        5.8550356785
 Ga         6.4152825659        7.4439451485        7.8235446609
  N         6.4202511627        5.5862187510        8.4750949745
 Ga         6.4110747037        5.5932547351       10.4600520883
  N         6.4139607487        7.4440133189       11.0688922587
 Ga         6.3949838567        7.4265890521       13.1503361906
  N         6.4010308919        5.5805638720       13.5415979870
 Ga         4.8008076710        8.3746636938       -0.1736070221
  N         4.7949479071       10.2336193788        0.6123732012
 Ga         4.7995518917       10.2360081919        2.5472435880
  N         4.8048877556        8.3774056489        3.2355106432
 Ga         4.8063800580        8.3765442293        5.1967982357
  N         4.8023231574       10.2344008242        5.8590167738
 Ga         4.8024396084       10.2356063649        7.8293947487
  N         4.8125974831        8.3753582350        8.4778200666
 Ga         4.8092989829        8.3787775050       10.4657480059
  N         4.7943098959       10.2395855007       11.0504786094
 Ga         4.7648969440       10.2358968057       13.1107328164
  N         4.7859195483        8.3801378020       13.4589873072
  H         4.8007680862        8.3777452405       -1.7258450149
  H         1.5888388851        8.3786629545       -1.7253585211
  H        -1.6225267989        8.3782823090       -1.7256419730
  H        -4.8340691011        8.3785478822       -1.7255398938
  H         6.4121642319        5.5859729210       -1.7255456780
  H         3.2012545419        5.5859556381       -1.7259160780
  H        -0.0107652393        5.5863083002       -1.7258812480
  H        -3.2224262433        5.5861901735       -1.7259273564
  H         8.0244399836        2.7943906976       -1.7252718495
  H         4.8122201338        2.7942888949       -1.7252710275
  H         1.6016058544        2.7937625650       -1.7257200655
  H        -1.6105972393        2.7938854048       -1.7257419742
  H         0.0025301337        0.0024333484       -1.7257378108
  H         3.2129535074        0.0026218111       -1.7252941029
  H         6.4245476457        0.0021356793       -1.7249957752
  H         9.6351088022        0.0030845652       -1.7250976829
  O         1.2436547897        4.7447369394       15.8779723105
  H         0.5100772838        5.3329006746       15.6006639335
  C         0.6936031018        3.5535946580       16.4673625291
  H        -0.1939786795        3.1947464677       15.9216992033
  H         1.4754828268        2.7869251964       16.4150905691
  H         0.4175754793        3.7413519947       17.5155456481
     214
 i =        3, E =     -8151.4293838093
 Ga         0.0025014601       -0.0006602965       -0.1735276145
  N        -0.0037616824        1.8582442028        0.6122313725
 Ga         0.0010626625        1.8605360665        2.5467519366
  N         0.0066607658        0.0021135838        3.2351828477
 Ga         0.0073764680        0.0002225489        5.1960629256
  N         0.0035169313        1.8591114580        5.8558962665
 Ga         0.0060394968        1.8603551984        7.8251523539
  N         0.0142759429        0.0017368168        8.4715512691
 Ga         0.0061368123        0.0032615216       10.4589035366
  N        -0.0112248899        1.8635289868       11.0465204654
 Ga        -0.0395388607        1.8419893608       13.1061834981
  N        -0.0132881365       -0.0027953278       13.4880251399
 Ga        -1.6096077473        2.7911046160       -0.1735039499
  N        -1.6156443046        4.6500532361        0.6123424810
 Ga        -1.6107619322        4.6524368134        2.5471062002
  N        -1.6047013887        2.7939034330        3.2355947165
 Ga        -1.6040159736        2.7924073512        5.1966220867
  N        -1.6096020946        4.6519962709        5.8543605459
 Ga        -1.6072058847        4.6539207332        7.8232669085
  N        -1.5991507154        2.7957130698        8.4663309637
 Ga        -1.6115865512        2.8047680034       10.4507247723
  N        -1.6153919934        4.6547386037       11.0550354044
 Ga        -1.6349741430        4.6355453833       13.1197177426
  N        -1.6144428922        2.7959716499       13.5581535767
 Ga        -3.2213568607        5.5830013914       -0.1736231006
  N        -3.2274204970        7.4418429861        0.6122751893
 Ga        -3.2224296427        7.4441940211        2.5469454531
  N        -3.2169395699        5.5857464359        3.2352477244
 Ga        -3.2166675272        5.5849455095        5.1963606149
  N        -3.2210572438        7.4434118161        5.8578092991
 Ga        -3.2190263367        7.4449157901        7.8272867612