 DBCSR| Multiplication driver                                               BLAS
 DBCSR| Multrec recursion limit                                              512
 DBCSR| Multiplication stack size                                           1000
 DBCSR| Maximum elements for images                                    UNLIMITED
 DBCSR| Multiplicative factor virtual images                                   1
 DBCSR| Multiplication size stacks                                             3
 DBCSR| Number of 3D layers                                               SINGLE
 DBCSR| Use MPI memory allocation                                              T
 DBCSR| Use RMA algorithm                                                      F
 DBCSR| Use Communication thread                                               T
 DBCSR| Communication thread load                                             87


  **** **** ******  **  PROGRAM STARTED AT               2019-07-03 04:51:21.781
 ***** ** ***  *** **   PROGRAM STARTED ON        blg8416.int.ets1.calculquebec.
 **    ****   ******    PROGRAM STARTED BY                                   rzk
 ***** **    ** ** **   PROGRAM PROCESS ID                                 56846
  **** **  *******  **  PROGRAM STARTED IN /lustre04/scratch/rzk/rzk/GaN-carbene
                                           /443-adatoms-both-2x2/07-CH3O-H2O-H3C
                                           /02-Use0401

 CP2K| version string:                    CP2K version 7.0 (Development Version)
 CP2K| source code revision number:                                    svn:18619
 CP2K| cp2kflags: libint fftw3 libxc parallel mpi3 scalapack mkl                
 CP2K| is freely available from                            https://www.cp2k.org/
 CP2K| Program compiled at                          Sun Apr  7 00:48:11 EDT 2019
 CP2K| Program compiled on                      beluga2.int.ets1.calculquebec.ca
 CP2K| Program compiled for                    Beluga-Linux-x86-64-intel-openmpi
 CP2K| Data directory path    /home/rzk/projects/def-rzk/group/cp2k/cp2k-mcgill/
 CP2K| Input file name                                                 start.inp
 
 GLOBAL| Force Environment number                                              1
 GLOBAL| Basis set file name                                        BASIS_MOLOPT
 GLOBAL| Potential file name                                      GTH_POTENTIALS
 GLOBAL| MM Potential file name                                     MM_POTENTIAL
 GLOBAL| Coordinate file name                                      __STD_INPUT__
 GLOBAL| Method name                                                        CP2K
 GLOBAL| Project name                                                       TEST
 GLOBAL| Preferred FFT library                                             FFTW3
 GLOBAL| Preferred diagonalization lib.                                       SL
 GLOBAL| Run type                                                        GEO_OPT
 GLOBAL| All-to-all communication in single precision                          F
 GLOBAL| FFTs using library dependent lengths                                  F
 GLOBAL| Global print level                                               MEDIUM
 GLOBAL| MPI I/O enabled                                                       T
 GLOBAL| Total number of message passing processes                            80
 GLOBAL| Number of threads for this process                                    1
 GLOBAL| This output is from process                                           0
 GLOBAL| CPU model name :  Intel(R) Xeon(R) Gold 6148 CPU @ 2.40GHz

 MEMORY| system memory details [Kb]
 MEMORY|                        rank 0           min           max       average
 MEMORY| MemTotal             97523924      97523924      97523924      97523924
 MEMORY| MemFree              84564988      72978640      84564988      78812491
 MEMORY| Buffers                     0             0            76            38
 MEMORY| Cached                1277012       1277012       1348776       1312894
 MEMORY| Slab                  1037192       1037192       3371900       2204546
 MEMORY| SReclaimable           124944        124944        748492        436718
 MEMORY| MemLikelyFree        85966944      75075984      85966944      80562141


 *** Fundamental physical constants (SI units) ***

 *** Literature: B. J. Mohr and B. N. Taylor,
 ***             CODATA recommended values of the fundamental physical
 ***             constants: 2006, Web Version 5.1
 ***             http://physics.nist.gov/constants

 Speed of light in vacuum [m/s]                             2.99792458000000E+08
 Magnetic constant or permeability of vacuum [N/A**2]       1.25663706143592E-06
 Electric constant or permittivity of vacuum [F/m]          8.85418781762039E-12
 Planck constant (h) [J*s]                                  6.62606896000000E-34
 Planck constant (h-bar) [J*s]                              1.05457162825177E-34
 Elementary charge [C]                                      1.60217648700000E-19
 Electron mass [kg]                                         9.10938215000000E-31
 Electron g factor [ ]                                     -2.00231930436220E+00
 Proton mass [kg]                                           1.67262163700000E-27
 Fine-structure constant                                    7.29735253760000E-03
 Rydberg constant [1/m]                                     1.09737315685270E+07
 Avogadro constant [1/mol]                                  6.02214179000000E+23
 Boltzmann constant [J/K]                                   1.38065040000000E-23
 Atomic mass unit [kg]                                      1.66053878200000E-27
 Bohr radius [m]                                            5.29177208590000E-11

 *** Conversion factors ***

 [u] -> [a.u.]                                              1.82288848426455E+03
 [Angstrom] -> [Bohr] = [a.u.]                              1.88972613288564E+00
 [a.u.] = [Bohr] -> [Angstrom]                              5.29177208590000E-01
 [a.u.] -> [s]                                              2.41888432650478E-17
 [a.u.] -> [fs]                                             2.41888432650478E-02
 [a.u.] -> [J]                                              4.35974393937059E-18
 [a.u.] -> [N]                                              8.23872205491840E-08
 [a.u.] -> [K]                                              3.15774647902944E+05
 [a.u.] -> [kJ/mol]                                         2.62549961709828E+03
 [a.u.] -> [kcal/mol]                                       6.27509468713739E+02
 [a.u.] -> [Pa]                                             2.94210107994716E+13
 [a.u.] -> [bar]                                            2.94210107994716E+08
 [a.u.] -> [atm]                                            2.90362800883016E+08
 [a.u.] -> [eV]                                             2.72113838565563E+01
 [a.u.] -> [Hz]                                             6.57968392072181E+15
 [a.u.] -> [1/cm] (wave numbers)                            2.19474631370540E+05
 [a.u./Bohr**2] -> [1/cm]                                   5.14048714338585E+03
 

 CELL_TOP| Volume [angstrom^3]:                                         4586.323
 CELL_TOP| Vector a [angstrom    12.864     0.000     0.000    |a| =      12.864
 CELL_TOP| Vector b [angstrom    -6.432    11.141     0.000    |b| =      12.864
 CELL_TOP| Vector c [angstrom     0.000     0.000    32.000    |c| =      32.000
 CELL_TOP| Angle (b,c), alpha [degree]:                                   90.000
 CELL_TOP| Angle (a,c), beta  [degree]:                                   90.000
 CELL_TOP| Angle (a,b), gamma [degree]:                                  120.000
 CELL_TOP| Numerically orthorhombic:                                          NO
 
 GENERATE|  Preliminary Number of Bonds generated:                             0
 GENERATE|  Achieved consistency in connectivity generation.

 CELL| Volume [angstrom^3]:                                             4586.323
 CELL| Vector a [angstrom]:      12.864     0.000     0.000    |a| =      12.864
 CELL| Vector b [angstrom]:      -6.432    11.141     0.000    |b| =      12.864
 CELL| Vector c [angstrom]:       0.000     0.000    32.000    |c| =      32.000
 CELL| Angle (b,c), alpha [degree]:                                       90.000
 CELL| Angle (a,c), beta  [degree]:                                       90.000
 CELL| Angle (a,b), gamma [degree]:                                      120.000
 CELL| Numerically orthorhombic:                                              NO

 CELL_REF| Volume [angstrom^3]:                                         4670.759
 CELL_REF| Vector a [angstrom    12.982     0.000     0.000    |a| =      12.982
 CELL_REF| Vector b [angstrom    -6.491    11.243     0.000    |b| =      12.982
 CELL_REF| Vector c [angstrom     0.000     0.000    32.000    |c| =      32.000
 CELL_REF| Angle (b,c), alpha [degree]:                                   90.000
 CELL_REF| Angle (a,c), beta  [degree]:                                   90.000
 CELL_REF| Angle (a,b), gamma [degree]:                                  120.000
 CELL_REF| Numerically orthorhombic:                                          NO

 *******************************************************************************
 *******************************************************************************
 **                                                                           **
 **     #####                         ##              ##                      **
 **    ##   ##            ##          ##              ##                      **
 **   ##     ##                       ##            ######                    **
 **   ##     ##  ##   ##  ##   #####  ##  ##   ####   ##    #####    #####    **
 **   ##     ##  ##   ##  ##  ##      ## ##   ##      ##   ##   ##  ##   ##   **
 **   ##  ## ##  ##   ##  ##  ##      ####     ###    ##   ######   ######    **
 **    ##  ###   ##   ##  ##  ##      ## ##      ##   ##   ##       ##        **
 **     #######   #####   ##   #####  ##  ##  ####    ##    #####   ##        **
 **           ##                                                    ##        **
 **                                                                           **
 **                                                ... make the atoms dance   **
 **                                                                           **
 **            Copyright (C) by CP2K developers group (2000 - 2018)           **
 **                                                                           **
 *******************************************************************************

 DFT| Spin unrestricted (spin-polarized) Kohn-Sham calculation               UKS
 DFT| Multiplicity                                                             1
 DFT| Number of spin states                                                    2
 DFT| Charge                                                                   0
 DFT| Self-interaction correction (SIC)                                       NO
 DFT| Cutoffs: density                                              1.000000E-10
 DFT|          gradient                                             1.000000E-10
 DFT|          tau                                                  1.000000E-10
 DFT|          cutoff_smoothing_range                               0.000000E+00
 DFT| XC density smoothing                                                  NONE
 DFT| XC derivatives                                                          PW
 FUNCTIONAL| ROUTINE=NEW
 FUNCTIONAL| PBE:
 FUNCTIONAL| J.P.Perdew, K.Burke, M.Ernzerhof, Phys. Rev. Letter, vol. 77, n 18,
 FUNCTIONAL|  pp. 3865-3868, (1996){spin polarized}                             
 vdW POTENTIAL|                                                   Pair Potential
 vdW POTENTIAL|          DFT-D3 (Version 3.1)
 vdW POTENTIAL|          Potential Form: S. Grimme et al, JCP 132: 154104 (2010)
 vdW POTENTIAL|          Zero Damping
 vdW POTENTIAL|          Cutoff Radius [Bohr]:                             18.90
 vdW POTENTIAL|          s6 Scaling Factor:                               1.0000
 vdW POTENTIAL|          sr6 Scaling Factor:                              1.2170
 vdW POTENTIAL|          s8 Scaling Factor:                               0.7220
 vdW POTENTIAL|          Cutoff for CN calculation:                   0.1000E-05

 QS| Method:                                                                 GPW
 QS| Density plane wave grid type                        NON-SPHERICAL FULLSPACE
 QS| Number of grid levels:                                                    5
 QS| Density cutoff [a.u.]:                                                600.0
 QS| Multi grid cutoff [a.u.]: 1) grid level                               600.0
 QS|                           2) grid level                               200.0
 QS|                           3) grid level                                66.7
 QS|                           4) grid level                                22.2
 QS|                           5) grid level                                 7.4
 QS| Grid level progression factor:                                          3.0
 QS| Relative density cutoff [a.u.]:                                        20.0
 QS| Consistent realspace mapping and integration 
 QS| Interaction thresholds: eps_pgf_orb:                                1.0E-07
 QS|                         eps_filter_matrix:                          0.0E+00
 QS|                         eps_core_charge:                            1.0E-16
 QS|                         eps_rho_gspace:                             1.0E-14
 QS|                         eps_rho_rspace:                             1.0E-14
 QS|                         eps_gvg_rspace:                             1.0E-07
 QS|                         eps_ppl:                                    1.0E-02
 QS|                         eps_ppnl:                                   1.0E-09


 ATOMIC KIND INFORMATION

  1. Atomic kind: N                                     Number of atoms:     100

     Orbital Basis Set                                        DZVP-MOLOPT-SR-GTH

       Number of orbital shell sets:                                           1
       Number of orbital shells:                                               5
       Number of primitive Cartesian functions:                                5
       Number of Cartesian basis functions:                                   14
       Number of spherical basis functions:                                   13
       Norm type:                                                              2

       Normalised Cartesian orbitals:

                        Set   Shell   Orbital            Exponent    Coefficient

                          1       1    2s                7.341988       0.360561
                                                         2.542637       0.139177
                                                         0.888575      -0.289383
                                                         0.333802      -0.182244
                                                         0.112012      -0.019197

                          1       2    3s                7.341988       0.282000
                                                         2.542637       0.177875
                                                         0.888575      -0.278381
                                                         0.333802       0.008577
                                                         0.112012       0.154176

                          1       3    3px               7.341988      -1.188719
                                                         2.542637      -0.973969
                                                         0.888575      -0.501079
                                                         0.333802      -0.144894
                                                         0.112012      -0.013986
                          1       3    3py               7.341988      -1.188719
                                                         2.542637      -0.973969
                                                         0.888575      -0.501079
                                                         0.333802      -0.144894
                                                         0.112012      -0.013986
                          1       3    3pz               7.341988      -1.188719
                                                         2.542637      -0.973969
                                                         0.888575      -0.501079
                                                         0.333802      -0.144894
                                                         0.112012      -0.013986

                          1       4    4px               7.341988      -0.094798
                                                         2.542637       0.050069
                                                         0.888575      -0.114797
                                                         0.333802       0.144793
                                                         0.112012       0.066710
                          1       4    4py               7.341988      -0.094798
                                                         2.542637       0.050069
                                                         0.888575      -0.114797
                                                         0.333802       0.144793
                                                         0.112012       0.066710
                          1       4    4pz               7.341988      -0.094798
                                                         2.542637       0.050069
                                                         0.888575      -0.114797
                                                         0.333802       0.144793
                                                         0.112012       0.066710

                          1       5    4dx2              7.341988       1.354688
                                                         2.542637       0.690378
                                                         0.888575       0.855359
                                                         0.333802       0.091746
                                                         0.112012       0.001253
                          1       5    4dxy              7.341988       2.346389
                                                         2.542637       1.195770
                                                         0.888575       1.481524
                                                         0.333802       0.158910
                                                         0.112012       0.002169
                          1       5    4dxz              7.341988       2.346389
                                                         2.542637       1.195770
                                                         0.888575       1.481524
                                                         0.333802       0.158910
                                                         0.112012       0.002169
                          1       5    4dy2              7.341988       1.354688
                                                         2.542637       0.690378
                                                         0.888575       0.855359
                                                         0.333802       0.091746
                                                         0.112012       0.001253
                          1       5    4dyz              7.341988       2.346389
                                                         2.542637       1.195770
                                                         0.888575       1.481524
                                                         0.333802       0.158910
                                                         0.112012       0.002169
                          1       5    4dz2              7.341988       1.354688
                                                         2.542637       0.690378
                                                         0.888575       0.855359
                                                         0.333802       0.091746
                                                         0.112012       0.001253

     GTH Potential information for                                    GTH-PBE-q5

       Description:                       Goedecker-Teter-Hutter pseudopotential
                                           Goedecker et al., PRB 54, 1703 (1996)
                                          Hartwigsen et al., PRB 58, 3641 (1998)
                                                      Krack, TCA 114, 145 (2005)

       Gaussian exponent of the core charge distribution:               6.208322
       Electronic configuration (s p d ...):                               2   3

       Parameters of the local part of the GTH pseudopotential:

                          rloc        C1          C2          C3          C4
                        0.283791  -12.415226    1.868096

       Parameters of the non-local part of the GTH pseudopotential:

                   l      r(l)      h(i,j,l)

                   0    0.255405   13.630263
                   1    0.245495

  2. Atomic kind: Ga                                    Number of atoms:     100

     Orbital Basis Set                                        DZVP-MOLOPT-SR-GTH

       Number of orbital shell sets:                                           1
       Number of orbital shells:                                               7
       Number of primitive Cartesian functions:                                6
       Number of Cartesian basis functions:                                   30
       Number of spherical basis functions:                                   25
       Norm type:                                                              2

       Normalised Cartesian orbitals:

                        Set   Shell   Orbital            Exponent    Coefficient

                          1       1    2s                7.066654       0.013136
                                                         3.428369      -0.094392
                                                         1.430064       0.265435
                                                         0.571611       0.056465
                                                         0.232197      -0.192187
                                                         0.076562      -0.044987

                          1       2    3s                7.066654      -0.098564
                                                         3.428369       0.010390
                                                         1.430064       0.351249
                                                         0.571611       0.182615
                                                         0.232197      -0.425358
                                                         0.076562       0.190349

                          1       3    3px               7.066654       0.002364
                                                         3.428369       0.019222
                                                         1.430064       0.250132
                                                         0.571611      -0.058486
                                                         0.232197      -0.159451
                                                         0.076562      -0.020696
                          1       3    3py               7.066654       0.002364
                                                         3.428369       0.019222
                                                         1.430064       0.250132
                                                         0.571611      -0.058486
                                                         0.232197      -0.159451
                                                         0.076562      -0.020696
                          1       3    3pz               7.066654       0.002364
                                                         3.428369       0.019222
                                                         1.430064       0.250132
                                                         0.571611      -0.058486
                                                         0.232197      -0.159451
                                                         0.076562      -0.020696

                          1       4    4px               7.066654       0.492448
                                                         3.428369      -0.614736
                                                         1.430064      -0.191654
                                                         0.571611       0.037801
                                                         0.232197       0.302315
                                                         0.076562      -0.071336
                          1       4    4py               7.066654       0.492448
                                                         3.428369      -0.614736
                                                         1.430064      -0.191654
                                                         0.571611       0.037801
                                                         0.232197       0.302315
                                                         0.076562      -0.071336
                          1       4    4pz               7.066654       0.492448
                                                         3.428369      -0.614736
                                                         1.430064      -0.191654
                                                         0.571611       0.037801
                                                         0.232197       0.302315
                                                         0.076562      -0.071336

                          1       5    4dx2              7.066654     -15.264855
                                                         3.428369      -5.345726
                                                         1.430064      -1.022732
                                                         0.571611      -0.123148
                                                         0.232197      -0.006983
                                                         0.076562      -0.000022
                          1       5    4dxy              7.066654     -26.439504
                                                         3.428369      -9.259069
                                                         1.430064      -1.771423
                                                         0.571611      -0.213299
                                                         0.232197      -0.012094
                                                         0.076562      -0.000037
                          1       5    4dxz              7.066654     -26.439504
                                                         3.428369      -9.259069
                                                         1.430064      -1.771423
                                                         0.571611      -0.213299
                                                         0.232197      -0.012094
                                                         0.076562      -0.000037
                          1       5    4dy2              7.066654     -15.264855
                                                         3.428369      -5.345726
                                                         1.430064      -1.022732
                                                         0.571611      -0.123148
                                                         0.232197      -0.006983
                                                         0.076562      -0.000022
                          1       5    4dyz              7.066654     -26.439504
                                                         3.428369      -9.259069
                                                         1.430064      -1.771423
                                                         0.571611      -0.213299
                                                         0.232197      -0.012094
                                                         0.076562      -0.000037
                          1       5    4dz2              7.066654     -15.264855
                                                         3.428369      -5.345726
                                                         1.430064      -1.022732
                                                         0.571611      -0.123148
                                                         0.232197      -0.006983
                                                         0.076562      -0.000022

                          1       6    5dx2              7.066654      -5.739265
                                                         3.428369      -2.129289
                                                         1.430064      -0.700423
                                                         0.571611       0.161606
                                                         0.232197       0.043513
                                                         0.076562       0.011205
                          1       6    5dxy              7.066654      -9.940698
                                                         3.428369      -3.688037
                                                         1.430064      -1.213168
                                                         0.571611       0.279909
                                                         0.232197       0.075368
                                                         0.076562       0.019407
                          1       6    5dxz              7.066654      -9.940698
                                                         3.428369      -3.688037
                                                         1.430064      -1.213168
                                                         0.571611       0.279909
                                                         0.232197       0.075368
                                                         0.076562       0.019407
                          1       6    5dy2              7.066654      -5.739265
                                                         3.428369      -2.129289
                                                         1.430064      -0.700423
                                                         0.571611       0.161606
                                                         0.232197       0.043513
                                                         0.076562       0.011205
                          1       6    5dyz              7.066654      -9.940698
                                                         3.428369      -3.688037
                                                         1.430064      -1.213168
                                                         0.571611       0.279909
                                                         0.232197       0.075368
                                                         0.076562       0.019407
                          1       6    5dz2              7.066654      -5.739265
                                                         3.428369      -2.129289
                                                         1.430064      -0.700423
                                                         0.571611       0.161606
                                                         0.232197       0.043513
                                                         0.076562       0.011205

                          1       7    5fx3              7.066654       0.705879
                                                         3.428369      -0.273976
                                                         1.430064       0.113667
                                                         0.571611       0.132480
                                                         0.232197       0.012437
                                                         0.076562       0.003241
                          1       7    5fx2y             7.066654       1.578393
                                                         3.428369      -0.612629
                                                         1.430064       0.254167
                                                         0.571611       0.296234
                                                         0.232197       0.027811
                                                         0.076562       0.007246
                          1       7    5fx2z             7.066654       1.578393
                                                         3.428369      -0.612629
                                                         1.430064       0.254167
                                                         0.571611       0.296234
                                                         0.232197       0.027811
                                                         0.076562       0.007246
                          1       7    5fxy2             7.066654       1.578393
                                                         3.428369      -0.612629
                                                         1.430064       0.254167
                                                         0.571611       0.296234
                                                         0.232197       0.027811
                                                         0.076562       0.007246
                          1       7    5fxyz             7.066654       2.733856
                                                         3.428369      -1.061105
                                                         1.430064       0.440230
                                                         0.571611       0.513092
                                                         0.232197       0.048170
                                                         0.076562       0.012551
                          1       7    5fxz2             7.066654       1.578393
                                                         3.428369      -0.612629
                                                         1.430064       0.254167
                                                         0.571611       0.296234
                                                         0.232197       0.027811
                                                         0.076562       0.007246
                          1       7    5fy3              7.066654       0.705879
                                                         3.428369      -0.273976
                                                         1.430064       0.113667
                                                         0.571611       0.132480
                                                         0.232197       0.012437
                                                         0.076562       0.003241
                          1       7    5fy2z             7.066654       1.578393
                                                         3.428369      -0.612629
                                                         1.430064       0.254167
                                                         0.571611       0.296234
                                                         0.232197       0.027811
                                                         0.076562       0.007246
                          1       7    5fyz2             7.066654       1.578393
                                                         3.428369      -0.612629
                                                         1.430064       0.254167
                                                         0.571611       0.296234
                                                         0.232197       0.027811
                                                         0.076562       0.007246
                          1       7    5fz3              7.066654       0.705879
                                                         3.428369      -0.273976
                                                         1.430064       0.113667
                                                         0.571611       0.132480
                                                         0.232197       0.012437
                                                         0.076562       0.003241

     GTH Potential information for                                   GTH-PBE-q13

       Description:                       Goedecker-Teter-Hutter pseudopotential
                                           Goedecker et al., PRB 54, 1703 (1996)
                                          Hartwigsen et al., PRB 58, 3641 (1998)
                                                      Krack, TCA 114, 145 (2005)

       Gaussian exponent of the core charge distribution:               2.082466
       Electronic configuration (s p d ...):                           2   1  10

       Parameters of the local part of the GTH pseudopotential:

                          rloc        C1          C2          C3          C4
                        0.490000

       Parameters of the non-local part of the GTH pseudopotential:

                   l      r(l)      h(i,j,l)

                   0    0.416777   10.475690   -4.921768    0.870706
                                   -4.921768    7.770178   -2.248152
                                    0.870706   -2.248152    1.784415
                   1    0.569627    1.777985    0.195860
                                    0.195860   -0.231744
                   2    0.238126  -16.248680

  3. Atomic kind: O                                     Number of atoms:       2

     Orbital Basis Set                                     DZVP-MOLOPT-SR-GTH-q6

       Number of orbital shell sets:                                           1
       Number of orbital shells:                                               5
       Number of primitive Cartesian functions:                                5
       Number of Cartesian basis functions:                                   14
       Number of spherical basis functions:                                   13
       Norm type:                                                              2

       Normalised Cartesian orbitals:

                        Set   Shell   Orbital            Exponent    Coefficient

                          1       1    2s               10.389228       0.396646
                                                         3.849621       0.208811
                                                         1.388401      -0.301641
                                                         0.496955      -0.274061
                                                         0.162492      -0.033677

                          1       2    3s               10.389228       0.303673
                                                         3.849621       0.240943
                                                         1.388401      -0.313066
                                                         0.496955      -0.043055
                                                         0.162492       0.213991

                          1       3    3px              10.389228      -1.530415
                                                         3.849621      -1.371928
                                                         1.388401      -0.761951
                                                         0.496955      -0.253695
                                                         0.162492      -0.035541
                          1       3    3py              10.389228      -1.530415
                                                         3.849621      -1.371928
                                                         1.388401      -0.761951
                                                         0.496955      -0.253695
                                                         0.162492      -0.035541
                          1       3    3pz              10.389228      -1.530415
                                                         3.849621      -1.371928
                                                         1.388401      -0.761951
                                                         0.496955      -0.253695
                                                         0.162492      -0.035541

                          1       4    4px              10.389228      -0.565392
                                                         3.849621      -0.038231
                                                         1.388401      -0.382373
                                                         0.496955       0.179070
                                                         0.162492       0.122714
                          1       4    4py              10.389228      -0.565392
                                                         3.849621      -0.038231
                                                         1.388401      -0.382373
                                                         0.496955       0.179070
                                                         0.162492       0.122714
                          1       4    4pz              10.389228      -0.565392
                                                         3.849621      -0.038231
                                                         1.388401      -0.382373
                                                         0.496955       0.179070
                                                         0.162492       0.122714

                          1       5    4dx2             10.389228       1.867377
                                                         3.849621       0.670994
                                                         1.388401       1.353441
                                                         0.496955       0.273538
                                                         0.162492       0.006620
                          1       5    4dxy             10.389228       3.234392
                                                         3.849621       1.162195
                                                         1.388401       2.344229
                                                         0.496955       0.473781
                                                         0.162492       0.011466
                          1       5    4dxz             10.389228       3.234392
                                                         3.849621       1.162195
                                                         1.388401       2.344229
                                                         0.496955       0.473781
                                                         0.162492       0.011466
                          1       5    4dy2             10.389228       1.867377
                                                         3.849621       0.670994
                                                         1.388401       1.353441
                                                         0.496955       0.273538
                                                         0.162492       0.006620
                          1       5    4dyz             10.389228       3.234392
                                                         3.849621       1.162195
                                                         1.388401       2.344229
                                                         0.496955       0.473781
                                                         0.162492       0.011466
                          1       5    4dz2             10.389228       1.867377
                                                         3.849621       0.670994
                                                         1.388401       1.353441
                                                         0.496955       0.273538
                                                         0.162492       0.006620

     GTH Potential information for                                    GTH-PBE-q6

       Description:                       Goedecker-Teter-Hutter pseudopotential
                                           Goedecker et al., PRB 54, 1703 (1996)
                                          Hartwigsen et al., PRB 58, 3641 (1998)
                                                      Krack, TCA 114, 145 (2005)

       Gaussian exponent of the core charge distribution:               8.360253
       Electronic configuration (s p d ...):                               2   4

       Parameters of the local part of the GTH pseudopotential:

                          rloc        C1          C2          C3          C4
                        0.244554  -16.667215    2.487311

       Parameters of the non-local part of the GTH pseudopotential:

                   l      r(l)      h(i,j,l)

                   0    0.220956   18.337458
                   1    0.211332

  4. Atomic kind: H                                     Number of atoms:       8

     Orbital Basis Set                                     DZVP-MOLOPT-SR-GTH-q1

       Number of orbital shell sets:                                           1
       Number of orbital shells:                                               3
       Number of primitive Cartesian functions:                                5
       Number of Cartesian basis functions:                                    5
       Number of spherical basis functions:                                    5
       Norm type:                                                              2

       Normalised Cartesian orbitals:

                        Set   Shell   Orbital            Exponent    Coefficient

                          1       1    2s               10.068468      -0.133023
                                                         2.680223      -0.177618
                                                         0.791502      -0.258419
                                                         0.239116      -0.107525
                                                         0.082193      -0.014019

                          1       2    3s               10.068468       0.344673
                                                         2.680223       1.819821
                                                         0.791502      -0.999069
                                                         0.239116       0.017430
                                                         0.082193       0.082660

                          1       3    3px              10.068468       0.155326
                                                         2.680223       0.367157
                                                         0.791502       0.311480
                                                         0.239116       0.080105
                                                         0.082193       0.033440
                          1       3    3py              10.068468       0.155326
                                                         2.680223       0.367157
                                                         0.791502       0.311480
                                                         0.239116       0.080105
                                                         0.082193       0.033440
                          1       3    3pz              10.068468       0.155326
                                                         2.680223       0.367157
                                                         0.791502       0.311480
                                                         0.239116       0.080105
                                                         0.082193       0.033440

     GTH Potential information for                                    GTH-PBE-q1

       Description:                       Goedecker-Teter-Hutter pseudopotential
                                           Goedecker et al., PRB 54, 1703 (1996)
                                          Hartwigsen et al., PRB 58, 3641 (1998)
                                                      Krack, TCA 114, 145 (2005)

       Gaussian exponent of the core charge distribution:              12.500000
       Electronic configuration (s p d ...):                                   1

       Parameters of the local part of the GTH pseudopotential:

                          rloc        C1          C2          C3          C4
                        0.200000   -4.178900    0.724463

  5. Atomic kind: C                                     Number of atoms:       2

     Orbital Basis Set                                     DZVP-MOLOPT-SR-GTH-q4

       Number of orbital shell sets:                                           1
       Number of orbital shells:                                               5
       Number of primitive Cartesian functions:                                5
       Number of Cartesian basis functions:                                   14
       Number of spherical basis functions:                                   13
       Norm type:                                                              2

       Normalised Cartesian orbitals:

                        Set   Shell   Orbital            Exponent    Coefficient

                          1       1    2s                5.605331       0.322515
                                                         2.113016       0.213043
                                                         0.769911      -0.209686
                                                         0.348157      -0.219794
                                                         0.128212      -0.022789

                          1       2    3s                5.605331       0.552234
                                                         2.113016       0.082072
                                                         0.769911       0.007843
                                                         0.348157       0.136893
                                                         0.128212       0.074283

                          1       3    3px               5.605331      -0.703879
                                                         2.113016      -0.642521
                                                         0.769911      -0.374851
                                                         0.348157      -0.139743
                                                         0.128212      -0.027849
                          1       3    3py               5.605331      -0.703879
                                                         2.113016      -0.642521
                                                         0.769911      -0.374851
                                                         0.348157      -0.139743
                                                         0.128212      -0.027849
                          1       3    3pz               5.605331      -0.703879
                                                         2.113016      -0.642521
                                                         0.769911      -0.374851
                                                         0.348157      -0.139743
                                                         0.128212      -0.027849

                          1       4    4px               5.605331      -0.480376
                                                         2.113016      -0.552894
                                                         0.769911      -0.316145
                                                         0.348157       0.210505
                                                         0.128212       0.076095
                          1       4    4py               5.605331      -0.480376
                                                         2.113016      -0.552894
                                                         0.769911      -0.316145
                                                         0.348157       0.210505
                                                         0.128212       0.076095
                          1       4    4pz               5.605331      -0.480376
                                                         2.113016      -0.552894
                                                         0.769911      -0.316145
                                                         0.348157       0.210505
                                                         0.128212       0.076095

                          1       5    4dx2              5.605331       0.640026
                                                         2.113016       0.274300
                                                         0.769911       0.446711
                                                         0.348157       0.028674
                                                         0.128212       0.029790
                          1       5    4dxy              5.605331       1.108557
                                                         2.113016       0.475102
                                                         0.769911       0.773726
                                                         0.348157       0.049666
                                                         0.128212       0.051599
                          1       5    4dxz              5.605331       1.108557
                                                         2.113016       0.475102
                                                         0.769911       0.773726
                                                         0.348157       0.049666
                                                         0.128212       0.051599
                          1       5    4dy2              5.605331       0.640026
                                                         2.113016       0.274300
                                                         0.769911       0.446711
                                                         0.348157       0.028674
                                                         0.128212       0.029790
                          1       5    4dyz              5.605331       1.108557
                                                         2.113016       0.475102
                                                         0.769911       0.773726
                                                         0.348157       0.049666
                                                         0.128212       0.051599
                          1       5    4dz2              5.605331       0.640026
                                                         2.113016       0.274300
                                                         0.769911       0.446711
                                                         0.348157       0.028674
                                                         0.128212       0.029790

     GTH Potential information for                                    GTH-PBE-q4

       Description:                       Goedecker-Teter-Hutter pseudopotential
                                           Goedecker et al., PRB 54, 1703 (1996)
                                          Hartwigsen et al., PRB 58, 3641 (1998)
                                                      Krack, TCA 114, 145 (2005)

       Gaussian exponent of the core charge distribution:               4.364419
       Electronic configuration (s p d ...):                               2   2

       Parameters of the local part of the GTH pseudopotential:

                          rloc        C1          C2          C3          C4
                        0.338471   -8.803674    1.339211

       Parameters of the non-local part of the GTH pseudopotential:

                   l      r(l)      h(i,j,l)

                   0    0.302576    9.622487
                   1    0.291507


 MOLECULE KIND INFORMATION


 All atoms are their own molecule, skipping detailed information


 TOTAL NUMBERS AND MAXIMUM NUMBERS

  Total number of            - Atomic kinds:                                   5
                             - Atoms:                                        212
                             - Shell sets:                                   212
                             - Shells:                                      1244
                             - Primitive Cartesian functions:               1160
                             - Cartesian basis functions:                   4496
                             - Spherical basis functions:                   3892

  Maximum angular momentum of- Orbital basis functions:                        3
                             - Local part of the GTH pseudopotential:          2
                             - Non-local part of the GTH pseudopotential:      4


 MODULE QUICKSTEP:  ATOMIC COORDINATES IN angstrom

  Atom  Kind  Element       X           Y           Z          Z(eff)       Mass

       1     1 N    7    0.077719    1.976661    2.489164      5.00      14.0067
       2     2 Ga  31    0.060440    0.005474    2.821898     13.00      69.7230
       3     1 N    7    0.082436   -0.025810    5.014722      5.00      14.0067
       4     2 Ga  31    0.080973    1.798993    5.798046     13.00      69.7230
       5     1 N    7    0.080037    1.814735    7.800830      5.00      14.0067
       6     2 Ga  31    0.077344   -0.030282    8.443592     13.00      69.7230
       7     1 N    7    0.079160   -0.030964   10.419672      5.00      14.0067
       8     2 Ga  31    0.079169    1.808327   11.071009     13.00      69.7230
       9     1 N    7    0.079661    1.789694   13.065939      5.00      14.0067
      10     2 Ga  31    0.079475   -0.029996   13.878275     13.00      69.7230
      11     1 N    7    0.079451   -0.029991   16.069730      5.00      14.0067
      12     2 Ga  31    0.079510    2.016436   16.494049     13.00      69.7230
      13     2 Ga  31    0.044635    3.684765    1.366789     13.00      69.7230
      14     1 N    7   -1.408689    4.547828    2.529358      5.00      14.0067
      15     2 Ga  31   -1.601824    2.702992    3.280365     13.00      69.7230
      16     1 N    7   -1.529870    2.753150    5.258548      5.00      14.0067
      17     2 Ga  31   -1.558377    4.618460    5.807652     13.00      69.7230
      18     1 N    7   -1.539132    4.617931    7.803613      5.00      14.0067
      19     2 Ga  31   -1.519551    2.756808    8.435025     13.00      69.7230
      20     1 N    7   -1.517703    2.760672   10.431653      5.00      14.0067
      21     2 Ga  31   -1.542730    4.618812   11.069253     13.00      69.7230
      22     1 N    7   -1.558506    4.630002   13.062039      5.00      14.0067
      23     2 Ga  31   -1.516963    2.761874   13.622502     13.00      69.7230
      24     1 N    7   -1.550868    2.750045   15.582088      5.00      14.0067
      25     2 Ga  31   -1.349355    4.511095   16.495576     13.00      69.7230
      26     1 N    7    0.079325    3.672943   17.638209      5.00      14.0067
      27     1 N    7   -3.131543    7.518014    2.531580      5.00      14.0067
      28     2 Ga  31   -3.110874    5.514035    2.853101     13.00      69.7230
      29     1 N    7   -3.136704    5.540746    5.023458      5.00      14.0067
      30     2 Ga  31   -3.143954    7.361269    5.808152     13.00      69.7230
      31     1 N    7   -3.136140    7.386351    7.800068      5.00      14.0067
      32     2 Ga  31   -3.136985    5.539188    8.449128     13.00      69.7230
      33     1 N    7   -3.136976    5.540920   10.422516      5.00      14.0067
      34     2 Ga  31   -3.137866    7.381231   11.070712     13.00      69.7230
      35     1 N    7   -3.136151    7.362599   13.062726      5.00      14.0067
      36     2 Ga  31   -3.126866    5.545879   13.861194     13.00      69.7230
      37     1 N    7   -3.125095    5.547147   16.068951      5.00      14.0067
      38     2 Ga  31   -3.134121    7.602961   16.496405     13.00      69.7230
      39     2 Ga  31   -3.149643    9.253419    1.501136     13.00      69.7230
      40     1 N    7   -4.639566   10.121906    2.516643      5.00      14.0067
      41     2 Ga  31   -4.857097    8.271351    3.290200     13.00      69.7230
      42     1 N    7   -4.743905    8.326397    5.251923      5.00      14.0067
      43     2 Ga  31   -4.776246   10.201268    5.798977     13.00      69.7230
      44     1 N    7   -4.754446   10.187812    7.797382      5.00      14.0067
      45     2 Ga  31   -4.737970    8.332520    8.436690     13.00      69.7230
      46     1 N    7   -4.734078    8.332398   10.431123      5.00      14.0067
      47     2 Ga  31   -4.760879   10.191525   11.072063     13.00      69.7230
      48     1 N    7   -4.776369   10.200994   13.066394      5.00      14.0067
      49     2 Ga  31   -4.732897    8.332507   13.623759     13.00      69.7230
      50     1 N    7   -4.760235    8.308878   15.583022      5.00      14.0067
      51     2 Ga  31   -4.580132   10.087653   16.494808     13.00      69.7230
      52     1 N    7   -3.145756    9.259313   17.639505      5.00      14.0067
      53     1 N    7    3.284583    1.831390    2.617592      5.00      14.0067
      54     2 Ga  31    3.286565    0.091746    3.288493     13.00      69.7230
      55     1 N    7    3.296495   -0.033490    5.251445      5.00      14.0067
      56     2 Ga  31    3.287262    1.828709    5.873611     13.00      69.7230
      57     1 N    7    3.295793    1.825163    7.851152      5.00      14.0067
      58     2 Ga  31    3.292967   -0.040674    8.439334     13.00      69.7230
      59     1 N    7    3.295010   -0.042790   10.433082      5.00      14.0067
      60     2 Ga  31    3.295223    1.826520   11.027360     13.00      69.7230
      61     1 N    7    3.298206    1.827883   13.001281      5.00      14.0067
      62     2 Ga  31    3.296065   -0.043712   13.624125     13.00      69.7230
      63     1 N    7    3.302647   -0.007532   15.583502      5.00      14.0067
      64     2 Ga  31    3.294244    1.826264   15.863710     13.00      69.7230
      65     1 N    7    1.568612    4.549409    2.516987      5.00      14.0067
      66     2 Ga  31    1.755071    2.717026    3.265993     13.00      69.7230
      67     1 N    7    1.688401    2.753837    5.251097      5.00      14.0067
      68     2 Ga  31    1.719661    4.618093    5.808432     13.00      69.7230
      69     1 N    7    1.697166    4.616688    7.805087      5.00      14.0067
      70     2 Ga  31    1.676962    2.757903    8.438874     13.00      69.7230
      71     1 N    7    1.677008    2.760312   10.433964      5.00      14.0067
      72     2 Ga  31    1.702073    4.619446   11.069030     13.00      69.7230
      73     1 N    7    1.718048    4.630211   13.062028      5.00      14.0067
      74     2 Ga  31    1.675900    2.762357   13.623130     13.00      69.7230
      75     1 N    7    1.710363    2.749926   15.582638      5.00      14.0067
      76     2 Ga  31    1.508926    4.511035   16.496099     13.00      69.7230
      77     1 N    7    0.081461    7.379529    2.696573      5.00      14.0067
      78     2 Ga  31    0.088357    5.538466    3.337918     13.00      69.7230
      79     1 N    7    0.079793    5.552524    5.275248      5.00      14.0067
      80     2 Ga  31    0.087440    7.394103    5.905802     13.00      69.7230
      81     1 N    7    0.080053    7.398282    7.864843      5.00      14.0067
      82     2 Ga  31    0.079667    5.524988    8.443977     13.00      69.7230
      83     1 N    7    0.079289    5.527812   10.434487      5.00      14.0067
      84     2 Ga  31    0.080160    7.397192   11.028186     13.00      69.7230
      85     1 N    7    0.079561    7.397574   12.997748      5.00      14.0067
      86     2 Ga  31    0.079826    5.528710   13.622672     13.00      69.7230
      87     1 N    7    0.079850    5.560425   15.580819      5.00      14.0067
      88     2 Ga  31    0.080263    7.397684   15.859864     13.00      69.7230
      89     1 N    7   -1.631683   10.110236    2.524347      5.00      14.0067
      90     2 Ga  31   -1.487473    8.296947    3.336088     13.00      69.7230
      91     1 N    7   -1.516806    8.318005    5.263315      5.00      14.0067
      92     2 Ga  31   -1.503521   10.203936    5.810584     13.00      69.7230
      93     1 N    7   -1.519898   10.186008    7.801785      5.00      14.0067
      94     2 Ga  31   -1.540435    8.331879    8.446429     13.00      69.7230
      95     1 N    7   -1.540044    8.331902   10.434822      5.00      14.0067
      96     2 Ga  31   -1.514885   10.191232   11.070345     13.00      69.7230
      97     1 N    7   -1.497656   10.199838   13.062521      5.00      14.0067
      98     2 Ga  31   -1.538581    8.331868   13.623236     13.00      69.7230
      99     1 N    7   -1.511133    8.316065   15.581101      5.00      14.0067
     100     2 Ga  31   -1.705265   10.078052   16.496898     13.00      69.7230
     101     1 N    7    6.509690    1.949494    2.538404      5.00      14.0067
     102     2 Ga  31    6.529097   -0.031683    2.863181     13.00      69.7230
     103     1 N    7    6.507124   -0.030589    5.025930      5.00      14.0067
     104     2 Ga  31    6.509906    1.799197    5.805124     13.00      69.7230
     105     1 N    7    6.510804    1.814611    7.802376      5.00      14.0067
     106     2 Ga  31    6.513543   -0.031175    8.446234     13.00      69.7230
     107     1 N    7    6.511927   -0.030915   10.420620      5.00      14.0067
     108     2 Ga  31    6.512314    1.808869   11.068123     13.00      69.7230
     109     1 N    7    6.512066    1.788093   13.068791      5.00      14.0067
     110     2 Ga  31    6.512404   -0.041032   13.861784     13.00      69.7230
     111     1 N    7    6.512063   -0.042882   16.069039      5.00      14.0067
     112     2 Ga  31    6.512431    1.957753   16.433741     13.00      69.7230
     113     2 Ga  31    6.514849    3.681605    1.534459     13.00      69.7230
     114     1 N    7    5.008618    4.548547    2.531076      5.00      14.0067
     115     2 Ga  31    4.791882    2.697588    3.298027     13.00      69.7230
     116     1 N    7    4.900690    2.753792    5.259310      5.00      14.0067
     117     2 Ga  31    4.876314    4.626703    5.804828     13.00      69.7230
     118     1 N    7    4.894361    4.616875    7.802839      5.00      14.0067
     119     2 Ga  31    4.911943    2.759555    8.438997     13.00      69.7230
     120     1 N    7    4.914914    2.761489   10.435218      5.00      14.0067
     121     2 Ga  31    4.888446    4.621455   11.068196     13.00      69.7230
     122     1 N    7    4.870703    4.631570   13.068980      5.00      14.0067
     123     2 Ga  31    4.914787    2.761508   13.614032     13.00      69.7230
     124     1 N    7    4.897956    2.751779   15.592482      5.00      14.0067
     125     2 Ga  31    5.017419    4.547038   16.433528     13.00      69.7230
     126     1 N    7    6.511886    3.683661   17.554754      5.00      14.0067
     127     1 N    7    3.292275    7.510595    2.502061      5.00      14.0067
     128     1 N    7    3.295079    5.537588    5.030133      5.00      14.0067
     129     2 Ga  31    3.299522    7.365120    5.795484     13.00      69.7230
     130     1 N    7    3.293590    7.387447    7.794596      5.00      14.0067
     131     2 Ga  31    3.295608    5.541645    8.446064     13.00      69.7230
     132     1 N    7    3.295821    5.541324   10.421117      5.00      14.0067
     133     2 Ga  31    3.297385    7.381667   11.069219     13.00      69.7230
     134     1 N    7    3.295682    7.362723   13.061964      5.00      14.0067
     135     2 Ga  31    3.286349    5.546428   13.861272     13.00      69.7230
     136     1 N    7    3.284554    5.547299   16.069403      5.00      14.0067
     137     2 Ga  31    3.294058    7.603970   16.497620     13.00      69.7230
     138     2 Ga  31    3.331344    9.275196    1.323178     13.00      69.7230
     139     1 N    7    1.784441   10.117442    2.506041      5.00      14.0067
     140     2 Ga  31    1.680588    8.312821    3.289386     13.00      69.7230
     141     1 N    7    1.673931    8.316829    5.238281      5.00      14.0067
     142     2 Ga  31    1.664505   10.197915    5.795906     13.00      69.7230
     143     1 N    7    1.677095   10.184717    7.794187      5.00      14.0067
     144     2 Ga  31    1.701060    8.332979    8.444283     13.00      69.7230
     145     1 N    7    1.699215    8.332358   10.433930      5.00      14.0067
     146     2 Ga  31    1.675022   10.191531   11.069267     13.00      69.7230
     147     1 N    7    1.657404   10.199890   13.061893      5.00      14.0067
     148     2 Ga  31    1.698115    8.331794   13.622757     13.00      69.7230
     149     1 N    7    1.671207    8.316257   15.580597      5.00      14.0067
     150     2 Ga  31    1.865790   10.077794   16.497581     13.00      69.7230
     151     1 N    7    3.304852    9.259582   17.641584      5.00      14.0067
     152     1 N    7    9.736994    1.824448    2.629645      5.00      14.0067
     153     2 Ga  31    9.731106    0.060994    3.258449     13.00      69.7230
     154     1 N    7    9.724293   -0.034337    5.240709      5.00      14.0067
     155     2 Ga  31    9.733148    1.819570    5.867674     13.00      69.7230
     156     1 N    7    9.726625    1.824496    7.848190      5.00      14.0067
     157     2 Ga  31    9.729904   -0.042579    8.431387     13.00      69.7230
     158     1 N    7    9.728265   -0.043218   10.428764      5.00      14.0067
     159     2 Ga  31    9.728731    1.825740   11.024255     13.00      69.7230
     160     1 N    7    9.725575    1.827833   12.999030      5.00      14.0067
     161     2 Ga  31    9.728133   -0.043401   13.623399     13.00      69.7230
     162     1 N    7    9.721577   -0.007494   15.582628      5.00      14.0067
     163     2 Ga  31    9.730073    1.826011   15.863668     13.00      69.7230
     164     1 N    7    8.013326    4.549399    2.539772      5.00      14.0067
     165     2 Ga  31    8.230735    2.689828    3.300778     13.00      69.7230
     166     1 N    7    8.119483    2.753333    5.261380      5.00      14.0067
     167     2 Ga  31    8.143069    4.625655    5.802318     13.00      69.7230
     168     1 N    7    8.129559    4.617977    7.800458      5.00      14.0067
     169     2 Ga  31    8.111809    2.759071    8.435711     13.00      69.7230
     170     1 N    7    8.108622    2.761665   10.433194      5.00      14.0067
     171     2 Ga  31    8.134684    4.620527   11.068583     13.00      69.7230
     172     1 N    7    8.153131    4.631371   13.068987      5.00      14.0067
     173     2 Ga  31    8.109516    2.761294   13.613536     13.00      69.7230
     174     1 N    7    8.126526    2.751748   15.591899      5.00      14.0067
     175     2 Ga  31    8.006537    4.546511   16.433374     13.00      69.7230
     176     1 N    7    6.505835    7.398810    2.610999      5.00      14.0067
     177     2 Ga  31    6.505134    5.662243    3.296275     13.00      69.7230
     178     1 N    7    6.510290    5.542072    5.257346      5.00      14.0067
     179     2 Ga  31    6.503833    7.401823    5.869458     13.00      69.7230
     180     1 N    7    6.510937    7.397511    7.846613      5.00      14.0067
     181     2 Ga  31    6.511628    5.530418    8.436950     13.00      69.7230
     182     1 N    7    6.511978    5.528173   10.433594      5.00      14.0067
     183     2 Ga  31    6.511326    7.398642   11.025397     13.00      69.7230
     184     1 N    7    6.511862    7.395128   12.999834      5.00      14.0067
     185     2 Ga  31    6.511989    5.528608   13.614035     13.00      69.7230
     186     1 N    7    6.512223    5.548385   15.592368      5.00      14.0067
     187     2 Ga  31    6.511960    7.399895   15.864395     13.00      69.7230
     188     1 N    7    4.803762   10.124996    2.511200      5.00      14.0067
     189     2 Ga  31    4.979499    8.281140    3.255043     13.00      69.7230
     190     1 N    7    4.900922    8.324750    5.237478      5.00      14.0067
     191     2 Ga  31    4.929435   10.197626    5.783601     13.00      69.7230
     192     1 N    7    4.913900   10.187758    7.789833      5.00      14.0067
     193     2 Ga  31    4.893703    8.334029    8.432158     13.00      69.7230
     194     1 N    7    4.893266    8.332426   10.428858      5.00      14.0067
     195     2 Ga  31    4.918560   10.191122   11.070402     13.00      69.7230
     196     1 N    7    4.935663   10.200971   13.065389      5.00      14.0067
     197     2 Ga  31    4.892101    8.332788   13.623656     13.00      69.7230
     198     1 N    7    4.920044    8.309132   15.582693      5.00      14.0067
     199     2 Ga  31    4.738421   10.087218   16.495835     13.00      69.7230
     200     3 O    8    0.010556    4.089027   -0.429510      6.00      15.9994
     201     4 H    1   -0.188635    5.875416   -0.342202      1.00       1.0079
     202     5 C    6    1.125131    3.635239   -1.220671      4.00      12.0107
     203     4 H    1    2.093121    3.939727   -0.790231      1.00       1.0079
     204     4 H    1    1.119916    2.539653   -1.326921      1.00       1.0079
     205     4 H    1    1.030071    4.080904   -2.221017      1.00       1.0079
     206     2 Ga  31    3.265805    5.534637    2.851841     13.00      69.7230
     207     3 O    8   -0.190403    6.860634   -0.199001      6.00      15.9994
     208     4 H    1    0.031080    7.309134    1.659319      1.00       1.0079
     209     5 C    6    6.438704    7.362423    0.981088      4.00      12.0107
     210     4 H    1    6.350549    8.317849    0.445603      1.00       1.0079
     211     4 H    1    7.340771    6.842887    0.617195      1.00       1.0079
     212     4 H    1    5.555385    6.750207    0.743269      1.00       1.0079




 SCF PARAMETERS         Density guess:                                    ATOMIC
                        --------------------------------------------------------
                        max_scf:                                              80
                        max_scf_history:                                       0
                        max_diis:                                              4
                        --------------------------------------------------------
                        eps_scf:                                        5.00E-06
                        eps_scf_history:                                0.00E+00
                        eps_diis:                                       1.00E-01
                        eps_eigval:                                     1.00E-05
                        --------------------------------------------------------
                        level_shift [a.u.]:                                 0.00
                        --------------------------------------------------------
                        Outer loop SCF in use 
                        No variables optimised in outer loop
                        eps_scf                                         5.00E-06
                        max_scf                                                4
                        No outer loop optimization
                        step_size                                       5.00E-01

 PW_GRID| Information for grid number                                          1
 PW_GRID| Grid distributed over                                    80 processors
 PW_GRID| Real space group dimensions                                    80    1
 PW_GRID| the grid is blocked:                                                NO
 PW_GRID| Cutoff [a.u.]                                                    600.0
 PW_GRID| spherical cutoff:                                                   NO
 PW_GRID|   Bounds   1           -144     143                Points:         288
 PW_GRID|   Bounds   2           -144     143                Points:         288
 PW_GRID|   Bounds   3           -337     337                Points:         675
 PW_GRID| Volume element (a.u.^3)  0.5630E-03     Volume (a.u.^3)     31519.8467
 PW_GRID| Grid span                                                    FULLSPACE
 PW_GRID|   Distribution                         Average         Max         Min
 PW_GRID|   G-Vectors                           699840.0      699840      699840
 PW_GRID|   G-Rays                                2430.0        2430        2430
 PW_GRID|   Real Space Points                   699840.0      777600      583200

 PW_GRID| Information for grid number                                          2
 PW_GRID| Grid distributed over                                    80 processors
 PW_GRID| Real space group dimensions                                    80    1
 PW_GRID| the grid is blocked:                                                NO
 PW_GRID| Cutoff [a.u.]                                                    200.0
 PW_GRID| spherical cutoff:                                                   NO
 PW_GRID|   Bounds   1            -80      79                Points:         160
 PW_GRID|   Bounds   2            -80      79                Points:         160
 PW_GRID|   Bounds   3           -200     199                Points:         400
 PW_GRID| Volume element (a.u.^3)  0.3078E-02     Volume (a.u.^3)     31519.8467
 PW_GRID| Grid span                                                    FULLSPACE
 PW_GRID|   Distribution                         Average         Max         Min
 PW_GRID|   G-Vectors                           128000.0      128160      127840
 PW_GRID|   G-Rays                                 800.0         801         799
 PW_GRID|   Real Space Points                   128000.0      128000      128000

 PW_GRID| Information for grid number                                          3
 PW_GRID| Grid distributed over                                    80 processors
 PW_GRID| Real space group dimensions                                    80    1
 PW_GRID| the grid is blocked:                                                NO
 PW_GRID| Cutoff [a.u.]                                                     66.7
 PW_GRID| spherical cutoff:                                                   NO
 PW_GRID|   Bounds   1            -48      47                Points:          96
 PW_GRID|   Bounds   2            -48      47                Points:          96
 PW_GRID|   Bounds   3           -112     112                Points:         225
 PW_GRID| Volume element (a.u.^3)  0.1520E-01     Volume (a.u.^3)     31519.8467
 PW_GRID| Grid span                                                    FULLSPACE
 PW_GRID|   Distribution                         Average         Max         Min
 PW_GRID|   G-Vectors                            25920.0       26688       24864
 PW_GRID|   G-Rays                                 270.0         278         259
 PW_GRID|   Real Space Points                    25920.0       43200       21600

 PW_GRID| Information for grid number                                          4
[...]
     16       N      1       5.000    2.053   2.053            0.000      0.894
     17       Ga     2      13.000    6.939   6.938            0.001     -0.877
     18       N      1       5.000    2.061   2.061            0.000      0.878
     19       Ga     2      13.000    6.938   6.937            0.001     -0.874
     20       N      1       5.000    2.062   2.062            0.000      0.876
     21       Ga     2      13.000    6.939   6.938            0.001     -0.877
     22       N      1       5.000    2.061   2.061            0.000      0.878
     23       Ga     2      13.000    6.949   6.949            0.000     -0.899
     24       N      1       5.000    2.051   2.053           -0.002      0.896
     25       Ga     2      13.000    6.906   6.906            0.000     -0.812
     26       N      1       5.000    2.227   2.249           -0.021      0.524
     27       N      1       5.000    2.091   2.091            0.000      0.817
     28       Ga     2      13.000    6.921   6.919            0.001     -0.840
     29       N      1       5.000    2.094   2.093            0.001      0.812
     30       Ga     2      13.000    6.935   6.935            0.001     -0.870
     31       N      1       5.000    2.061   2.060            0.000      0.879
     32       Ga     2      13.000    6.949   6.948            0.001     -0.898
     33       N      1       5.000    2.052   2.052            0.000      0.897
     34       Ga     2      13.000    6.938   6.938            0.001     -0.876
     35       N      1       5.000    2.061   2.060            0.000      0.879
     36       Ga     2      13.000    6.874   6.872            0.001     -0.746
     37       N      1       5.000    2.138   2.137            0.001      0.725
     38       Ga     2      13.000    6.906   6.906            0.000     -0.812
     39       Ga     2      13.000    6.924   6.921            0.002     -0.845
     40       N      1       5.000    2.131   2.132           -0.000      0.737
     41       Ga     2      13.000    7.014   7.014            0.000     -1.028
     42       N      1       5.000    2.053   2.053            0.000      0.895
     43       Ga     2      13.000    6.945   6.942            0.003     -0.887
     44       N      1       5.000    2.061   2.061            0.001      0.878
     45       Ga     2      13.000    6.939   6.938            0.001     -0.876
     46       N      1       5.000    2.062   2.061            0.000      0.877
     47       Ga     2      13.000    6.939   6.938            0.001     -0.877
     48       N      1       5.000    2.058   2.058            0.000      0.884
     49       Ga     2      13.000    6.949   6.949            0.000     -0.898
     50       N      1       5.000    2.051   2.053           -0.002      0.897
     51       Ga     2      13.000    6.916   6.915            0.001     -0.831
     52       N      1       5.000    2.226   2.250           -0.023      0.524
     53       N      1       5.000    2.121   2.120            0.000      0.759
     54       Ga     2      13.000    6.977   6.977            0.000     -0.954
     55       N      1       5.000    2.058   2.057            0.000      0.885
     56       Ga     2      13.000    6.934   6.933            0.001     -0.867
     57       N      1       5.000    2.058   2.058            0.000      0.884
     58       Ga     2      13.000    6.939   6.938            0.001     -0.877
     59       N      1       5.000    2.061   2.061            0.000      0.878
     60       Ga     2      13.000    6.947   6.946            0.000     -0.893
     61       N      1       5.000    2.063   2.063           -0.000      0.875
     62       Ga     2      13.000    6.949   6.949            0.000     -0.898
     63       N      1       5.000    2.050   2.050           -0.000      0.900
     64       Ga     2      13.000    6.860   6.860            0.000     -0.720
     65       N      1       5.000    2.101   2.101            0.000      0.799
     66       Ga     2      13.000    6.971   6.971            0.000     -0.942
     67       N      1       5.000    2.054   2.054            0.000      0.892
     68       Ga     2      13.000    6.940   6.937            0.003     -0.877
     69       N      1       5.000    2.062   2.061            0.001      0.876
     70       Ga     2      13.000    6.939   6.938            0.001     -0.876
     71       N      1       5.000    2.062   2.062            0.000      0.876
     72       Ga     2      13.000    6.940   6.940            0.001     -0.880
     73       N      1       5.000    2.059   2.059            0.000      0.882
     74       Ga     2      13.000    6.950   6.949            0.000     -0.899
     75       N      1       5.000    2.050   2.050           -0.000      0.899
     76       Ga     2      13.000    6.914   6.913            0.001     -0.827
     77       N      1       5.000    2.246   2.246           -0.000      0.508
     78       Ga     2      13.000    6.980   6.980            0.000     -0.960
     79       N      1       5.000    2.054   2.053            0.000      0.893
     80       Ga     2      13.000    6.950   6.948            0.002     -0.898
     81       N      1       5.000    2.055   2.054            0.001      0.892
     82       Ga     2      13.000    6.940   6.939            0.001     -0.878
     83       N      1       5.000    2.061   2.061            0.000      0.877
     84       Ga     2      13.000    6.945   6.944            0.000     -0.889
     85       N      1       5.000    2.062   2.065           -0.002      0.873
     86       Ga     2      13.000    6.950   6.950            0.000     -0.900
     87       N      1       5.000    2.051   2.053           -0.002      0.897
     88       Ga     2      13.000    6.855   6.858           -0.003     -0.714
     89       N      1       5.000    2.080   2.080           -0.000      0.840
     90       Ga     2      13.000    6.961   6.961            0.000     -0.922
     91       N      1       5.000    2.045   2.045            0.000      0.910
     92       Ga     2      13.000    6.942   6.939            0.003     -0.880
     93       N      1       5.000    2.061   2.060            0.001      0.878
     94       Ga     2      13.000    6.937   6.936            0.001     -0.874
     95       N      1       5.000    2.062   2.061            0.000      0.877
     96       Ga     2      13.000    6.939   6.938            0.001     -0.878
     97       N      1       5.000    2.058   2.058            0.000      0.883
     98       Ga     2      13.000    6.949   6.949            0.000     -0.899
     99       N      1       5.000    2.051   2.053           -0.002      0.897
    100       Ga     2      13.000    6.915   6.914            0.001     -0.829
    101       N      1       5.000    2.096   2.094            0.002      0.809
    102       Ga     2      13.000    6.900   6.888            0.012     -0.788
    103       N      1       5.000    2.103   2.092            0.011      0.805
    104       Ga     2      13.000    6.949   6.946            0.003     -0.894
    105       N      1       5.000    2.061   2.060            0.001      0.879
    106       Ga     2      13.000    6.949   6.948            0.001     -0.898
    107       N      1       5.000    2.052   2.052            0.000      0.895
    108       Ga     2      13.000    6.940   6.939            0.001     -0.879
    109       N      1       5.000    2.058   2.058            0.000      0.884
    110       Ga     2      13.000    6.875   6.873            0.002     -0.748
    111       N      1       5.000    2.133   2.130            0.002      0.737
    112       Ga     2      13.000    6.914   6.914            0.000     -0.827
    113       Ga     2      13.000    6.764   6.741            0.023     -0.505
    114       N      1       5.000    2.106   2.103            0.002      0.791
    115       Ga     2      13.000    6.956   6.955            0.001     -0.911
    116       N      1       5.000    2.053   2.053            0.000      0.894
    117       Ga     2      13.000    6.944   6.941            0.003     -0.885
    118       N      1       5.000    2.061   2.060            0.001      0.879
    119       Ga     2      13.000    6.940   6.939            0.001     -0.878
    120       N      1       5.000    2.062   2.062            0.000      0.877
    121       Ga     2      13.000    6.940   6.939            0.001     -0.880
    122       N      1       5.000    2.058   2.058            0.000      0.883
    123       Ga     2      13.000    6.950   6.949            0.000     -0.899
    124       N      1       5.000    2.050   2.050           -0.000      0.900
    125       Ga     2      13.000    6.914   6.914            0.000     -0.828
    126       N      1       5.000    2.224   2.248           -0.023      0.528
    127       N      1       5.000    2.147   2.075            0.072      0.777
    128       N      1       5.000    2.104   2.093            0.010      0.803
    129       Ga     2      13.000    6.940   6.936            0.003     -0.876
    130       N      1       5.000    2.063   2.061            0.002      0.876
    131       Ga     2      13.000    6.949   6.948            0.001     -0.897
    132       N      1       5.000    2.053   2.053            0.000      0.894
    133       Ga     2      13.000    6.939   6.938            0.001     -0.877
    134       N      1       5.000    2.062   2.062            0.000      0.877
    135       Ga     2      13.000    6.875   6.873            0.002     -0.748
    136       N      1       5.000    2.133   2.130            0.002      0.737
    137       Ga     2      13.000    6.908   6.938           -0.030     -0.846
    138       Ga     2      13.000    6.951   6.502            0.450     -0.453
    139       N      1       5.000    2.139   2.055            0.084      0.806
    140       Ga     2      13.000    6.988   6.976            0.012     -0.964
    141       N      1       5.000    2.059   2.051            0.008      0.891
    142       Ga     2      13.000    6.943   6.940            0.003     -0.883
    143       N      1       5.000    2.063   2.061            0.002      0.877
    144       Ga     2      13.000    6.939   6.938            0.001     -0.877
    145       N      1       5.000    2.062   2.061            0.001      0.877
    146       Ga     2      13.000    6.939   6.938            0.001     -0.877
    147       N      1       5.000    2.062   2.062            0.000      0.876
    148       Ga     2      13.000    6.945   6.948           -0.003     -0.893
    149       N      1       5.000    2.036   2.066           -0.029      0.898
    150       Ga     2      13.000    6.908   6.939           -0.030     -0.847
    151       N      1       5.000    1.883   2.568           -0.685      0.549
    152       N      1       5.000    2.121   2.120            0.000      0.759
    153       Ga     2      13.000    6.969   6.957            0.012     -0.926
    154       N      1       5.000    2.058   2.051            0.008      0.891
    155       Ga     2      13.000    6.933   6.931            0.002     -0.865
    156       N      1       5.000    2.058   2.057            0.001      0.885
    157       Ga     2      13.000    6.938   6.936            0.001     -0.874
    158       N      1       5.000    2.063   2.062            0.001      0.875
    159       Ga     2      13.000    6.946   6.945            0.000     -0.891
    160       N      1       5.000    2.062   2.064           -0.002      0.875
    161       Ga     2      13.000    6.947   6.950           -0.003     -0.896
    162       N      1       5.000    2.035   2.065           -0.030      0.900
    163       Ga     2      13.000    6.856   6.859           -0.003     -0.715
    164       N      1       5.000    2.107   2.105            0.002      0.789
    165       Ga     2      13.000    6.956   6.955            0.001     -0.912
    166       N      1       5.000    2.052   2.052            0.000      0.896
    167       Ga     2      13.000    6.943   6.942            0.001     -0.884
    168       N      1       5.000    2.061   2.060            0.000      0.879
    169       Ga     2      13.000    6.939   6.938            0.001     -0.877
    170       N      1       5.000    2.062   2.062            0.000      0.876
    171       Ga     2      13.000    6.939   6.938            0.001     -0.877
    172       N      1       5.000    2.061   2.060            0.000      0.879
    173       Ga     2      13.000    6.951   6.951            0.000     -0.901
    174       N      1       5.000    2.050   2.052           -0.002      0.899
    175       Ga     2      13.000    6.906   6.906           -0.000     -0.811
    176       N      1       5.000    2.168   2.168           -0.000      0.664
    177       Ga     2      13.000    6.991   6.990            0.001     -0.981
    178       N      1       5.000    2.050   2.050            0.000      0.900
    179       Ga     2      13.000    6.946   6.944            0.002     -0.890
    180       N      1       5.000    2.056   2.055            0.001      0.890
    181       Ga     2      13.000    6.939   6.938            0.001     -0.878
    182       N      1       5.000    2.061   2.061            0.000      0.878
    183       Ga     2      13.000    6.946   6.946            0.000     -0.892
    184       N      1       5.000    2.061   2.064           -0.002      0.875
    185       Ga     2      13.000    6.951   6.951            0.000     -0.902
    186       N      1       5.000    2.049   2.052           -0.002      0.899
    187       Ga     2      13.000    6.856   6.859           -0.003     -0.715
    188       N      1       5.000    2.146   2.059            0.087      0.796
    189       Ga     2      13.000    7.005   6.992            0.013     -0.996
    190       N      1       5.000    2.058   2.049            0.008      0.893
    191       Ga     2      13.000    6.944   6.941            0.003     -0.884
    192       N      1       5.000    2.063   2.061            0.002      0.876
    193       Ga     2      13.000    6.939   6.938            0.001     -0.877
    194       N      1       5.000    2.062   2.062            0.001      0.876
    195       Ga     2      13.000    6.938   6.938            0.001     -0.876
    196       N      1       5.000    2.062   2.061            0.000      0.877
    197       Ga     2      13.000    6.946   6.949           -0.003     -0.896
    198       N      1       5.000    2.035   2.065           -0.030      0.900
    199       Ga     2      13.000    6.910   6.941           -0.031     -0.851
    200       O      3       6.000    3.013   3.012            0.001     -0.026
    201       H      4       1.000    0.215   0.215            0.000      0.571
    202       C      5       4.000    2.438   2.437            0.000     -0.875
    203       H      4       1.000    0.280   0.280            0.000      0.440
    204       H      4       1.000    0.281   0.281            0.000      0.438
    205       H      4       1.000    0.280   0.280            0.000      0.440
    206       Ga     2      13.000    6.931   6.920            0.012     -0.851
    207       O      3       6.000    3.126   3.126            0.001     -0.252
    208       H      4       1.000    0.229   0.229            0.000      0.542
    209       C      5       4.000    2.317   2.317            0.001     -0.634
    210       H      4       1.000    0.274   0.274            0.000      0.452
    211       H      4       1.000    0.276   0.276           -0.000      0.448
    212       H      4       1.000    0.275   0.275            0.000      0.450

  Total Charge                                                            0.002
 !-----------------------------------------------------------------------------!

 ENERGY| Total FORCE_EVAL ( QS ) energy (a.u.):            -8504.799083745836469


 --------  Informations at step =    49 ------------
  Optimization Method        =                 BFGS
  Total Energy               =     -8504.7990837458
  Real energy change         =        -0.0030614175
  Predicted change in energy =        -0.0018980589
  Scaling factor             =         0.7567317639
  Step size                  =         0.1962377957
  Trust radius               =         0.4724315332
  Decrease in energy         =                  YES
  Used time                  =              295.055

  Convergence check :
  Max. step size             =         0.1962377957
  Conv. limit for step size  =         0.0030000000
  Convergence in step size   =                   NO
  RMS step size              =         0.0136630008
  Conv. limit for RMS step   =         0.0015000000
  Convergence in RMS step    =                   NO
  Max. gradient              =         0.0194035298
  Conv. limit for gradients  =         0.0004500000
  Conv. for gradients        =                   NO
  RMS gradient               =         0.0014722095
  Conv. limit for RMS grad.  =         0.0003000000
  Conv. for gradients        =                   NO
 ---------------------------------------------------

 --------------------------
 OPTIMIZATION STEP:     50
 --------------------------

  Step is scaled; Scaling factor =  0.83458

 Spin 1

 Number of electrons:                                                        914
 Number of occupied orbitals:                                                914
 Number of molecular orbitals:                                               914

 Spin 2

 Number of electrons:                                                        914
 Number of occupied orbitals:                                                914
 Number of molecular orbitals:                                               914

 Number of orbital functions:                                               3892
 Number of independent orbital functions:                                   3892

 Parameters for the always stable predictor-corrector (ASPC) method:

  ASPC order: 3

  B(1) =   3.000000
  B(2) =  -3.428571
  B(3) =   1.928571
  B(4) =  -0.571429
  B(5) =   0.071429

 Parameters for the always stable predictor-corrector (ASPC) method:

  ASPC order: 3

  B(1) =   3.000000
  B(2) =  -3.428571
  B(3) =   1.928571
  B(4) =  -0.571429
  B(5) =   0.071429

 Extrapolation method: ASPC


 SCF WAVEFUNCTION OPTIMIZATION

  ----------------------------------- OT ---------------------------------------
  Minimizer      : CG                  : conjugate gradient
  Preconditioner : FULL_ALL            : diagonalization, state selective
  Precond_solver : DEFAULT
  Line search    : 2PNT                : 2 energies, one gradient
  stepsize       :    0.15000000                  energy_gap     :    0.08000000
  eps_taylor     :   0.10000E-15                  max_taylor     :             4
  ----------------------------------- OT ---------------------------------------

  Step     Update method      Time    Convergence         Total energy    Change
  ------------------------------------------------------------------------------
     1 OT CG       0.15E+00   29.9     0.00009636     -8504.7890076886 -8.50E+03
     2 OT LS       0.35E+00    9.0                    -8504.7968218119
     3 OT CG       0.35E+00   19.8     0.00008233     -8504.8007067967 -1.17E-02
     4 OT LS       0.12E+00    8.8                    -8504.7922300696
     5 OT CG       0.12E+00   19.7     0.00002729     -8504.8035640692 -2.86E-03
     6 OT LS       0.11E+00    8.3                    -8504.8038631735
     7 OT CG       0.11E+00   18.4     0.00001238     -8504.8038638903 -3.00E-04
     8 OT LS       0.17E+00    8.4                    -8504.8039458529
     9 OT CG       0.17E+00   19.8     0.00000818     -8504.8039559515 -9.21E-05
    10 OT LS       0.22E+00    8.9                    -8504.8040054612
