     212
 i =        1, E =     -8504.6898064324
  N         0.0774576245        1.9864844189        2.4869821913
 Ga         0.0637795536        0.0246242778        2.8308752119
  N         0.0817900990       -0.0294893442        5.0155765489
 Ga         0.0810790694        1.7994414967        5.7977304991
  N         0.0799457348        1.8131672879        7.7985312186
 Ga         0.0773064441       -0.0310383761        8.4436345112
  N         0.0790811139       -0.0319044513       10.4173654413
 Ga         0.0791314777        1.8080198785       11.0724663810
  N         0.0796643237        1.7900194192       13.0656963974
 Ga         0.0794415074       -0.0301413481       13.8796005731
  N         0.0792743805       -0.0302098907       16.0703279260
 Ga         0.0795470266        2.0140001892       16.4932860547
 Ga         0.0448795472        3.6994857847        1.3533243338
  N        -1.4034473587        4.5376230043        2.5401404008
 Ga        -1.6009842809        2.7015994032        3.2820980179
  N        -1.5304429017        2.7518322175        5.2594873668
 Ga        -1.5568787969        4.6183837470        5.8061079669
  N        -1.5405001998        4.6180799180        7.8014959476
 Ga        -1.5189904659        2.7567707601        8.4359390305
  N        -1.5176871178        2.7605946557       10.4301105455
 Ga        -1.5434542668        4.6188052774       11.0707445682
  N        -1.5591819144        4.6303079465       13.0614563631
 Ga        -1.5178055362        2.7619392773       13.6244255434
  N        -1.5474454923        2.7495200005       15.5828154373
 Ga        -1.3549844498        4.5128292947       16.4940420454
  N         0.0793809887        3.6735646643       17.6348224911
  N        -3.1465608942        7.5152341872        2.5229411712
 Ga        -3.0919390755        5.5075227854        2.8543803379
  N        -3.1399028017        5.5422640795        5.0228419046
 Ga        -3.1426532586        7.3600879777        5.8077641625
  N        -3.1400250649        7.3880463841        7.7963416296
 Ga        -3.1377024069        5.5395838200        8.4493191254
  N        -3.1380064175        5.5411827011       10.4202728831
 Ga        -3.1386744921        7.3809647225       11.0726693903
  N        -3.1364268123        7.3621155642       13.0619414630
 Ga        -3.1282168085        5.5452608779       13.8650771222
  N        -3.1356413311        5.5409865051       16.0667441936
 Ga        -3.1355972050        7.5972170490       16.4949267847
 Ga        -3.1243975560        9.2583322220        1.4780033055
  N        -4.6462406560       10.1142914396        2.4967569085
 Ga        -4.8225125278        8.2937835574        3.3000319318
  N        -4.7623612898        8.3163206119        5.2462863943
 Ga        -4.7771619494       10.2031175450        5.7995765988
  N        -4.7550437090       10.1842225414        7.7933675009
 Ga        -4.7365310119        8.3336933386        8.4438700999
  N        -4.7348983475        8.3320351491       10.4311914201
 Ga        -4.7610442210       10.1910769966       11.0740912395
  N        -4.7759798548       10.2004847441       13.0660837244
 Ga        -4.7335256127        8.3315259388       13.6258199781
  N        -4.7590656239        8.3122350392       15.5837144838
 Ga        -4.5821392336       10.0888897267       16.4943077297
  N        -3.1450377864        9.2589446223       17.6358746337
  N         3.2854612139        1.8307621756        2.6199980073
 Ga         3.2853699277        0.0893221451        3.2870028867
  N         3.2951394632       -0.0354908260        5.2500848417
 Ga         3.2870126047        1.8286611272        5.8742207843
  N         3.2959768398        1.8250634632        7.8499882662
 Ga         3.2921804691       -0.0409815767        8.4404969026
  N         3.2942032101       -0.0433166793       10.4314516967
 Ga         3.2954222920        1.8264933120       11.0282976551
  N         3.2967172724        1.8269745427       12.9984744707
 Ga         3.2964984167       -0.0430457681       13.6260382852
  N         3.3003400048       -0.0101230254       15.5841182626
 Ga         3.2920805977        1.8249993478       15.8652839391
  N         1.5628045793        4.5411077720        2.5266731423
 Ga         1.7543417951        2.7159535372        3.2672538753
  N         1.6888939277        2.7526214706        5.2515302325
 Ga         1.7183335358        4.6179007238        5.8068574726
  N         1.6985063254        4.6169107271        7.8028955424
 Ga         1.6763589728        2.7579112420        8.4396819823
  N         1.6768989295        2.7602801403       10.4324229595
 Ga         1.7028127631        4.6195177492       11.0705510375
  N         1.7187554600        4.6305106162       13.0614555295
 Ga         1.6767374975        2.7624384234       13.6251122701
  N         1.7070030748        2.7493415590       15.5833895663
 Ga         1.5146783322        4.5127799939       16.4944156138
  N         0.0815628744        7.3833202472        2.6845938086
 Ga         0.0873739336        5.5479560733        3.3293777894
  N         0.0799322712        5.5519658259        5.2706684138
 Ga         0.0875908560        7.3937412047        5.9017275019
  N         0.0802149629        7.3986527400        7.8615682759
 Ga         0.0796804866        5.5244800232        8.4441476148
  N         0.0792799949        5.5276911823       10.4333023544
 Ga         0.0802233107        7.3973260622       11.0297769531
  N         0.0796215574        7.3976696007       12.9985190211
 Ga         0.0798501276        5.5276324737       13.6246193970
  N         0.0798476691        5.5588082267       15.5826174894
 Ga         0.0802297529        7.3976074482       15.8594074168
  N        -1.6346960359       10.1116584072        2.5328985595
 Ga        -1.4849533234        8.2922115233        3.3287637503
  N        -1.5204460739        8.3191264527        5.2594345414
 Ga        -1.5015512976       10.2047628101        5.8107301149
  N        -1.5208671633       10.1859869932        7.8005307786
 Ga        -1.5409431207        8.3316100640        8.4470033554
  N        -1.5409036232        8.3316006142       10.4335971648
 Ga        -1.5149661453       10.1915980012       11.0719075107
  N        -1.4972423218       10.2001052025       13.0619339849
 Ga        -1.5395616303        8.3323136697       13.6253057791
  N        -1.5124651560        8.3168213986       15.5830430368
 Ga        -1.7009935702       10.0822538955       16.4952814822
  N         6.5098752705        1.9470563863        2.5426842686
 Ga         6.5273278947       -0.0353213575        2.8580075000
  N         6.5076035770       -0.0308836716        5.0216532440
 Ga         6.5098332116        1.7961940655        5.8057883415
  N         6.5108937563        1.8157341691        7.8010657353
 Ga         6.5135227480       -0.0310524157        8.4468475674
  N         6.5120313277       -0.0306768342       10.4192666017
 Ga         6.5123802346        1.8093379127       11.0698200202
  N         6.5120756172        1.7873707435       13.0659996143
 Ga         6.5124580604       -0.0395603434       13.8656550545
  N         6.5122836990       -0.0308915418       16.0669531942
 Ga         6.5123007436        1.9813571573       16.4480702871
 Ga         6.5150901709        3.6616223182        1.5137289597
  N         5.0113351656        4.5642447349        2.5164026025
 Ga         4.7936413480        2.7008511327        3.2948309565
  N         4.9021506899        2.7555568518        5.2568015368
 Ga         4.8739552193        4.6269374546        5.8052918087
  N         4.8977640030        4.6188644809        7.7993017948
 Ga         4.9119421265        2.7600501693        8.4407989438
  N         4.9149878245        2.7623596612       10.4337339739
 Ga         4.8889603810        4.6217514047       11.0704223459
  N         4.8701270131        4.6321391447       13.0661434456
 Ga         4.9141211568        2.7612053817       13.6130560123
  N         4.8892166510        2.7468437912       15.5823475044
 Ga         5.0379381561        4.5351887051       16.4480975829
  N         6.5119696893        3.6836083655       17.5766642721
  N         3.3067798538        7.5026781320        2.4963904131
  N         3.2979056650        5.5395852794        5.0296703739
 Ga         3.2979113019        7.3634999831        5.7959988984
  N         3.2973998680        7.3892486775        7.7909980896
 Ga         3.2963529140        5.5420635913        8.4461605664
  N         3.2968575567        5.5416887373       10.4187754893
 Ga         3.2982792083        7.3814631532       11.0712425260
  N         3.2959859982        7.3622118947       13.0610967888
 Ga         3.2877228728        5.5458479241       13.8652116899
  N         3.2952482276        5.5413641962       16.0671661362
 Ga         3.2954568684        7.5987336042       16.4962799010
 Ga         3.2968566471        9.2777980315        1.3084718142
  N         1.7870516287       10.1196994762        2.5130621752
 Ga         1.6775401395        8.3073088447        3.2810640493
  N         1.6783267088        8.3183071965        5.2335187488
 Ga         1.6623634298       10.1986691427        5.7968965881
  N         1.6782625812       10.1846798244        7.7932243768
 Ga         1.7016579741        8.3326601188        8.4450628214
  N         1.7001716020        8.3321230398       10.4327236552
 Ga         1.6752101396       10.1919081761       11.0709210008
  N         1.6569982809       10.2001706598       13.0612148371
 Ga         1.6992233837        8.3322961900       13.6248214475
  N         1.6722407184        8.3168714158       15.5823476667
 Ga         1.8620094630       10.0816042696       16.4962419206
  N         3.3042264630        9.2591835070       17.6382639542
  N         9.7363102796        1.8238829149        2.6311930091
 Ga         9.7329744579        0.0596829750        3.2571272565
  N         9.7256202243       -0.0370751782        5.2388640259
 Ga         9.7333626077        1.8193461947        5.8682568435
  N         9.7264850068        1.8242195781        7.8468185270
 Ga         9.7307620890       -0.0428486261        8.4328688141
  N         9.7290636996       -0.0437333257       10.4270971327
 Ga         9.7285524050        1.8256615562       11.0252154197
  N         9.7270831480        1.8268734258       12.9961948536
 Ga         9.7277198141       -0.0428272763       13.6253316287
  N         9.7238738424       -0.0098816832       15.5831567315
 Ga         9.7322810222        1.8247925683       15.8652549055
  N         8.0112039243        4.5650256449        2.5252219686
 Ga         8.2290573276        2.6928863837        3.2976445860
  N         8.1180760741        2.7548433177        5.2588755597
 Ga         8.1453768139        4.6256250862        5.8030656529
  N         8.1262128826        4.6198998284        7.7971366384
 Ga         8.1119016458        2.7595134439        8.4375281483
  N         8.1086723781        2.7624793753       10.4316221443
 Ga         8.1341600885        4.6207546247       11.0707351035
  N         8.1537169955        4.6319242082       13.0661241765
 Ga         8.1102212494        2.7609498297       13.6126112347
  N         8.1351715740        2.7468668552       15.5819142082
 Ga         7.9859747204        4.5348131567       16.4480494966
  N         6.5000211436        7.4186136927        2.5715257083
 Ga         6.5053105605        5.6361088102        3.3025338444
  N         6.5105202680        5.5627657029        5.2489708586
 Ga         6.5036110346        7.4021539779        5.9103538383
  N         6.5108056249        7.3976767048        7.8653953025
 Ga         6.5116138570        5.5287722418        8.4447821578
  N         6.5120057884        5.5291029789       10.4337519933
 Ga         6.5112044259        7.3985923021       11.0272224342
  N         6.5118203462        7.3968976393       12.9964658204
 Ga         6.5119598259        5.5296595895       13.6131203515
  N         6.5122396308        5.5582479786       15.5821661765
 Ga         6.5120423026        7.4023223010       15.8659138889
  N         4.8136706155       10.1205546262        2.4908127964
 Ga         4.9393017057        8.3062838294        3.2764950277
  N         4.9179057141        8.3162130586        5.2373943887
 Ga         4.9304661007       10.2003304030        5.7861075269
  N         4.9142879547       10.1842558111        7.7865300211
 Ga         4.8920247268        8.3353209749        8.4396130373
  N         4.8940033199        8.3321227289       10.4287672475
 Ga         4.9186461068       10.1906012964       11.0723893733
  N         4.9353157420       10.2004790052       13.0649133165
 Ga         4.8926433854        8.3318690148       13.6257344976
  N         4.9191535288        8.3123374311       15.5832907889
 Ga         4.7400144396       10.0881862329       16.4955957526
  O         0.0029589707        4.0513064643       -0.4426293080
  H        -0.1863825192        5.9112111839       -0.3454185041
  C         1.1329557642        3.6273822500       -1.2242253067
  H         2.0959264922        3.9432449550       -0.7898618448
  H         1.1226532349        2.5325425759       -1.3295626933
  H         1.0269249702        4.0859368736       -2.2181181647
 Ga         3.2466631793        5.5240654254        2.8553994564
  O        -0.1897221948        6.8861881454       -0.1455712446
  H         0.0310456988        7.2945631101        1.6366880807
  C         6.4420446072        7.3213545372        0.9900554200
  H         6.3566875132        8.3247304225        0.5303440156
  H         7.3545984402        6.8362258022        0.6220967304
  H         5.5462156882        6.7441570296        0.7324785119
     212
 i =        2, E =     -8504.7013478054
  N         0.0776384233        1.9830254508        2.4885460349
 Ga         0.0655255817        0.0293047821        2.8262236289
  N         0.0815160887       -0.0285122473        5.0110461171
 Ga         0.0810428727        1.8031923719        5.7997583627
  N         0.0799867330        1.8127800126        7.7981171477
 Ga         0.0777799804       -0.0300827938        8.4460492718
  N         0.0790734445       -0.0322797963       10.4162242593
 Ga         0.0791835325        1.8082555909       11.0741201307
  N         0.0796397499        1.7896736596       13.0642766164
 Ga         0.0792957403       -0.0299845585       13.8800487026
  N         0.0795173593       -0.0302663734       16.0705125294
 Ga         0.0795233314        2.0144970811       16.4921372095
 Ga         0.0431526959        3.7140969045        1.3462844348
  N        -1.4080477803        4.5368274499        2.5489047499
 Ga        -1.5951298999        2.7038775895        3.2801417999
  N        -1.5322094748        2.7497878380        5.2585759819
 Ga        -1.5534886684        4.6170819763        5.8052098184
  N        -1.5402409702        4.6183901429        7.7991833215
 Ga        -1.5195363109        2.7571996795        8.4369314131
  N        -1.5168394861        2.7608560093       10.4276663383
 Ga        -1.5433334670        4.6187425853       11.0728547514
  N        -1.5606425114        4.6310442480       13.0614073118
 Ga        -1.5184116400        2.7616586534       13.6250767847
  N        -1.5445417050        2.7473974801       15.5819625462
 Ga        -1.3601826170        4.5131873840       16.4913522978
  N         0.0794789614        3.6763051131       17.6351680106
  N        -3.1564680147        7.5177034568        2.5215451913
 Ga        -3.0858205990        5.5069918885        2.8517012282
  N        -3.1389975413        5.5410298395        5.0199684387
 Ga        -3.1427136766        7.3568302214        5.8058174451
  N        -3.1416592823        7.3891560289        7.7915238443
 Ga        -3.1373295338        5.5390475375        8.4490703541
  N        -3.1375046593        5.5417889941       10.4169462768
 Ga        -3.1368628730        7.3799396781       11.0770233219
  N        -3.1365323305        7.3605532583       13.0631936341
 Ga        -3.1328065289        5.5422639076       13.8728606079
  N        -3.1408588252        5.5381281535       16.0658995089
 Ga        -3.1379060998        7.5926045108       16.4923262123
 Ga        -3.1002633752        9.2616503465        1.4514504554
  N        -4.6430497397       10.1098081337        2.4864314470
 Ga        -4.7969644259        8.3126825323        3.2950117132
  N        -4.7739448292        8.3105926033        5.2256289600
 Ga        -4.7793960935       10.2041994767        5.8001286079
  N        -4.7553243085       10.1823715157        7.7899768680
 Ga        -4.7328934730        8.3351924421        8.4544782560
  N        -4.7331459813        8.3332951229       10.4348226098
 Ga        -4.7608920095       10.1931404548       11.0780322953
  N        -4.7761824886       10.2005437681       13.0659137754
 Ga        -4.7338451653        8.3312774790       13.6272214843
  N        -4.7595990576        8.3156884303       15.5831571826
 Ga        -4.5816714592       10.0885814758       16.4932274358
  N        -3.1427064387        9.2575667302       17.6359850381
  N         3.2847187077        1.8333266968        2.6231812852
 Ga         3.2882115214        0.0894802831        3.2832810259
  N         3.2919250199       -0.0378231487        5.2465109036
 Ga         3.2882693307        1.8288121811        5.8734106937
  N         3.2964620244        1.8250178052        7.8471375971
 Ga         3.2939340242       -0.0406674969        8.4417179949
  N         3.2940218407       -0.0442857376       10.4290349447
 Ga         3.2941986811        1.8262060662       11.0286310661
  N         3.2950267807        1.8258581448       12.9941573628
 Ga         3.2967460984       -0.0424121117       13.6269755383
  N         3.2969854127       -0.0115449529       15.5833286486
 Ga         3.2930350252        1.8255147336       15.8649074900
  N         1.5667151742        4.5421279171        2.5336081561
 Ga         1.7488193234        2.7181115618        3.2651575270
  N         1.6906269028        2.7507751243        5.2505378437
 Ga         1.7142882976        4.6165517179        5.8062122233
  N         1.6983289852        4.6172117759        7.8006768519
 Ga         1.6769930664        2.7583041277        8.4408293696
  N         1.6760231490        2.7606966736       10.4300888959
 Ga         1.7028246824        4.6194763919       11.0727213669
  N         1.7203325439        4.6313479097       13.0614207567
 Ga         1.6772802465        2.7622137619       13.6256904971
  N         1.7041421905        2.7473251978       15.5825409155
 Ga         1.5199360891        4.5133366222       16.4917073718
  N         0.0802753659        7.3805638841        2.6612061981
 Ga         0.0860621398        5.5536230322        3.3213088811
  N         0.0798267170        5.5535188242        5.2670844293
 Ga         0.0870296698        7.3938618621        5.8982839104
  N         0.0805040795        7.3990382034        7.8575936627
 Ga         0.0797034797        5.5251145107        8.4448819906
  N         0.0793956219        5.5279783029       10.4316363044
 Ga         0.0802640162        7.3969810590       11.0318823283
  N         0.0797835897        7.3978273151       12.9991896298
 Ga         0.0798625847        5.5265774751       13.6256708101
  N         0.0798630615        5.5578810385       15.5831401382
 Ga         0.0803030686        7.3976334051       15.8588574756
  N        -1.6352644506       10.1124114209        2.5354789441
 Ga        -1.4767190303        8.2869627915        3.3193424050
  N        -1.5247885260        8.3176320509        5.2534166618
 Ga        -1.5025206990       10.2029684044        5.8090860511
  N        -1.5201028967       10.1862714302        7.7972852050
 Ga        -1.5398019183        8.3323991751        8.4474363249
  N        -1.5406881979        8.3314807805       10.4315813900
 Ga        -1.5147530191       10.1917244205       11.0742952747
  N        -1.4960778750       10.2008356304       13.0619193679
 Ga        -1.5402538957        8.3329234346       13.6267360032
  N        -1.5132562351        8.3171013363       15.5837323749
 Ga        -1.6980774453       10.0864657811       16.4924644798
  N         6.5104019250        1.9482739429        2.5424849994
 Ga         6.5251678532       -0.0361580693        2.8581462412
  N         6.5080670858       -0.0307870080        5.0234805170
 Ga         6.5098752690        1.7973175149        5.8049629262
  N         6.5108939122        1.8148370863        7.7973278807
 Ga         6.5134360657       -0.0308957042        8.4489340017
  N         6.5121354344       -0.0316078951       10.4176232310
 Ga         6.5123738759        1.8088733480       11.0709245102
  N         6.5121150594        1.7887255312       13.0607354197
 Ga         6.5126330189       -0.0340453633       13.8725661227
  N         6.5121974689       -0.0248497889       16.0662227887
 Ga         6.5123850162        2.0040682480       16.4670128861
 Ga         6.5156501243        3.6454328879        1.4867534141
  N         5.0155835528        4.5687790522        2.5079365121
 Ga         4.7948183844        2.7009279455        3.2934845849
  N         4.9038513386        2.7597971161        5.2537454004
 Ga         4.8706707072        4.6280794144        5.8047186559
  N         4.8994540019        4.6200518369        7.7936740848
 Ga         4.9127817996        2.7594036233        8.4416468589
  N         4.9144614074        2.7621146169       10.4305362717
 Ga         4.8868998653        4.6208121470       11.0735096309
  N         4.8710623809        4.6316555630       13.0620430406
 Ga         4.9130815365        2.7604322800       13.6164681216
  N         4.8835151013        2.7437317665       15.5752574366
 Ga         5.0575264137        4.5240180488       16.4673203207
  N         6.5121037916        3.6838924928       17.5883275447
  N         3.3142747156        7.5041471225        2.5008159419
  N         3.2971010164        5.5383588620        5.0273735882
 Ga         3.2964019437        7.3593720959        5.7970070546
  N         3.2985688566        7.3901247511        7.7877534603
 Ga         3.2959243218        5.5410480360        8.4464447153
  N         3.2964007919        5.5423826431       10.4156081056
 Ga         3.2964165160        7.3803069454       11.0758449599
  N         3.2961282247        7.3607517916       13.0623231891
 Ga         3.2923852160        5.5430333028       13.8729814265
  N         3.3005816375        5.5382823917       16.0661375840
 Ga         3.2975749789        7.5937455682       16.4936163438
 Ga         3.2603709193        9.2768716226        1.2942619929
  N         1.7889305483       10.1195922811        2.5161618732
 Ga         1.6637919067        8.2996029494        3.2737815707
  N         1.6828272941        8.3175631191        5.2286867165
 Ga         1.6628044676       10.1975399048        5.7964908412
  N         1.6777076063       10.1847781497        7.7902291861
 Ga         1.7002585931        8.3334862986        8.4463414058
  N         1.7001837377        8.3320697608       10.4310594650
 Ga         1.6749669184       10.1920348016       11.0735253843
  N         1.6560592936       10.2008313294       13.0611853182
 Ga         1.7000756175        8.3329803979       13.6264272484
  N         1.6731373555        8.3171766600       15.5831685026
 Ga         1.8589089877       10.0858489341       16.4933827352
  N         3.3020126305        9.2577326937       17.6375393644
  N         9.7368674212        1.8281977370        2.6330198487
 Ga         9.7315032824        0.0640506450        3.2536933053
  N         9.7287262066       -0.0400955334        5.2344945870
 Ga         9.7320744845        1.8199027962        5.8672599456
  N         9.7260057125        1.8238658426        7.8436164891
 Ga         9.7286372141       -0.0422990093        8.4350505106
  N         9.7292144486       -0.0447767580       10.4250290591
 Ga         9.7298059317        1.8253403527       11.0258224031
  N         9.7287873392        1.8256205761       12.9920145002
 Ga         9.7275221037       -0.0422292373       13.6265184535
  N         9.7272379359       -0.0114331874       15.5826129902
 Ga         9.7314322188        1.8251980080       15.8648615606
  N         8.0071961765        4.5711145130        2.5162059873
 Ga         8.2279535536        2.6943479423        3.2962391400
  N         8.1163786347        2.7592048114        5.2556636924
 Ga         8.1493444383        4.6273623631        5.8021172492
  N         8.1244699032        4.6209005552        7.7913520206
 Ga         8.1110093383        2.7587915691        8.4383790075
  N         8.1093084259        2.7621050150       10.4283796049
 Ga         8.1361529898        4.6198232074       11.0737513766
  N         8.1527627955        4.6313906278       13.0620312877
 Ga         8.1113759331        2.7601462283       13.6160876058
  N         8.1410315521        2.7437479975       15.5749107507
 Ga         7.9666640767        4.5236763134       16.4672643033
  N         6.4966624509        7.4005777135        2.5490785032
 Ga         6.5054524394        5.5879906268        3.3184089794
  N         6.5105522736        5.5737618362        5.2418752800
 Ga         6.5041270844        7.4022374126        5.9269288949
  N         6.5107366051        7.3975655868        7.8695339996
 Ga         6.5116613915        5.5241477885        8.4549043038
  N         6.5119067725        5.5285784667       10.4365620897
 Ga         6.5112377361        7.3996167833       11.0304514837
  N         6.5116814484        7.3989365484       12.9939448995
 Ga         6.5119897057        5.5305892766       13.6170050989
  N         6.5123363944        5.5649203249       15.5753347187
 Ga         6.5119713994        7.4013416090       15.8660910017
  N         4.8101362280       10.1158864794        2.4798587735
 Ga         4.9126605866        8.3251370501        3.2846867633
  N         4.9270723586        8.3122209042        5.2234632992
 Ga         4.9333376717       10.2035822609        5.7903477081
  N         4.9143453560       10.1829689849        7.7852491388
 Ga         4.8885274912        8.3367063795        8.4503841846
  N         4.8920361076        8.3333448570       10.4324325965
 Ga         4.9185823007       10.1926984334       11.0764183092
  N         4.9353578402       10.2004530396       13.0646463226
 Ga         4.8928633185        8.3317043048       13.6274009578
  N         4.9194783969        8.3158154790       15.5830380397
 Ga         4.7398659157       10.0881046268       16.4944276985
  O        -0.0094583124        4.0142641257       -0.4462528663
  H        -0.1829059179        5.9746204861       -0.3406066860
  C         1.1276492562        3.6128988043       -1.2270821356
  H         2.0873768652        3.9421455639       -0.7914730799
  H         1.1506620792        2.5208912431       -1.3480651259
  H         1.0321494224        4.0842035811       -2.2162598350
 Ga         3.2410184270        5.5202792325        2.8547631804
  O        -0.1837916840        6.9291569314       -0.0476703643
  H         0.0269447519        7.2693247066        1.5967865503
  C         6.4454089319        7.3287986750        1.0505010639
  H         6.3671297616        8.3256088467        0.5961714172
  H         7.3329213231        6.8329384487        0.6364481433
  H         5.5747356831        6.7427228986        0.7192461291
     212
 i =        3, E =     -8504.7042645110
  N         0.0775198473        1.9803575733        2.4901493450
 Ga         0.0664858040        0.0270568189        2.8207372021
  N         0.0810907657       -0.0279778361        5.0084190756
 Ga         0.0811850786        1.8031437995        5.8004157549
  N         0.0799958063        1.8127707920        7.7980267010
 Ga         0.0781999761       -0.0296788989        8.4468272771
  N         0.0792243496       -0.0321274416       10.4161137694
 Ga         0.0792010092        1.8091011186       11.0737980459
  N         0.0796598679        1.7892524981       13.0626376200
 Ga         0.0794428119       -0.0294313189       13.8808389426
  N         0.0796191673       -0.0301212909       16.0697956834
 Ga         0.0796304431        2.0150245551       16.4914362843
 Ga         0.0418763530        3.7195089071        1.3398268764
  N        -1.4101714455        4.5394343025        2.5486730333
 Ga        -1.5935854406        2.7042385919        3.2793153021
  N        -1.5311110293        2.7503749608        5.2591563758
 Ga        -1.5527838011        4.6175211141        5.8053484365
  N        -1.5395767252        4.6185635862        7.7985604235
 Ga        -1.5200131575        2.7574425245        8.4365751881
  N        -1.5169662255        2.7612945100       10.4263149900
 Ga        -1.5434660888        4.6191569095       11.0733682313
  N        -1.5609859322        4.6308949942       13.0613416203
 Ga        -1.5182060529        2.7611717043       13.6246397998
  N        -1.5434629103        2.7470774629       15.5810622228
 Ga        -1.3610843520        4.5140201774       16.4902382584
  N         0.0794898388        3.6770723997       17.6365852586
  N        -3.1518573899        7.5187415225        2.5197860796
 Ga        -3.0900235932        5.5100984556        2.8489045757
  N        -3.1377806055        5.5401026968        5.0188557113
 Ga        -3.1410316105        7.3562117360        5.8034672574
  N        -3.1413103737        7.3893826984        7.7889348205
 Ga        -3.1362443418        5.5396316441        8.4483168244
  N        -3.1375023158        5.5416911359       10.4152160051
 Ga        -3.1356253585        7.3788743301       11.0789974456
  N        -3.1364083277        7.3600082284       13.0642411780