     212
 i =        1, E =     -8504.7140570162
  N        -0.0045987727        2.0346928791        2.4889207963
 Ga        -0.0079799162        0.0775481615        2.8751639621
  N        -0.0035200967        0.0529697369        5.0267335707
 Ga        -0.0019939579        1.8805927158        5.8122431877
  N        -0.0095293941        1.8929515441        7.8062280456
 Ga        -0.0079215011        0.0476835361        8.4479922913
  N        -0.0063376311        0.0469607810       10.4206731245
 Ga        -0.0063052360        1.8862396062       11.0754780370
  N        -0.0062481564        1.8645604337       13.0706376973
 Ga        -0.0050548382        0.0390506071       13.8691847471
  N        -0.0054727726        0.0480125277       16.0720824294
 Ga        -0.0054197652        2.0608861651       16.4515254426
 Ga         0.0453085940        3.7808205310        1.3869323971
  N        -1.4925660948        4.6206467138        2.4840160774
 Ga        -1.6229849592        2.8203594369        3.3007631569
  N        -1.6302331368        2.8230275959        5.2562662636
 Ga        -1.6283580159        4.7027548694        5.8089750103
  N        -1.6260750895        4.6922453496        7.8027521431
 Ga        -1.6017828184        2.8398301816        8.4503217381
  N        -1.6029530304        2.8392196086       10.4389678022
 Ga        -1.6288568304        4.6981748096       11.0755386623
  N        -1.6480085683        4.7084087893       13.0708827628
 Ga        -1.6045713950        2.8373548850       13.6157302566
  N        -1.6265957121        2.8225281535       15.5835675766
 Ga        -1.4818553724        4.6106542608       16.4510660490
  N        -0.0062218198        3.7656323562       17.5922076690
  N        -3.2302934260        7.6042818804        2.5214490914
 Ga        -3.1794227696        5.6104442688        2.8737091770
  N        -3.2181754284        5.6137158610        5.0165967314
 Ga        -3.2121219950        7.4378440521        5.8061738441
  N        -3.2228725833        7.4636593924        7.7934587226
 Ga        -3.2203942399        5.6165714331        8.4490949328
  N        -3.2220783167        5.6175547187       10.4205855348
 Ga        -3.2197943429        7.4584095540       11.0746504664
  N        -3.2215358957        7.4389127317       13.0655545040
 Ga        -3.2288379323        5.6220205424       13.8704542404
  N        -3.2224005235        5.6181994425       16.0718831454
 Ga        -3.2209739479        7.6728841713       16.5015023002
 Ga        -3.1817350366        9.3519537252        1.4952999956
  N        -4.7197944605       10.1874015273        2.5158931303
 Ga        -4.8496139670        8.3977524377        3.3533945370
  N        -4.8502731314        8.3918876506        5.2655727124
 Ga        -4.8594168076       10.2879208009        5.8111701535
  N        -4.8384276454       10.2634120950        7.7979056310
 Ga        -4.8173658889        8.4095955347        8.4473003304
  N        -4.8176228088        8.4095395462       10.4332283745
 Ga        -4.8435489943       10.2691918735       11.0747427981
  N        -4.8603354797       10.2771948440       13.0658404738
 Ga        -4.8170273867        8.4098042613       13.6318953995
  N        -4.8443859125        8.3934709170       15.5906425668
 Ga        -4.6588021693       10.1606261755       16.5011072633
  N        -3.2148978770        9.3369959452       17.6351319162
  N         3.1930896367        1.9192858402        2.6127123033
 Ga         3.2092434990        0.1802201359        3.2988875342
  N         3.2093734546        0.0501451284        5.2555642431
 Ga         3.2092259037        1.9154862146        5.8860999512
  N         3.2142827335        1.9052043557        7.8587528284
 Ga         3.2138038942        0.0372682159        8.4449601724
  N         3.2118608831        0.0345140933       10.4357007971
 Ga         3.2110757360        1.9028786539       11.0380018753
  N         3.2104119108        1.9029578121       13.0074852478
 Ga         3.2109772252        0.0330765190       13.6320427086
  N         3.2072879306        0.0664153674       15.5914640150
 Ga         3.2140028416        1.9023978799       15.8673308913
  N         1.4764648401        4.6149624241        2.5458686450
 Ga         1.6767585524        2.8065721505        3.3054998224
  N         1.6018195177        2.8317616423        5.2713241388
 Ga         1.6475136021        4.7150601705        5.8227245002
  N         1.6015707079        4.6886120621        7.8332661403
 Ga         1.5911989481        2.8375612574        8.4527082673
  N         1.5916113163        2.8350237953       10.4456811759
 Ga         1.6181795384        4.6991345475       11.0710883561
  N         1.6364941959        4.7089228249       13.0697960237
 Ga         1.5920506988        2.8386857075       13.6155391581
  N         1.6151971951        2.8227242853       15.5838382973
 Ga         1.4707342813        4.6104732721       16.4508996861
  N         0.0110041467        7.4582025657        2.6133209530
 Ga         0.0202966763        5.7030981690        3.3013708991
  N        -0.0055172073        5.6170967989        5.2678738426
 Ga         0.0126779829        7.4722636705        5.8729554246
  N        -0.0016542697        7.4773514786        7.8511672910
 Ga        -0.0068039371        5.6078703172        8.4486272130
  N        -0.0091633390        5.6074888170       10.4431495203
 Ga        -0.0061122698        7.4763687075       11.0349109505
  N        -0.0060105935        7.4746599677       13.0055040678
 Ga        -0.0050671371        5.6054472855       13.6162345776
  N        -0.0055132352        5.6321599621       15.5867325423
 Ga        -0.0056544248        7.4773944424       15.8683468294
  N        -1.7196391522       10.1990419654        2.5401627692
 Ga        -1.4875711273        8.3364667047        3.2962151404
  N        -1.6112203957        8.4012013129        5.2527538571
 Ga        -1.5864418790       10.2755607200        5.8055114436
  N        -1.6033236326       10.2658200194        7.7983727454
 Ga        -1.6184649638        8.4091027147        8.4398965524
  N        -1.6243025434        8.4101738572       10.4323108733
 Ga        -1.5962254735       10.2690585260       11.0773232097
  N        -1.5806980883       10.2783788673       13.0706690934
 Ga        -1.6250899479        8.4095715137       13.6311886705
  N        -1.5984303450        8.3892309408       15.5897644994
 Ga        -1.7742852719       10.1656343440       16.5005368006
  N         6.4317280847        2.0289343639        2.5202318048
 Ga         6.4365864212        0.0342959486        2.8914381166
  N         6.4281991109        0.0518374917        5.0294918206
 Ga         6.4212208321        1.8771679064        5.8044535326
  N         6.4301605393        1.8957178745        7.7962682633
 Ga         6.4312987824        0.0475789964        8.4450090339
  N         6.4287173117        0.0482554589       10.4194185103
 Ga         6.4299370943        1.8853555194       11.0812416835
  N         6.4287293818        1.8670051560       13.0723960720
 Ga         6.4275143891        0.0480540881       13.8874766083
  N         6.4266174197        0.0487235117       16.0774976034
 Ga         6.4263199723        2.0964648972       16.5039452699
 Ga         6.4368035541        3.7223936319        1.4449845799
  N         4.9162779743        4.6366341147        2.4138814142
 Ga         4.6961229394        2.8062038128        3.2856009952
  N         4.8230435087        2.8457911301        5.2451860436
 Ga         4.7624001830        4.7149977761        5.8393652074
  N         4.8280972164        4.6881236602        7.8328239260
 Ga         4.8332355617        2.8340945403        8.4581947785
  N         4.8318734274        2.8346309346       10.4462168539
 Ga         4.8036934697        4.6981069511       11.0753435491
  N         4.7890237769        4.7074173683       13.0673130082
 Ga         4.8310111615        2.8392585795       13.6303022130
  N         4.8005959657        2.8230267614       15.5876874056
 Ga         4.9910852110        4.5865258145       16.5031319115
  N         6.4265211379        3.7570324720       17.6440641170
  N         3.2126473638        7.5864431852        2.3908476531
  N         3.2170066842        5.6171335274        5.1629178919
 Ga         3.2050885486        7.4174607860        5.8213683752
  N         3.2146538293        7.4824662218        7.8242439547
 Ga         3.2103337317        5.6200422076        8.4427628595
  N         3.2118897325        5.6190002906       10.4247782721
 Ga         3.2099903277        7.4581484445       11.0743483512
  N         3.2113876048        7.4394164196       13.0670193173
 Ga         3.2185917816        5.6217760974       13.8673553947
  N         3.2113846508        5.6181982128       16.0717220878
 Ga         3.2099798264        7.6719416681       16.4985387401
 Ga         3.1843809300        9.3936569787        1.2526585829
  N         1.7078635094       10.2111523135        2.5046376946
 Ga         1.5504606516        8.3352242769        3.2438772900
  N         1.6179840773        8.4018878088        5.2275777824
 Ga         1.5824755494       10.2665197590        5.7917594129
  N         1.5966521147       10.2672894668        7.7903491971
 Ga         1.6122227456        8.4147395033        8.4507133631
  N         1.6112131369        8.4133861847       10.4421190678
 Ga         1.5884245560       10.2711821370       11.0795632901
  N         1.5715509618       10.2796695077       13.0721382148
 Ga         1.6146727609        8.4096032234       13.6292620068
  N         1.5870163589        8.3891665283       15.5886036879
 Ga         1.7619309265       10.1659333552       16.4982789523
  N         3.2032631061        9.3369792279       17.6327946642
  N         9.6613385415        1.9124878358        2.6575259875
 Ga         9.6509895502        0.0872008501        3.2857455964
  N         9.6472889668        0.0701294735        5.2429721517
 Ga         9.6519479310        1.9026738133        5.9169044076
  N         9.6439985601        1.9049931842        7.8714457911
 Ga         9.6426646046        0.0328515679        8.4407439220
  N         9.6432536834        0.0358481931       10.4314522880
 Ga         9.6429259152        1.9040266887       11.0297153244
  N         9.6432547832        1.9037304377       12.9999128979
 Ga         9.6434884422        0.0356000988       13.6316605361
  N         9.6462616945        0.0675283493       15.5912781561
 Ga         9.6399101284        1.9026965545       15.8713797734
  N         7.9267224320        4.6337125792        2.5102789990
 Ga         8.0994373050        2.7986084285        3.3179182425
  N         8.0542882999        2.8261999066        5.2564832354
 Ga         8.0652956879        4.7093684595        5.8010792100
  N         8.0434240994        4.6965492649        7.7890230031
 Ga         8.0242729542        2.8390110651        8.4441105122
  N         8.0248665387        2.8391826937       10.4327330737
 Ga         8.0517445406        4.6957518462       11.0792831980
  N         8.0667718457        4.7064521901       13.0681788832
 Ga         8.0254096607        2.8383278835       13.6317749818
  N         8.0537198817        2.8227558813       15.5886568064
 Ga         7.8619299989        4.5864056665       16.5038403161
  N         6.4279974347        7.4841593740        2.6392127211
 Ga         6.3783763353        5.6295982617        3.3201457810
  N         6.4208663404        5.6341863202        5.2391384324
 Ga         6.4096180283        7.4742058971        5.9105216134
  N         6.4245487386        7.4743135400        7.8614019401
 Ga         6.4318517775        5.6039514512        8.4620615870
  N         6.4320577813        5.6073865190       10.4451062294
 Ga         6.4290020149        7.4766904644       11.0399076673
  N         6.4279904026        7.4752959621       13.0070944027
 Ga         6.4274190010        5.6037256900       13.6320057560
  N         6.4270174030        5.6352190022       15.5915518139
 Ga         6.4271187772        7.4739641047       15.8669219426
  N         4.7292824681       10.2104805594        2.4980906803
 Ga         4.7681095289        8.3918798668        3.2834869185
  N         4.8293163513        8.3911758593        5.2206007256
 Ga         4.8480635966       10.2755579606        5.7920036425
  N         4.8282309141       10.2630069106        7.7866021301
 Ga         4.8061303937        8.4151622843        8.4596018388
  N         4.8115608712        8.4127565953       10.4441083826
 Ga         4.8319661010       10.2713278269       11.0777964974
  N         4.8495151575       10.2787250674       13.0677724722
 Ga         4.8069718244        8.4101565628       13.6301531397
  N         4.8341043078        8.3934741316       15.5898044295
 Ga         4.6483112073       10.1608082091       16.4989130846
  O         0.6464061871        3.9873640057       -0.3692386005
  H         2.5061872992        6.4564613636       -0.1018488792
  C         0.9807441175        2.7789433157       -1.0840509538
  H         1.7122259837        2.1624583939       -0.5356956025
  H         0.0815445076        2.1754496519       -1.2789112630
  H         1.4147474716        3.0764612946       -2.0491307173
 Ga         3.1407371038        5.5963418180        2.2706670612
  O         2.8134709627        5.5556880132        0.1110575072
  H         2.0118852469        4.9520368570       -0.0854076266
  C         6.4384914427        7.4758308733        1.2049394355
  H         9.6797900475        1.9410775995        1.6324453622
  H         7.2666470745        7.9705111754        0.6637634448
  H         5.6332200556        6.9858120169        0.6306809577
     212
 i =        2, E =     -8504.7270573793
  N        -0.0088390902        2.0404788249        2.4871632816
 Ga        -0.0018933727        0.0746508314        2.8803983082
  N        -0.0005520451        0.0546577107        5.0264953889
 Ga         0.0013019061        1.8780052556        5.8197420347
  N        -0.0101133621        1.8934913969        7.8058702515
 Ga        -0.0076351616        0.0474187390        8.4497575923
  N        -0.0064341286        0.0456209464       10.4178274268
 Ga        -0.0045540370        1.8847577184       11.0777047155
  N        -0.0062452916        1.8651698696       13.0652874558
 Ga        -0.0048743937        0.0447629720       13.8765033109
  N        -0.0055207587        0.0551960455       16.0713230203
 Ga        -0.0054543874        2.0856949163       16.4734928400
 Ga         0.0546305997        3.7871583347        1.3767909524
  N        -1.4906884572        4.6141653797        2.4823412310
 Ga        -1.5920650980        2.8390986049        3.3232597895
  N        -1.6322667095        2.8218487067        5.2535882988
 Ga        -1.6293890585        4.7072536151        5.8160038662
  N        -1.6256987008        4.6913031196        7.8022761673
 Ga        -1.5991353321        2.8412817726        8.4597240343
  N        -1.6020275629        2.8398990444       10.4410171264
 Ga        -1.6292210196        4.7005300296       11.0782655343
  N        -1.6473693395        4.7079167438       13.0662375983
 Ga        -1.6050720465        2.8367093876       13.6193440682
  N        -1.6305420710        2.8197079246       15.5761222374
 Ga        -1.4610044417        4.5989567194       16.4730218278
  N        -0.0059910179        3.7676022984       17.6144369117
  N        -3.2323059408        7.6025543670        2.5202217221
 Ga        -3.1823026659        5.6146133872        2.8770254481
  N        -3.2157737311        5.6153085616        5.0161355465
 Ga        -3.2070918451        7.4389791421        5.8136058066
  N        -3.2227540984        7.4636812303        7.7961830804
 Ga        -3.2202707977        5.6169563000        8.4508446485
  N        -3.2231705225        5.6180022401       10.4178188746
 Ga        -3.2196638474        7.4583455190       11.0773056206
  N        -3.2218177048        7.4374608133       13.0659989556
 Ga        -3.2240584556        5.6194768556       13.8776218300
  N        -3.2156970539        5.6142999223       16.0709595649
 Ga        -3.2186625888        7.6672014437       16.4971899107
 Ga        -3.1730045283        9.3568267160        1.4627195495
  N        -4.7222012473       10.1866511869        2.5143431152
 Ga        -4.8349582885        8.4059412416        3.3557779509
  N        -4.8478373057        8.3931916940        5.2668635986
 Ga        -4.8556569789       10.2913570013        5.8185850219
  N        -4.8384306973       10.2636072636        7.8005486925
 Ga        -4.8167291967        8.4100279755        8.4514233098
  N        -4.8175399417        8.4096617640       10.4331267365
 Ga        -4.8434468025       10.2693137006       11.0776454408
  N        -4.8618405326       10.2775689105       13.0665952610
 Ga        -4.8166462222        8.4098236761       13.6334993665
  N        -4.8443553866        8.3927094064       15.5922840393
 Ga        -4.6637121670       10.1657625529       16.4966294110
  N        -3.2181922377        9.3369018216       17.6282001605
  N         3.1963992721        1.9168335845        2.6109012157
 Ga         3.2130413334        0.1743647566        3.2943214756
  N         3.2103613996        0.0513276202        5.2518280121
 Ga         3.2099375168        1.9155384782        5.8859495456
  N         3.2137877294        1.9055829409        7.8556944037
 Ga         3.2146165476        0.0380137830        8.4471531947
  N         3.2113990947        0.0335231585       10.4338175211
 Ga         3.2118912446        1.9020730612       11.0382559286
  N         3.2124152400        1.9017752227       13.0032175071
 Ga         3.2108867488        0.0333391297       13.6329541223
  N         3.2112861134        0.0658419622       15.5917894169
 Ga         3.2120992447        1.9036155613       15.8670112844
  N         1.4696285249        4.6111575525        2.5464879800
 Ga         1.6846783731        2.8041585802        3.3068176937
  N         1.5989572252        2.8317134718        5.2688447522
 Ga         1.6469217517        4.7149321451        5.8254491331
  N         1.6022193626        4.6889249549        7.8304153860
 Ga         1.5924712326        2.8388223931        8.4549249686
  N         1.5920213467        2.8349461963       10.4427412511
 Ga         1.6186294846        4.6995289042       11.0722136130
  N         1.6357507370        4.7083400419       13.0641801670
 Ga         1.5930090767        2.8379232345       13.6188233121
  N         1.6190487644        2.8198435488       15.5763607441
 Ga         1.4501443057        4.5989529466       16.4726952023
  N         0.0085529270        7.4611947613        2.6101354533
 Ga         0.0212944410        5.7105348699        3.3024925944
  N        -0.0069894170        5.6148466505        5.2650387164
 Ga         0.0130370203        7.4727731880        5.8729352285
  N        -0.0014479751        7.4768368864        7.8480467297
 Ga        -0.0049882069        5.6083431223        8.4510264085
  N        -0.0091542842        5.6079824364       10.4403203042
 Ga        -0.0064660358        7.4775434763       11.0354550969
  N        -0.0059281949        7.4767048566       13.0013059731
 Ga        -0.0049155899        5.6064401038       13.6194486155
  N        -0.0056231834        5.6369916300       15.5790177866
 Ga        -0.0054256176        7.4744078239       15.8690470252
  N        -1.7154591968       10.2017918254        2.5391645110
 Ga        -1.4915025497        8.3427700614        3.2914004790
  N        -1.6095469210        8.4014284329        5.2488595721
 Ga        -1.5873228916       10.2749551155        5.8090745581
  N        -1.6039304348       10.2654734317        7.7985292626
 Ga        -1.6174491483        8.4094505982        8.4422022052
  N        -1.6253829728        8.4103235550       10.4304311301
 Ga        -1.5965463775       10.2689079513       11.0786794504
  N        -1.5803165231       10.2784113808       13.0697405856
 Ga        -1.6246124070        8.4089655863       13.6319545388
  N        -1.5969141304        8.3920752556       15.5895572605
 Ga        -1.7732797693       10.1657911635       16.4974939747
  N         6.4391275423        2.0360275031        2.5102531587
 Ga         6.4346771196        0.0359543268        2.8928271575
  N         6.4267142735        0.0512174371        5.0293176983
 Ga         6.4188841964        1.8721607564        5.8089018220
  N         6.4310235610        1.8964109667        7.7954959365
 Ga         6.4304013797        0.0470649744        8.4460672050
  N         6.4287567415        0.0481060730       10.4175445556
 Ga         6.4283348130        1.8845575932       11.0837398092
  N         6.4288034682        1.8667906987       13.0714329213
 Ga         6.4275111004        0.0483433955       13.8885263218
  N         6.4267890213        0.0481236933       16.0788988446
 Ga         6.4265201803        2.0970022694       16.5021974802
 Ga         6.4243385007        3.7287734579        1.3813411489
  N         4.9166256421        4.6369398222        2.4137750283
 Ga         4.7016134046        2.8062300788        3.2790102702
  N         4.8260908810        2.8447601161        5.2397811904
 Ga         4.7570334074        4.7124365275        5.8415952449
  N         4.8275672866        4.6890871939        7.8308990019
 Ga         4.8324386790        2.8347409380        8.4591320059
  N         4.8323515848        2.8356530341       10.4433629348
 Ga         4.8034866573        4.6983533129       11.0783603939
  N         4.7882362142        4.7080896063       13.0679269458
 Ga         4.8306203486        2.8388724295       13.6318083922
  N         4.8039055537        2.8195769282       15.5879851113
 Ga         4.9842724330        4.5880515671       16.4997829062
  N         6.4266351524        3.7628459445       17.6388324021
  N         3.2119570325        7.5851521551        2.3924409520
  N         3.2146653128        5.6160232104        5.1565123060
 Ga         3.2000469669        7.4138551982        5.8240303377
  N         3.2154503719        7.4816491315        7.8220623630
 Ga         3.2099643674        5.6198291453        8.4456222394
  N         3.2128861346        5.6195121472       10.4228186267
 Ga         3.2099495576        7.4577695159       11.0773036090
  N         3.2117081147        7.4383616584       13.0674463084
 Ga         3.2139644269        5.6192049869       13.8741657328
  N         3.2048181712        5.6143944045       16.0706638795
 Ga         3.2075464633        7.6669052533       16.4947915216
 Ga         3.1867409254        9.3745847483        1.1986783045
  N         1.7146576572       10.2150669844        2.4918389903
 Ga         1.5485888400        8.3388672207        3.2381649597
  N         1.6189958093        8.4053181709        5.2220000069
 Ga         1.5764484428       10.2673912253        5.7964859663
  N         1.5978671548       10.2677936467        7.7893681612
 Ga         1.6125207969        8.4137589325        8.4518373036
  N         1.6122285312        8.4134117911       10.4392785819
 Ga         1.5869673359       10.2701635849       11.0826823418
  N         1.5714246014       10.2796185063       13.0720589577
 Ga         1.6142471017        8.4088700150       13.6305913062
  N         1.5854446199        8.3922718804       15.5883231062
 Ga         1.7617737981       10.1657897589       16.4959541722
  N         3.2068244992        9.3367953589       17.6267726562
  N         9.6593369610        1.9141989744        2.6818593630
 Ga         9.6493075622        0.0455201680        3.2976012835
  N         9.6457979557        0.0754806137        5.2365217989
 Ga         9.6519490295        1.9025307980        5.9288381649
  N         9.6444250867        1.9049840603        7.8728123158
 Ga         9.6423165169        0.0296270258        8.4495432440
  N         9.6439445181        0.0336698042       10.4338220483
 Ga         9.6421481839        1.9037584621       11.0321052703
  N         9.6413419557        1.9025829020       12.9970758517
 Ga         9.6436123243        0.0356384451       13.6334023846
  N         9.6423798961        0.0670844767       15.5916345451
 Ga         9.6418816318        1.9037376937       15.8713575405
  N         7.9211300570        4.6328695432        2.5123120341
 Ga         8.0586895913        2.8220187938        3.3277716794
  N         8.0589244583        2.8219738608        5.2507426023
 Ga         8.0720206902        4.7098005491        5.8059144612
  N         8.0429611344        4.6959945787        7.7880157580
 Ga         8.0212812549        2.8402122514        8.4525972847
  N         8.0232537377        2.8409737731       10.4348731638
 Ga         8.0519474522        4.6977785051       11.0839928434
  N         8.0678142833        4.7072304242       13.0698246498
 Ga         8.0255070519        2.8380326828       13.6336372525
  N         8.0507278706        2.8194311005       15.5890618056
 Ga         7.8688884291        4.5879834288       16.5006593962
  N         6.4386066225        7.4854823173        2.5758059675
 Ga         6.3677863390        5.6131015512        3.3248895031
  N         6.4229641050        5.6326914829        5.2408611412
 Ga         6.4120053618        7.4753870856        5.9149832220
  N         6.4242623615        7.4743710690        7.8621836819
 Ga         6.4303909710        5.6032770178        8.4655832812
  N         6.4321891572        5.6076677306       10.4444170549
 Ga         6.4294736820        7.4770354815       11.0428682178
  N         6.4280586413        7.4752363964       13.0075523692
 Ga         6.4273071556        5.6033035559       13.6341716341
  N         6.4271819885        5.6345535674       15.5935496353
 Ga         6.4269126850        7.4731650402       15.8704583597
  N         4.7286760740       10.2094958628        2.5009493475
 Ga         4.7516448435        8.3914991926        3.2891848466
  N         4.8286988824        8.3938203530        5.2216782911
 Ga         4.8519274212       10.2813693126        5.7963823024
  N         4.8273592599       10.2628796768        7.7845914105
 Ga         4.8048352539        8.4144448572        8.4632831930
  N         4.8117569906        8.4128553321       10.4433944435
 Ga         4.8338024800       10.2705812908       11.0827276756
  N         4.8509517263       10.2790740963       13.0696207484
 Ga         4.8067036452        8.4099722702       13.6322475346
  N         4.8341009650        8.3929359393       15.5914331837
 Ga         4.6527092425       10.1657735335       16.4952335300
  O         0.6490498721        3.9913776222       -0.3782995204
  H         2.5073044046        6.4579776361       -0.1006122902
  C         0.9795136040        2.7787087377       -1.0873083832
  H         1.7103804343        2.1639737579       -0.5358160759
  H         0.0831772814        2.1712079408       -1.2813754663
  H         1.4171332759        3.0727643245       -2.0511635569
 Ga         3.1406421227        5.5935323783        2.2832744783
  O         2.8137800478        5.5573668648        0.1149957474
  H         2.0150002117        4.9543604500       -0.0873440008
  C         6.4366453653        7.4754557359        1.2153933624
  H         9.6655253861        1.9274820787        1.6454956727
  H         7.2402361398        7.9575215240        0.6541075265
  H         5.6458568420        6.9932947274        0.6436396054
     212
 i =        3, E =     -8504.7315296243
  N        -0.0080062186        2.0466870572        2.4926363278
 Ga        -0.0060724646        0.0803441618        2.8843847769
  N         0.0021237469        0.0543480886        5.0298362293
 Ga         0.0050329176        1.8786840090        5.8238147987
  N        -0.0087371339        1.8923780628        7.8072772736
 Ga        -0.0071393665        0.0464274237        8.4533945397
  N        -0.0062938801        0.0448351868       10.4187575179
 Ga        -0.0033297731        1.8846063374       11.0801359089
  N        -0.0057384403        1.8653001705       13.0633268267
 Ga        -0.0044253774        0.0488252230       13.8827395528
  N        -0.0053673761        0.0530893664       16.0716464960
 Ga        -0.0054220820        2.0965524846       16.4864188709
 Ga         0.0554101693        3.7887787935        1.3757417706
  N        -1.4855444784        4.6126015945        2.4878623761
 Ga        -1.5879507393        2.8427601912        3.3301275417
  N        -1.6268182389        2.8248909979        5.2548399479
 Ga        -1.6274822366        4.7103753200        5.8197188779
  N        -1.6257951573        4.6930322172        7.8035309855
 Ga        -1.5989787929        2.8414471840        8.4621029851
  N        -1.6015876042        2.8401705440       10.4407719850
 Ga        -1.6286642496        4.7016469164       11.0809448965
  N        -1.6468369350        4.7080970941       13.0645239176
 Ga        -1.6039040753        2.8372063971       13.6237247157
  N        -1.6307563118        2.8200044269       15.5762424839
 Ga        -1.4507758683        4.5944547797       16.4861813234
  N        -0.0058278484        3.7673759944       17.6211957989
  N        -3.2295615136        7.5954066721        2.5179981770
 Ga        -3.1814351098        5.6076176604        2.8797485178
  N        -3.2150208278        5.6176275587        5.0193585414
 Ga        -3.2049591168        7.4402875771        5.8165820517
  N        -3.2226460716        7.4646558737        7.7968732412
 Ga        -3.2207522956        5.6178612069        8.4544028810
  N        -3.2236615366        5.6184744319       10.4188873499
 Ga        -3.2195165050        7.4584620645       11.0800869250
  N        -3.2215605404        7.4371201361       13.0674053164