     256
 i =        1, E =     -9638.2976985784
  N        -0.0000056495        0.0000121172        0.0068691358
 Ga         0.0000721933        1.8827527596        0.6288140604
  N         0.0000616589        1.8827517757        2.5808597249
 Ga        -0.0000162394       -0.0000018855        3.2217044481
  N        -0.0000000752        0.0000092745        5.1790807785
 Ga         0.0000471413        1.8827499258        5.8117368705
  N         0.0000653328        1.8827422504        7.7739363299
 Ga        -0.0000229983        0.0000004617        8.4031824167
  N        -0.0000091697       -0.0000195169       10.3677796431
 Ga         0.0000661970        1.8827455539       10.9951332674
  N         0.0003180231        1.8826333436       12.9588750764
 Ga         0.0006534189       -0.0000553883       13.5841428038
  N         0.0029014852       -0.0021195682       15.5184579171
 Ga        -0.0019889414        1.8836046049       16.1976332563
  N         1.6052654547        0.9559579958       16.8977477672
  N        -1.6305030987        2.8241182136        0.0068631670
 Ga        -1.6304700998        4.7069016477        0.6288403693
  N        -1.6304580644        4.7068907578        2.5808575298
 Ga        -1.6305192282        2.8241241716        3.2217096551
  N        -1.6304992244        2.8241253263        5.1790794365
 Ga        -1.6304489585        4.7068772072        5.8117310243
  N        -1.6304713779        4.7068973251        7.7739271525
 Ga        -1.6305139958        2.8241203159        8.4031942296
  N        -1.6305350401        2.8241533199       10.3677443518
 Ga        -1.6304402249        4.7068283219       10.9949887228
  N        -1.6303063738        4.7069495312       12.9591078146
 Ga        -1.6296399986        2.8235876892       13.5845438457
  N        -1.6262290331        2.8211641300       15.5178848551
 Ga        -1.6329977153        4.7076119017       16.1966488404
  N        -0.0238484790        3.7782392037       16.8984148111
  N        -3.2610111516        5.6482220400        0.0068441675
 Ga        -3.2609500259        7.5309577362        0.6288221608
  N        -3.2609451620        7.5309648365        2.5808638261
 Ga        -3.2609961867        5.6482265334        3.2216953456
  N        -3.2610045104        5.6482333863        5.1790864337
 Ga        -3.2609389493        7.5309765156        5.8117169214
  N        -3.2609569551        7.5309693468        7.7739493572
 Ga        -3.2610007683        5.6482190362        8.4031681624
  N        -3.2610418920        5.6482624005       10.3677940591
 Ga        -3.2609124067        7.5309401236       10.9948913909
  N        -3.2608517002        7.5309615535       12.9593278544
 Ga        -3.2603578114        5.6476528805       13.5839809486
  N        -3.2576252926        5.6446412742       15.5192289420
 Ga        -3.2634804033        7.5318555256       16.1978071379
  N        -1.6549534243        6.6030966370       16.8986396284
  N        -4.8915119373        8.4723431620        0.0068618910
 Ga        -4.8914628069       10.3550899939        0.6288098482
  N        -4.8914648524       10.3551192384        2.5808623779
 Ga        -4.8915210297        8.4723354726        3.2217041390
  N        -4.8915022535        8.4723443132        5.1790941243
 Ga        -4.8914653581       10.3550997314        5.8117160550
  N        -4.8914620921       10.3551040691        7.7739473529
 Ga        -4.8915057686        8.4723445821        8.4031484522
  N        -4.8915152733        8.4723244479       10.3678202130
 Ga        -4.8914542685       10.3551237074       10.9949870603
  N        -4.8913528389       10.3549790585       12.9591407891
 Ga        -4.8910053504        8.4720381512       13.5839267492
  N        -4.8890151584        8.4699678185       15.5188518251
 Ga        -4.8952315906       10.3548777221       16.1989146778
  N        -3.2856108629        9.4290755544       16.8983373886
  N         3.2612819917        0.0000071216        0.0068874211
 Ga         3.2613748153        1.8827607372        0.6287959107
  N         3.2613818224        1.8827490116        2.5808650650
 Ga         3.2612717616       -0.0000132436        3.2216982504
  N         3.2612806874        0.0000030917        5.1790903864
 Ga         3.2613861477        1.8827383827        5.8117309187
  N         3.2613806114        1.8827440639        7.7739347726
 Ga         3.2612980758       -0.0000067244        8.4031702021
  N         3.2612794441        0.0000115862       10.3677815467
 Ga         3.2613659428        1.8827250148       10.9949750991
  N         3.2614591588        1.8827172148       12.9592176103
 Ga         3.2616623641       -0.0003858603       13.5837410687
  N         3.2642642580        0.0000953615       15.5190839092
 Ga         3.2593970174        1.8834942976       16.1984795228
  N         4.8661585380        0.9562965318       16.8976316694
  N         1.6307797596        2.8241145488        0.0068737954
 Ga         1.6308673011        4.7068888711        0.6288260716
  N         1.6308576144        4.7068872419        2.5808602597
 Ga         1.6307679271        2.8241214078        3.2216908828
  N         1.6307843653        2.8241187585        5.1790858308
 Ga         1.6308498989        4.7068980671        5.8117316322
  N         1.6308657119        4.7068873030        7.7739278055
 Ga         1.6307663777        2.8241276945        8.4031721851
  N         1.6307950418        2.8241620656       10.3677702605
 Ga         1.6308866576        4.7068506392       10.9948182170
  N         1.6309301200        4.7068471858       12.9594853997
 Ga         1.6309090279        2.8235672287       13.5839234857
  N         1.6327960348        2.8222620701       15.5182319579
 Ga         1.6289005518        4.7081741279       16.1975107168
  N         3.2371286262        3.7794759950       16.8986444535
  N         0.0002775407        5.6482249541        0.0068568229
 Ga         0.0003844297        7.5309595007        0.6288536093
  N         0.0003724894        7.5309590403        2.5808532003
 Ga         0.0002695993        5.6482398836        3.2217028200
  N         0.0002777760        5.6482224545        5.1790799332
 Ga         0.0003840477        7.5309741130        5.8117204868
  N         0.0003693336        7.5309702535        7.7739307307
 Ga         0.0002743117        5.6482331718        8.4031642232
  N         0.0002964694        5.6482402245       10.3677994957
 Ga         0.0004184057        7.5309694482       10.9948318043
  N         0.0003873042        7.5308997625       12.9594255081
 Ga         0.0006743329        5.6478802321       13.5840037260
  N         0.0012642412        5.6469022409       15.5175096403
 Ga        -0.0018982488        7.5326435337       16.1973434239
  N         1.6069978228        6.6046426431       16.8982834456
  N        -1.6302148917        8.4723425487        0.0068870939
 Ga        -1.6301460157       10.3550872425        0.6288275961
  N        -1.6301413586       10.3551165219        2.5808581577
 Ga        -1.6302070898        8.4723292924        3.2217006217
  N        -1.6302242928        8.4723410852        5.1790904483
 Ga        -1.6301214423       10.3550954097        5.8117299197
  N        -1.6301541702       10.3551032746        7.7739325648
 Ga        -1.6301991931        8.4723387806        8.4031492069
  N        -1.6302282365        8.4723070831       10.3678043787
 Ga        -1.6301233510       10.3551081430       10.9949326757
  N        -1.6301943779       10.3549930095       12.9592335157
 Ga        -1.6297527808        8.4720874419       13.5839875230
  N        -1.6266454052        8.4734432674       15.5179461816
 Ga        -1.6317222119       10.3564280226       16.1978100726
  N        -0.0243919012        9.4293496003       16.8975394072
  N         6.5225674774        0.0000059393        0.0068928804
 Ga         6.5226455798        1.8827632709        0.6288236667
  N         6.5226246367        1.8827458972        2.5808608279
 Ga         6.5226015102       -0.0000124167        3.2217087597
  N         6.5225643323        0.0000081424        5.1790790516
 Ga         6.5226534655        1.8827354021        5.8117428155
  N         6.5226277955        1.8827567472        7.7739303139
 Ga         6.5225864643       -0.0000039317        8.4031804358
  N         6.5225300090        0.0000291604       10.3677858534
 Ga         6.5226731777        1.8827291688       10.9949406463
  N         6.5227014659        1.8828371079       12.9592531512
 Ga         6.5233135868       -0.0005141898       13.5841692467
  N         6.5262713090       -0.0034450307       15.5188558668
 Ga         6.5205114035        1.8834047165       16.1975308040
  N         8.1290026198        0.9549872292       16.8983385402
  N         4.8920726400        2.8241184692        0.0068790587
 Ga         4.8921060951        4.7068930533        0.6288230967
  N         4.8921087793        4.7068873104        2.5808601433
 Ga         4.8920802427        2.8241280389        3.2216937121
  N         4.8920694790        2.8241216533        5.1790885705
 Ga         4.8921220308        4.7068911215        5.8117201422
  N         4.8921143897        4.7068931760        7.7739407131
 Ga         4.8920867247        2.8241037667        8.4031600781
  N         4.8920582579        2.8241365203       10.3678034356
 Ga         4.8921410731        4.7068831091       10.9949477355
  N         4.8922429436        4.7068077741       12.9591842624
 Ga         4.8924749167        2.8236783588       13.5837900434
  N         4.8946622083        2.8211330787       15.5181201957
 Ga         4.8903321704        4.7077269958       16.1985341843
  N         6.4987607222        3.7816478536       16.8988801457
  N         3.2615667565        5.6482271528        0.0068550847
 Ga         3.2616413380        7.5309705262        0.6288514256
  N         3.2616236900        7.5309531842        2.5808551048
 Ga         3.2615651656        5.6482529921        3.2216942980
  N         3.2615665753        5.6482248540        5.1790855018
 Ga         3.2616263016        7.5309820646        5.8117191012
  N         3.2616348960        7.5309615241        7.7739401098
 Ga         3.2615529766        5.6482405575        8.4031637435
  N         3.2615527093        5.6482150159       10.3677951996
 Ga         3.2616589140        7.5309828881       10.9950194375
  N         3.2618596312        7.5308048735       12.9590244015
 Ga         3.2623209397        5.6480325486       13.5840364487
  N         3.2644986444        5.6463149993       15.5176556383
 Ga         3.2598030878        7.5322380170       16.1978512662
  N         4.8669526433        6.6038207214       16.8977387640
  N         1.6310578257        8.4723436358        0.0068727073
 Ga         1.6311360794       10.3550963896        0.6288640869
  N         1.6310954591       10.3551154925        2.5808498858
 Ga         1.6310702309        8.4723548927        3.2216960942
  N         1.6310634918        8.4723415208        5.1790933002
 Ga         1.6311128043       10.3551073536        5.8117329760
  N         1.6311112712       10.3551070288        7.7739217501
 Ga         1.6310508662        8.4723561685        8.4031789282
  N         1.6310222314        8.4723251507       10.3677640766
 Ga         1.6311652978       10.3550999818       10.9950457885
  N         1.6312498810       10.3550084187       12.9590170642
 Ga         1.6318694440        8.4719527197       13.5842872379
  N         1.6357931229        8.4695126011       15.5184414912
 Ga         1.6288528714       10.3562972847       16.1966658541
  N         3.2371070988        9.4260047388       16.8982321939
  N         9.7838539037        0.0000101066        0.0068614108
 Ga         9.7839501113        1.8827398332        0.6288404986
  N         9.7839544339        1.8827513675        2.5808544391
 Ga         9.7838436522       -0.0000082375        3.2216936571
  N         9.7838503022        0.0000033684        5.1790860062
 Ga         9.7839552806        1.8827377497        5.8117410154
  N         9.7839505616        1.8827469480        7.7739262901
 Ga         9.7838459169        0.0000049350        8.4031747134
  N         9.7838709662        0.0000080290       10.3677808348
 Ga         9.7839945582        1.8827272032       10.9949213573
  N         9.7839624759        1.8827721812       12.9593443577
 Ga         9.7842862526       -0.0003459363       13.5842920057
  N         9.7844291042       -0.0008483679       15.5170656361
 Ga         9.7817155099        1.8842117005       16.1969185736
  N        11.3908882561        0.9564112630       16.8979470898
  N         8.1533581719        2.8241178297        0.0068714179
 Ga         8.1534526367        4.7068886809        0.6288246983
  N         8.1534278468        4.7068894501        2.5808540790
 Ga         8.1533783781        2.8241025108        3.2217013771
  N         8.1533537079        2.8241128618        5.1790848692
 Ga         8.1534348095        4.7068744506        5.8117346193
  N         8.1534315555        4.7068973568        7.7739407495
 Ga         8.1533735387        2.8241003224        8.4031584682
  N         8.1533497997        2.8241306747       10.3677913431
 Ga         8.1534478066        4.7068503295       10.9949319686
  N         8.1534151783        4.7068885106       12.9592568671
 Ga         8.1539032309        2.8238069164       13.5839945685
  N         8.1569731928        2.8245098421       15.5179363837
 Ga         8.1515701790        4.7079516447       16.1980230459
  N         9.7595217310        3.7814199459       16.8975875407
  N         6.5228545461        5.6482230390        0.0068617208
 Ga         6.5229465890        7.5309731870        0.6288367204
  N         6.5229500951        7.5309562792        2.5808550069
 Ga         6.5228505704        5.6482491866        3.2217021485
  N         6.5228456799        5.6482237339        5.1790895758
 Ga         6.5229523797        7.5309712925        5.8117131230
  N         6.5229532585        7.5309624688        7.7739517750
 Ga         6.5228660261        5.6482232861        8.4031593047
  N         6.5228539174        5.6482362275       10.3677970535
 Ga         6.5229344099        7.5309558359       10.9949089217
  N         6.5230492911        7.5308500010       12.9593044959
 Ga         6.5232038801        5.6478169364       13.5836219233
  N         6.5254081587        5.6471522922       15.5191239862
 Ga         6.5213958660        7.5322162612       16.1987785556
  N         8.1285571022        6.6049525320       16.8974508415
  N         4.8923550026        8.4723375357        0.0068627099
 Ga         4.8924180581       10.3550851419        0.6288362819
  N         4.8924365093       10.3551155674        2.5808548744
 Ga         4.8923449220        8.4723403060        3.2216906877
  N         4.8923488360        8.4723366003        5.1790931114
 Ga         4.8924180627       10.3551002553        5.8117394111
  N         4.8924349418       10.3551034403        7.7739328216
 Ga         4.8923465699        8.4723564279        8.4031561387
  N         4.8923652523        8.4723502266       10.3677950676
 Ga         4.8924494855       10.3551166509       10.9948885532
  N         4.8925309572       10.3549933755       12.9593875592
 Ga         4.8926966960        8.4720195408       13.5838531686
  N         4.8940778824        8.4705125413       15.5181058868
 Ga         4.8906176399       10.3565027632       16.1976971915
  N         6.4802158543        9.4131437947       16.9223513201
  H         0.0000007688        0.0000014116       -1.0120231268
  H        -1.6305005953        2.8241143276       -1.0120182616
  H        -3.2610052708        5.6482281092       -1.0119954356
  H        -4.8915059267        8.4723412496       -1.0120111495
  H         3.2612850251       -0.0000001824       -1.0120397582
  H         1.6307842630        2.8241133157       -1.0120107528
  H         0.0002829723        5.6482260437       -1.0120136000
  H        -1.6302225887        8.4723397095       -1.0120417064
  H         6.5225744505        0.0000003293       -1.0120575764
  H         4.8920709775        2.8241141339       -1.0120261132
  H         3.2615688260        5.6482267397       -1.0120092762
  H         1.6310681881        8.4723391546       -1.0120379168
  H         9.7838644705       -0.0000011323       -1.0120221139
  H         8.1533604850        2.8241144520       -1.0120183544
  H         6.5228571068        5.6482269139       -1.0120173894
  H         4.8923539567        8.4723410098       -1.0120136398
     256
 i =        2, E =     -9638.7610554404
  N        -0.0000319002        0.0000116801        0.0081582354
 Ga         0.0001831345        1.8928475356        0.6518653640
  N         0.0001675090        1.8929031504        2.5519043181
 Ga        -0.0000398149       -0.0000043415        3.2445801721
  N        -0.0000146658        0.0000218853        5.1617528517
 Ga         0.0001456756        1.8928024057        5.8284699453
  N         0.0001829021        1.8928831800        7.7600706346
 Ga        -0.0000665557       -0.0000358393        8.4169268994
  N        -0.0000256187       -0.0000256268       10.3550507085
 Ga         0.0002086806        1.8927428816       11.0055913389
  N         0.0015491679        1.8923415972       12.9384542980
 Ga         0.0030946550       -0.0003591545       13.5726081662
  N         0.0116311035       -0.0103519244       15.4105489144
 Ga        -0.0071530824        1.8954615690       16.2611869350
  N         1.6052655878        0.9644253067       16.9735370442
  N        -1.6392384720        2.8392248103        0.0081820132
 Ga        -1.6390745628        4.7320895087        0.6518734172
  N        -1.6390624916        4.7321210088        2.5519252646
 Ga        -1.6392556822        2.8392088032        3.2445659086
  N        -1.6392272774        2.8392690095        5.1617643367
 Ga        -1.6390687909        4.7320285006        5.8284532575
  N        -1.6390788008        4.7321417192        7.7600521303
 Ga        -1.6392671425        2.8391724277        8.4169468408
  N        -1.6393630619        2.8394198034       10.3549054181
 Ga        -1.6389604350        4.7317742112       11.0049535827
  N        -1.6381656936        4.7321153994       12.9396346859
 Ga        -1.6354879673        2.8366463886       13.5736110779
  N        -1.6217998345        2.8268918065       15.4083818823
 Ga        -1.6476408703        4.7342516103       16.2572062281
  N        -0.0273871823        3.7975000592       16.9769573387
  N        -3.2784743146        5.6784321461        0.0082033599
 Ga        -3.2782871466        7.5712751717        0.6518549159
  N        -3.2782819737        7.5712604662        2.5519291772
 Ga        -3.2784699792        5.6784452644        3.2445336819
  N        -3.2784595449        5.6784438262        5.1617734543
 Ga        -3.2782925235        7.5713078926        5.8284219937
  N        -3.2782939889        7.5712769407        7.7601308880
 Ga        -3.2784791077        5.6784382254        8.4168337223
  N        -3.2785915466        5.6785103038       10.3551167924
 Ga        -3.2781429405        7.5712024653       11.0046167561
  N        -3.2775100314        7.5709422716       12.9405372691
 Ga        -3.2753995627        5.6760321279       13.5718928158
  N        -3.2650856730        5.6639698152       15.4122713798
 Ga        -3.2865852314        7.5746929147       16.2624694714
  N        -1.6695728921        6.6402402880       16.9774495463
  N        -4.9176971583        8.5176652229        0.0081882890
 Ga        -4.9175094701       10.4104852682        0.6518592108
  N        -4.9175156975       10.4105088578        2.5519019984
 Ga        -4.9177091416        8.5176823065        3.2445514347
  N        -4.9176736330        8.5176425783        5.1617760632
 Ga        -4.9175339919       10.4105164056        5.8284347975
  N        -4.9174950461       10.4104936652        7.7601258351
 Ga        -4.9177140720        8.5177113917        8.4168230685
  N        -4.9177011457        8.5175588921       10.3552213688
 Ga        -4.9174436625       10.4105093749       11.0050034105
  N        -4.9166111909       10.4096919379       12.9397703433
 Ga        -4.9153579693        8.5160701179       13.5715248603
  N        -4.9063869724        8.5079216875       15.4125023579
 Ga        -4.9310502065       10.4095303892       16.2663077267
  N        -3.3095148169        9.4850805815       16.9762189810
  N         3.2788966609        0.0000006918        0.0081464088
 Ga         3.2791049808        1.8928490375        0.6518529034
  N         3.2790931183        1.8928830804        2.5519125266
 Ga         3.2788825095       -0.0000250243        3.2445548285
  N         3.2789063942        0.0000000237        5.1617750727
 Ga         3.2791166607        1.8928011379        5.8284536318
  N         3.2791111015        1.8928672971        7.7600658430
 Ga         3.2789077514       -0.0000343776        8.4168467001
  N         3.2789497625        0.0000577456       10.3551052857
 Ga         3.2790159841        1.8927166136       11.0048611928
  N         3.2796660577        1.8926300416       12.9400901057
 Ga         3.2806586990       -0.0015736834       13.5708847094
  N         3.2896907553        0.0005841571       15.4127012637
 Ga         3.2708671295        1.8959872152       16.2640621265
  N         4.8832047869        0.9672365138       16.9742832889
  N         1.6396821691        2.8392158138        0.0081943097
 Ga         1.6398778745        4.7320714205        0.6518649456
  N         1.6398489327        4.7321052800        2.5519285930
 Ga         1.6396684440        2.8391958772        3.2445363307
  N         1.6396945360        2.8392483527        5.1617793780
 Ga         1.6398682061        4.7320545531        5.8284528724
  N         1.6398581867        4.7321039733        7.7600286424
 Ga         1.6396483441        2.8391883374        8.4168586708
  N         1.6397769772        2.8394481868       10.3549920822
 Ga         1.6399984328        4.7319239789       11.0043484020
  N         1.6403517852        4.7318592740       12.9411545546
 Ga         1.6403694360        2.8368374477       13.5714720154
  N         1.6480061720        2.8335147778       15.4092657674
 Ga         1.6322139672        4.7373662041       16.2593304640
  N         3.2508358960        3.8020131496       16.9784390205
  N         0.0004513674        5.6784259417        0.0081965206
 Ga         0.0006634706        7.5712668477        0.6518820703
  N         0.0006364720        7.5712398272        2.5519272418
 Ga         0.0004400282        5.6784507028        3.2445310084
  N         0.0004560970        5.6784240920        5.1617684906
 Ga         0.0006720053        7.5713102511        5.8284313972
  N         0.0006115123        7.5712540951        7.7600655795
 Ga         0.0004380923        5.6784508036        8.4168091167
  N         0.0005332092        5.6784545079       10.3550910236
 Ga         0.0008839448        7.5713447373       11.0044392036
  N         0.0010195916        7.5708847349       12.9409047224
 Ga         0.0022094656        5.6771170724       13.5713239571
  N         0.0045359855        5.6735969405       15.4074178085
 Ga        -0.0081951831        7.5777963469       16.2599027441
  N         1.6117749967        6.6453793175       16.9763420658
  N        -1.6387585152        8.5176527475        0.0081646821
 Ga        -1.6385771672       10.4104754150        0.6518790671
  N        -1.6385848236       10.4104898185        2.5519123341
 Ga        -1.6387592300        8.5176689381        3.2445317480
  N        -1.6387620499        8.5176301655        5.1617801549
 Ga        -1.6385481935       10.4105137568        5.8284428919
  N        -1.6385938683       10.4104786746        7.7600964595
 Ga        -1.6387432362        8.5176933884        8.4168003593
  N        -1.6387754865        8.5175301892       10.3551532756
 Ga        -1.6384823040       10.4104856931       11.0047427401
  N        -1.6384906184       10.4099766058       12.9402425937
 Ga        -1.6367250023        8.5165051422       13.5715294780
  N        -1.6242701209        8.5216172105       15.4091912805
 Ga        -1.6446830137       10.4157709740       16.2618077938
  N        -0.0308044336        9.4866571344       16.9739825062
  N         6.5578299213        0.0000022351        0.0081250152
 Ga         6.5580429414        1.8928569375        0.6518793907
  N         6.5579941677        1.8928703852        2.5519088755
 Ga         6.5578592084       -0.0000107144        3.2445739875
  N         6.5578092406        0.0000066965        5.1617604527
 Ga         6.5580614447        1.8928085832        5.8284608588
  N         6.5580062593        1.8928839516        7.7600767892
 Ga         6.5578698521       -0.0000272422        8.4168812652
  N         6.5576489812        0.0001123180       10.3551124244
 Ga         6.5581740134        1.8927132614       11.0048729688
  N         6.5585658774        1.8929367110       12.9401771824
 Ga         6.5613004801       -0.0022897095       13.5723160348
  N         6.5730025516       -0.0133630210       15.4114770313
 Ga         6.5506810830        1.8952661953       16.2613277999
  N         8.1663285418        0.9618810166       16.9762514663
  N         4.9186169597        2.8392233187        0.0081684722
 Ga         4.9187893512        4.7320805122        0.6518665203
  N         4.9187553257        4.7321009710        2.5519200552
 Ga         4.9186290063        2.8392174565        3.2445451897
  N         4.9186119714        2.8392445982        5.1617866705
 Ga         4.9188095813        4.7320584656        5.8284365718
  N         4.9187860866        4.7320896336        7.7600789504
 Ga         4.9186310893        2.8391631486        8.4168019842
  N         4.9185492262        2.8393141154       10.3551582705
 Ga         4.9188947784        4.7320241637       11.0047998208
  N         4.9195816183        4.7315016891       12.9398606345
 Ga         4.9203818998        2.8372378927       13.5709292251
  N         4.9301167171        2.8279135565       15.4095180610
 Ga         4.9127189252        4.7348401414       16.2644756850
  N         6.5297002482        3.8101485856       16.9785931556
  N         3.2793797040        5.6784376099        0.0081919864
 Ga         3.2795884337        7.5712854382        0.6518820169
  N         3.2795329230        7.5712326621        2.5519151716
 Ga         3.2793870941        5.6784702650        3.2445373347
  N         3.2793736996        5.6784182109        5.1617742753
 Ga         3.2795903020        7.5713304470        5.8284399966
  N         3.2795572049        7.5712389044        7.7600897345
 Ga         3.2793618126        5.6784869787        8.4168244693
  N         3.2793115144        5.6783194704       10.3550743497
 Ga         3.2797357065        7.5713971996       11.0052188452
  N         3.2807599217        7.5702642926       12.9390652595
 Ga         3.2827078337        5.6776903085       13.5717099617
  N         3.2908743130        5.6692630970       15.4078489032
 Ga         3.2732200095        7.5754623631       16.2621333199
  N         4.8853875406        6.6419504945       16.9736116554
  N         1.6401575942        8.5176635076        0.0081671492
 Ga         1.6403718486       10.4104908077        0.6519051878
  N         1.6403014042       10.4104851319        2.5518953199
 Ga         1.6401717059        8.5176999141        3.2445502239
  N         1.6401433192        8.5176276319        5.1617724967
 Ga         1.6403684668       10.4105374021        5.8284604772
  N         1.6403091816       10.4104994681        7.7600691392
 Ga         1.6401587082        8.5177434405        8.4169157169
  N         1.6399501179        8.5175601640       10.3549601150
 Ga         1.6405900789       10.4104057917       11.0052920095
  N         1.6409862292       10.4097516535       12.9391962759
 Ga         1.6439332598        8.5157383574       13.5730318982
  N         1.6594417316        8.5061353465       15.4100709965
 Ga         1.6329177306       10.4142958305       16.2572837435
  N         3.2492117077        9.4741343615       16.9753455067
  N         9.8367523932       -0.0000011708        0.0081737327
 Ga         9.8369623783        1.8928287579        0.6518871826
  N         9.8369536881        1.8928837355        2.5518947128
 Ga         9.8367538943       -0.0000189504        3.2445788121
  N         9.8367336660       -0.0000013790        5.1617528717
 Ga         9.8369594799        1.8927836952        5.8284696611
  N         9.8369307001        1.8928771107        7.7600627621
 Ga         9.8367763245       -0.0000196749        8.4168976774
  N         9.8367651731        0.0000469904       10.3550689056
 Ga         9.8371687239        1.8927374073       11.0049288588
  N         9.8372914779        1.8930786638       12.9403469617
 Ga         9.8389057609       -0.0013949191       13.5724539001
  N         9.8402165842       -0.0034372149       15.4063513196
 Ga         9.8290310689        1.8985205469       16.2581815373
  N        11.4478688147        0.9671699803       16.9743087353
  N         8.1975475595        2.8392127462        0.0081878054
 Ga         8.1977446866        4.7320686166        0.6518651244
  N         8.1977137478        4.7321043240        2.5519124888
 Ga         8.1975680875        2.8391865503        3.2445581385
  N         8.1975323131        2.8392331436        5.1617787930
 Ga         8.1977220423        4.7320216133        5.8284461494
  N         8.1977121614        4.7320987837        7.7600867513
 Ga         8.1975996832        2.8391492433        8.4168135160
  N         8.1974678805        2.8393183755       10.3551265699