 DBCSR| Multiplication driver                                               BLAS
 DBCSR| Multrec recursion limit                                              512
 DBCSR| Multiplication stack size                                           1000
 DBCSR| Maximum elements for images                                    UNLIMITED
 DBCSR| Multiplicative factor virtual images                                   1
 DBCSR| Multiplication size stacks                                             3
 DBCSR| Number of 3D layers                                               SINGLE
 DBCSR| Use MPI memory allocation                                              T
 DBCSR| Use RMA algorithm                                                      F
 DBCSR| Use Communication thread                                               T
 DBCSR| Communication thread load                                             87


  **** **** ******  **  PROGRAM STARTED AT               2019-05-15 21:07:36.217
 ***** ** ***  *** **   PROGRAM STARTED ON        blg4120.int.ets1.calculquebec.
 **    ****   ******    PROGRAM STARTED BY                                   rzk
 ***** **    ** ** **   PROGRAM PROCESS ID                                248848
  **** **  *******  **  PROGRAM STARTED IN /lustre03/project/6004141/rzk/GaN-car
                                           bene/00-Surface/00-Preoptimization/33
                                           4-native/Trial3

 CP2K| version string:                    CP2K version 7.0 (Development Version)
 CP2K| source code revision number:                                    svn:18619
 CP2K| cp2kflags: libint fftw3 libxc parallel mpi3 scalapack mkl                
 CP2K| is freely available from                            https://www.cp2k.org/
 CP2K| Program compiled at                          Sun Apr  7 00:48:11 EDT 2019
 CP2K| Program compiled on                      beluga2.int.ets1.calculquebec.ca
 CP2K| Program compiled for                    Beluga-Linux-x86-64-intel-openmpi
 CP2K| Data directory path    /home/rzk/projects/def-rzk/group/cp2k/cp2k-mcgill/
 CP2K| Input file name                                            334-native.inp
 
 GLOBAL| Force Environment number                                              1
 GLOBAL| Basis set file name                                        BASIS_MOLOPT
 GLOBAL| Potential file name                                      GTH_POTENTIALS
 GLOBAL| MM Potential file name                                     MM_POTENTIAL
 GLOBAL| Coordinate file name                                     334-native.xyz
 GLOBAL| Method name                                                        CP2K
 GLOBAL| Project name                                                       TEST
 GLOBAL| Preferred FFT library                                             FFTW3
 GLOBAL| Preferred diagonalization lib.                                       SL
 GLOBAL| Run type                                                       CELL_OPT
 GLOBAL| All-to-all communication in single precision                          F
 GLOBAL| FFTs using library dependent lengths                                  F
 GLOBAL| Global print level                                                  LOW
 GLOBAL| MPI I/O enabled                                                       T
 GLOBAL| Total number of message passing processes                            40
 GLOBAL| Number of threads for this process                                    1
 GLOBAL| This output is from process                                           0
 GLOBAL| CPU model name :  Intel(R) Xeon(R) Gold 6148 CPU @ 2.40GHz

 MEMORY| system memory details [Kb]
 MEMORY|                        rank 0           min           max       average
 MEMORY| MemTotal            196614300     196614300     196614300     196614300
 MEMORY| MemFree             178924356     178921876     178924356     178924294
 MEMORY| Buffers                    76            76            76            76
 MEMORY| Cached                1449088       1449088       1449088       1449088
 MEMORY| Slab                  1138560       1138560       1138560       1138560
 MEMORY| SReclaimable           154824        154824        154824        154824
 MEMORY| MemLikelyFree       180528344     180525864     180528344     180528282

 
 GENERATE|  Preliminary Number of Bonds generated:                             0
 GENERATE|  Achieved consistency in connectivity generation.

 *******************************************************************************
 *******************************************************************************
 **                                                                           **
 **     #####                         ##              ##                      **
 **    ##   ##            ##          ##              ##                      **
 **   ##     ##                       ##            ######                    **
 **   ##     ##  ##   ##  ##   #####  ##  ##   ####   ##    #####    #####    **
 **   ##     ##  ##   ##  ##  ##      ## ##   ##      ##   ##   ##  ##   ##   **
 **   ##  ## ##  ##   ##  ##  ##      ####     ###    ##   ######   ######    **
 **    ##  ###   ##   ##  ##  ##      ## ##      ##   ##   ##       ##        **
 **     #######   #####   ##   #####  ##  ##  ####    ##    #####   ##        **
 **           ##                                                    ##        **
 **                                                                           **
 **                                                ... make the atoms dance   **
 **                                                                           **
 **            Copyright (C) by CP2K developers group (2000 - 2018)           **
 **                                                                           **
 *******************************************************************************


 TOTAL NUMBERS AND MAXIMUM NUMBERS

  Total number of            - Atomic kinds:                                   2
                             - Atoms:                                        144
                             - Shell sets:                                   144
                             - Shells:                                       864
                             - Primitive Cartesian functions:                792
                             - Cartesian basis functions:                   3168
                             - Spherical basis functions:                   2736

  Maximum angular momentum of- Orbital basis functions:                        3
                             - Local part of the GTH pseudopotential:          2
                             - Non-local part of the GTH pseudopotential:      4


 SCF PARAMETERS         Density guess:                                    ATOMIC
                        --------------------------------------------------------
                        max_scf:                                              70
                        max_scf_history:                                       0
                        max_diis:                                              4
                        --------------------------------------------------------
                        eps_scf:                                        1.00E-06
                        eps_scf_history:                                0.00E+00
                        eps_diis:                                       1.00E-01
                        eps_eigval:                                     1.00E-05
                        --------------------------------------------------------
                        level_shift [a.u.]:                                 0.00
                        --------------------------------------------------------
                        Outer loop SCF in use 
                        No variables optimised in outer loop
                        eps_scf                                         1.00E-06
                        max_scf                                               10
                        No outer loop optimization
                        step_size                                       5.00E-01

 CELL_OPT| Pressure tolerance [bar]:                                       100.0
 CELL_OPT| Keep angles between the cell vectors:                             YES
 CELL_OPT| Keep cell symmetry:                                               YES
 CELL_OPT| Constraint:                                                         Z

 BFGS| Use rational function optimization for step estimation:                NO
 BFGS| Use model Hessian for initial guess:                                   NO
 BFGS| Restart Hessian:                                                       NO
 BFGS| Trust radius:                                                       0.472

 *******************************************************************************
 ***                     STARTING   CELL   OPTIMIZATION                      ***
 ***                                   BFGS                                  ***
 *******************************************************************************

 CELL| Volume [angstrom^3]:                                             2432.344
 CELL| Vector a [angstrom]:       9.558     0.000     0.000    |a| =       9.558
 CELL| Vector b [angstrom]:      -4.779     8.277     0.000    |b| =       9.558
 CELL| Vector c [angstrom]:       0.000     0.000    30.744    |c| =      30.744
 CELL| Angle (b,c), alpha [degree]:                                       90.000
 CELL| Angle (a,c), beta  [degree]:                                       90.000
 CELL| Angle (a,b), gamma [degree]:                                      120.000
 CELL| Numerically orthorhombic:                                              NO

 Number of electrons:                                                       1296
 Number of occupied orbitals:                                                648
 Number of molecular orbitals:                                               648

 Number of orbital functions:                                               2736
 Number of independent orbital functions:                                   2736

 Extrapolation method: initial_guess


 SCF WAVEFUNCTION OPTIMIZATION

  ----------------------------------- OT ---------------------------------------
  Minimizer      : CG                  : conjugate gradient
  Preconditioner : FULL_ALL            : diagonalization, state selective
  Precond_solver : DEFAULT
  Line search    : 2PNT                : 2 energies, one gradient
  stepsize       :    0.15000000                  energy_gap     :    0.08000000
  eps_taylor     :   0.10000E-15                  max_taylor     :             4
  ----------------------------------- OT ---------------------------------------

  Step     Update method      Time    Convergence         Total energy    Change
  ------------------------------------------------------------------------------
     1 OT CG       0.15E+00   10.6     0.03705968     -6015.9831757701 -6.02E+03
     2 OT LS       0.45E-01    3.5                    -5770.9618813459
     3 OT CG       0.45E-01    5.7     0.34455825     -5761.7343217675  2.54E+02
     4 OT LS       0.20E-01    3.1                    -4589.9616692933
     5 OT CG       0.20E-01    5.7     0.87786602     -4879.9237430878  8.82E+02
     6 OT LS       0.10E-01    2.7                    -4806.5165521551
     7 OT CG       0.10E-01    6.0     0.65740454     -5202.5472995068 -3.23E+02
     8 OT LS       0.49E-02    2.7                    -4946.1754054655
     9 OT CG       0.49E-02    5.7     0.22240771     -5753.6691221531 -5.51E+02
    10 OT LS       0.36E-02    2.7                    -5814.7924760143
    11 OT CG       0.36E-02    6.0     0.14603507     -5820.4803592031 -6.68E+01
    12 OT LS       0.39E-02    2.7                    -5893.2451266741
    13 OT CG       0.39E-02    5.7     0.07202645     -5894.6357140611 -7.42E+01
    14 OT LS       0.80E-02    3.0                    -5923.1811762882
    15 OT CG       0.80E-02    5.8     0.04061918     -5933.2245067414 -3.86E+01
    16 OT LS       0.84E-02    2.7                    -5945.2315052648
    17 OT CG       0.84E-02    5.7     0.02707901     -5945.3172801126 -1.21E+01
    18 OT LS       0.33E-01    3.0                    -5955.6868936381
    19 OT CG       0.33E-01    5.7     0.04403067     -5969.3517075973 -2.40E+01
    20 OT LS       0.11E-01    2.7                    -5911.3002856218
    21 OT CG       0.11E-01    6.2     0.02958899     -5985.0042869136 -1.57E+01
    22 OT LS       0.13E-01    3.3                    -5994.9699202477
    23 OT CG       0.13E-01    6.7     0.02750415     -5995.5442009041 -1.05E+01
    24 OT LS       0.11E-01    3.2                    -6003.0864994133
    25 OT CG       0.11E-01    7.2     0.01872698     -6003.4889051666 -7.94E+00
    26 OT LS       0.40E-01    3.4                    -6009.2485776899
    27 OT CG       0.40E-01    7.0     0.02717911     -6015.5772401722 -1.21E+01
    28 OT LS       0.16E-01    3.4                    -6003.5786653342
    29 OT CG       0.16E-01    7.4     0.02844334     -6018.6208640876 -3.04E+00
    30 OT LS       0.64E-02    3.2                    -6013.1151104988
    31 OT CG       0.64E-02    7.3     0.01280902     -6023.2344644448 -4.61E+00
    32 OT LS       0.26E-01    3.6                    -6024.9116796123
    33 OT CG       0.26E-01    7.6     0.00936313     -6028.0822026233 -4.85E+00
    34 OT LS       0.44E-01    3.1                    -6031.2103479542
    35 OT CG       0.44E-01    6.8     0.01299452     -6032.0623884113 -3.98E+00
    36 OT LS       0.86E-02    2.8                    -6008.6821402765
    37 OT CG       0.86E-02    5.7     0.00945627     -6033.8385376290 -1.78E+00
    38 OT LS       0.34E-01    2.7                    -6035.2508313223
    39 OT CG       0.34E-01    6.0     0.00532426     -6037.8599689853 -4.02E+00
    40 OT LS       0.70E-01    2.7                    -6039.3508161581
    41 OT CG       0.70E-01    5.7     0.01342500     -6040.0267522496 -2.17E+00
    42 OT LS       0.60E-02    2.7                    -5911.6508502273
    43 OT CG       0.60E-02    5.8     0.00694119     -6041.7996334072 -1.77E+00
    44 OT LS       0.10E-01    2.7                    -6042.1617661525
    45 OT CG       0.10E-01    5.7     0.00597352     -6042.2351448959 -4.36E-01
    46 OT LS       0.41E-01    3.2                    -6042.7980132370
    47 OT CG       0.41E-01    6.7     0.00580278     -6043.5923272775 -1.36E+00
    48 OT LS       0.21E-01    3.2                    -6043.5964779126
    49 OT CG       0.21E-01    6.9     0.00800751     -6044.2018136632 -6.09E-01
    50 OT LS       0.37E-01    3.1                    -6045.8449633955
    51 OT CG       0.37E-01    6.8     0.00702161     -6046.2470683662 -2.05E+00
    52 OT LS       0.31E-01    3.6                    -6047.5295486965
    53 OT CG       0.31E-01    7.0     0.00977755     -6047.5874987521 -1.34E+00
    54 OT LS       0.15E-01    2.9                    -6047.4945366101
    55 OT CG       0.15E-01    5.9     0.00359683     -6048.7338741280 -1.15E+00
    56 OT LS       0.60E-01    2.7                    -6049.0205397817
    57 OT CG       0.60E-01    5.7     0.00515411     -6049.4495271566 -7.16E-01
    58 OT LS       0.12E-01    2.7                    -6044.9293519540
    59 OT CG       0.12E-01    5.8     0.00275175     -6049.8200478369 -3.71E-01
    60 OT LS       0.50E-01    2.7                    -6050.0004559270
    61 OT CG       0.50E-01    5.7     0.00220566     -6050.4215255388 -6.01E-01
    62 OT LS       0.22E-01    3.2                    -6050.3463590067
    63 OT CG       0.22E-01    6.9     0.00273242     -6050.5197843355 -9.83E-02
    64 OT LS       0.86E-01    3.2                    -6050.7659572251
    65 OT CG       0.86E-01    6.8     0.00326387     -6051.1274484202 -6.08E-01
    66 OT LS       0.35E-01    3.3                    -6050.7232439068
    67 OT CG       0.35E-01    7.2     0.00440926     -6051.5123866881 -3.85E-01
    68 OT LS       0.24E-01    3.4                    -6051.8664095874
    69 OT CG       0.24E-01    7.0     0.00307384     -6051.9365951550 -4.24E-01
    70 OT LS       0.80E-01    2.9                    -6052.2805017146

  Leaving inner SCF loop after reaching    70 steps.


  Electronic density on regular grids:      -1295.9999999979        0.0000000021
  Core density on regular grids:             1295.9999999999       -0.0000000001
  Total charge density on r-space grids:        0.0000000020
  Total charge density g-space grids:           0.0000000020

  Overlap energy of the core charge distribution:               0.00000038477260
  Self energy of the core charge distribution:              -8794.40665096074918
  Core Hamiltonian energy:                                   2654.61545506713901
  Hartree energy:                                            1000.09377239548951
  Exchange-correlation energy:                               -911.83936803058225
  Dispersion energy:                                           -0.74371057068290

  Total energy:                                             -6052.28050171461291

  outer SCF iter =    1 RMS gradient =   0.31E-02 energy =      -6052.2805017146

  ----------------------------------- OT ---------------------------------------
  Minimizer      : CG                  : conjugate gradient
  Preconditioner : FULL_ALL            : diagonalization, state selective
  Precond_solver : DEFAULT
  Line search    : 2PNT                : 2 energies, one gradient
  stepsize       :    0.15000000                  energy_gap     :    0.08000000
  eps_taylor     :   0.10000E-15                  max_taylor     :             4
  ----------------------------------- OT ---------------------------------------

  Step     Update method      Time    Convergence         Total energy    Change
  ------------------------------------------------------------------------------
     1 OT CG       0.15E+00   10.5     0.01605851     -6052.6091807710 -6.73E-01
     2 OT LS       0.10E+00    2.7                    -6070.2374470931
     3 OT CG       0.10E+00    5.7     0.03531072     -6072.9062247793 -2.03E+01
     4 OT LS       0.38E-01    2.9                    -6001.1018803767
     5 OT CG       0.38E-01    5.7     0.03200548     -6042.1558727629  3.08E+01
     6 OT LS       0.14E-01    2.7                    -6024.9114477674
     7 OT CG       0.14E-01    5.8     0.02599779     -6045.3057967795 -3.15E+00
     8 OT LS       0.79E-02    2.8                    -6046.9677520739
     9 OT CG       0.79E-02    5.7     0.01570890     -6049.5215604383 -4.22E+00
    10 OT LS       0.23E-01    2.7                    -6052.3859951126
    11 OT CG       0.23E-01    5.8     0.02253469     -6054.6491029014 -5.13E+00
    12 OT LS       0.36E-01    2.7                    -6069.3260238139
    13 OT CG       0.36E-01    5.7     0.01223817     -6070.7800480082 -1.61E+01
    14 OT LS       0.27E-01    2.7                    -6073.9168866450
    15 OT CG       0.27E-01    6.6     0.01382478     -6074.3188431033 -3.54E+00
    16 OT LS       0.28E-01    3.0                    -6078.9654654972
    17 OT CG       0.28E-01    6.7     0.00872452     -6078.9699709955 -4.65E+00
    18 OT LS       0.39E-01    3.1                    -6081.4011293786
    19 OT CG       0.39E-01    6.8     0.00823105     -6081.6093159531 -2.64E+00
    20 OT LS       0.26E-01    3.2                    -6082.8018247674
    21 OT CG       0.26E-01    7.0     0.00597192     -6083.0980394852 -1.49E+00
    22 OT LS       0.40E-01    3.2                    -6084.1984084788
    23 OT CG       0.40E-01    7.0     0.00552026     -6084.3002409375 -1.20E+00
    24 OT LS       0.27E-01    3.1                    -6084.8137736182
    25 OT CG       0.27E-01    6.9     0.00320446     -6084.9425289420 -6.42E-01
    26 OT LS       0.79E-01    3.1                    -6085.3516021723
    27 OT CG       0.79E-01    6.9     0.00193621     -6085.6504094960 -7.08E-01
    28 OT LS       0.60E-01    3.3                    -6085.8212161464
    29 OT CG       0.60E-01    6.6     0.00152795     -6085.8403015767 -1.90E-01
    30 OT LS       0.50E-01    3.1                    -6085.9397509734
    31 OT CG       0.50E-01    5.9     0.00145954     -6085.9441366473 -1.04E-01
    32 OT LS       0.56E-01    2.7                    -6086.0486623375
    33 OT CG       0.56E-01    5.7     0.00147506     -6086.0505616461 -1.06E-01
    34 OT LS       0.44E-01    2.7                    -6086.1296449775
    35 OT CG       0.44E-01    5.7     0.00163242     -6086.1374003245 -8.68E-02
    36 OT LS       0.92E-01    2.7                    -6086.2939330591
    37 OT CG       0.92E-01    6.0     0.00152737     -6086.3496423312 -2.12E-01
    38 OT LS       0.12E+00    2.7                    -6086.5775167707
    39 OT CG       0.12E+00    5.7     0.00203133     -6086.5920106285 -2.42E-01
    40 OT LS       0.33E-01    3.3                    -6085.8638305377
    41 OT CG       0.33E-01    7.0     0.00162662     -6086.7184365029 -1.26E-01
    42 OT LS       0.74E-01    3.2                    -6086.8404753745
    43 OT CG       0.74E-01    6.6     0.00153594     -6086.8990140759 -1.81E-01
    44 OT LS       0.57E-01    3.2                    -6087.0117328553
    45 OT CG       0.57E-01    6.9     0.00127789     -6087.0221929340 -1.23E-01
    46 OT LS       0.76E-01    3.5                    -6087.1259321272
    47 OT CG       0.76E-01    7.0     0.00116973     -6087.1322787092 -1.10E-01
    48 OT LS       0.53E-01    3.2                    -6087.1829399967
    49 OT CG       0.53E-01    5.9     0.00123185     -6087.1940867502 -6.18E-02
    50 OT LS       0.55E-01    2.7                    -6087.2687488520
    51 OT CG       0.55E-01    5.7     0.00093446     -6087.2688632593 -7.48E-02
    52 OT LS       0.11E+00    2.7                    -6087.3332260867
    53 OT CG       0.11E+00    6.0     0.00086983     -6087.3564097808 -8.75E-02
    54 OT LS       0.12E+00    2.7                    -6087.4361503361
    55 OT CG       0.12E+00    5.7     0.00091373     -6087.4363474333 -7.99E-02
    56 OT LS       0.62E-01    3.2                    -6087.4444738137
    57 OT CG       0.62E-01    6.8     0.00098922     -6087.4836703397 -4.73E-02
    58 OT LS       0.67E-01    3.3                    -6087.5415600353
    59 OT CG       0.67E-01    6.8     0.00089237     -6087.5418615248 -5.82E-02
    60 OT LS       0.66E-01    3.4                    -6087.5888734456
    61 OT CG       0.66E-01    6.8     0.00088333     -6087.5888784582 -4.70E-02
    62 OT LS       0.87E-01    3.3                    -6087.6455308878
    63 OT CG       0.87E-01    6.8     0.00072181     -6087.6493584117 -6.05E-02
    64 OT LS       0.12E+00    2.9                    -6087.7021217060
    65 OT CG       0.12E+00    5.8     0.00066384     -6087.7073027708 -5.79E-02
    66 OT LS       0.10E+00    2.7                    -6087.7467683512
    67 OT CG       0.10E+00    5.7     0.00070534     -6087.7482585612 -4.10E-02
    68 OT LS       0.76E-01    2.7                    -6087.7769189755
    69 OT CG       0.76E-01    6.1     0.00062933     -6087.7815279853 -3.33E-02
    70 OT LS       0.89E-01    2.7                    -6087.8122283872

  Leaving inner SCF loop after reaching    70 steps.


  Electronic density on regular grids:      -1295.9999999974        0.0000000026
  Core density on regular grids:             1295.9999999999       -0.0000000001
  Total charge density on r-space grids:        0.0000000025
  Total charge density g-space grids:           0.0000000025

  Overlap energy of the core charge distribution:               0.00000038477260
  Self energy of the core charge distribution:              -8794.40665096074918
  Core Hamiltonian energy:                                   2640.42776633434551
  Hartree energy:                                             988.89745139499087
  Exchange-correlation energy:                               -921.98708496988434
  Dispersion energy:                                           -0.74371057068290

  Total energy:                                             -6087.81222838720714

  outer SCF iter =    2 RMS gradient =   0.63E-03 energy =      -6087.8122283872

  ----------------------------------- OT ---------------------------------------
  Minimizer      : CG                  : conjugate gradient
  Preconditioner : FULL_ALL            : diagonalization, state selective
  Precond_solver : DEFAULT
  Line search    : 2PNT                : 2 energies, one gradient
  stepsize       :    0.15000000                  energy_gap     :    0.08000000
  eps_taylor     :   0.10000E-15                  max_taylor     :             4
  ----------------------------------- OT ---------------------------------------

  Step     Update method      Time    Convergence         Total energy    Change
  ------------------------------------------------------------------------------
     1 OT CG       0.15E+00   10.0     0.00141648     -6087.8129165221 -3.14E-02
     2 OT LS       0.44E-01    3.0                    -6087.4286451542
     3 OT CG       0.44E-01    5.7     0.00274568     -6087.8777771766 -6.49E-02
     4 OT LS       0.40E-01    2.7                    -6088.1073086147
     5 OT CG       0.40E-01    5.9     0.00203697     -6088.1097112054 -2.32E-01
     6 OT LS       0.13E-01    2.7                    -6087.9459005001
     7 OT CG       0.13E-01    5.7     0.00087982     -6088.1581120333 -4.84E-02
     8 OT LS       0.33E-01    2.7                    -6088.1724942898
     9 OT CG       0.33E-01    6.3     0.00034216     -6088.1807710632 -2.27E-02
    10 OT LS       0.12E+00    3.3                    -6088.1866925743
    11 OT CG       0.12E+00    6.7     0.00049629     -6088.1941212982 -1.34E-02
    12 OT LS       0.49E-01    3.1                    -6088.1793156025
    13 OT CG       0.49E-01    6.9     0.00076702     -6088.2045956539 -1.05E-02
    14 OT LS       0.23E-01    3.2                    -6088.2010780594
    15 OT CG       0.23E-01    6.9     0.00040366     -6088.2173741186 -1.28E-02
    16 OT LS       0.30E-01    3.3                    -6088.2214815516
    17 OT CG       0.30E-01    6.7     0.00041248     -6088.2217297844 -4.36E-03
    18 OT LS       0.30E-01    3.1                    -6088.2262544611
    19 OT CG       0.30E-01    6.7     0.00023789     -6088.2262544113 -4.52E-03
    20 OT LS       0.12E+00    3.1                    -6088.2288915660
    21 OT CG       0.12E+00    7.1     0.00025284     -6088.2320524848 -5.80E-03
    22 OT LS       0.14E+00    3.3                    -6088.2394991881
    23 OT CG       0.14E+00    6.8     0.00028414     -6088.2396752512 -7.62E-03
    24 OT LS       0.49E-01    3.2                    -6088.2310571879
    25 OT CG       0.49E-01    5.8     0.00040357     -6088.2428961010 -3.22E-03
    26 OT LS       0.34E-01    2.7                    -6088.2467590948
    27 OT CG       0.34E-01    5.9     0.00025081     -6088.2476096263 -4.71E-03
    28 OT LS       0.81E-01    2.7                    -6088.2506311680
    29 OT CG       0.81E-01    5.7     0.00022947     -6088.2521757885 -4.57E-03
    30 OT LS       0.28E-01    2.7                    -6088.2488268829
    31 OT CG       0.28E-01    5.9     0.00022296     -6088.2535127942 -1.34E-03
    32 OT LS       0.65E-01    2.7                    -6088.2554572884
    33 OT CG       0.65E-01    5.7     0.00014802     -6088.2563734445 -2.86E-03
    34 OT LS       0.61E-01    2.7                    -6088.2575666799
    35 OT CG       0.61E-01    6.5     0.00020251     -6088.2575694919 -1.20E-03
    36 OT LS       0.33E-01    3.3                    -6088.2579416125
    37 OT CG       0.33E-01    6.8     0.00014467     -6088.2587984703 -1.23E-03
    38 OT LS       0.12E+00    3.2                    -6088.2598670956
    39 OT CG       0.12E+00    6.7     0.00016400     -6088.2610365539 -2.24E-03
    40 OT LS       0.32E-01    3.2                    -6088.2560261673
    41 OT CG       0.32E-01    6.6     0.00015167     -6088.2616999677 -6.63E-04
    42 OT LS       0.74E-01    3.3                    -6088.2626120219
    43 OT CG       0.74E-01    6.3     0.00011578     -6088.2630090850 -1.31E-03
    44 OT LS       0.53E-01    2.7                    -6088.2635225322
    45 OT CG       0.53E-01    5.8     0.00013734     -6088.2636238723 -6.15E-04
    46 OT LS       0.38E-01    2.7                    -6088.2641728776
    47 OT CG       0.38E-01    5.9     0.00007777     -6088.2642558109 -6.32E-04
    48 OT LS       0.99E-01    2.7                    -6088.2645882564
    49 OT CG       0.99E-01    5.8     0.00007656     -6088.2647933541 -5.38E-04
    50 OT LS       0.36E-01    2.7                    -6088.2644142311
    51 OT CG       0.36E-01    6.4     0.00007275     -6088.2649854742 -1.92E-04
    52 OT LS       0.68E-01    3.2                    -6088.2652364465
    53 OT CG       0.68E-01    6.7     0.00005301     -6088.2653061851 -3.21E-04
    54 OT LS       0.93E-01    3.2                    -6088.2655224844
    55 OT CG       0.93E-01    6.7     0.00008198     -6088.2655395765 -2.33E-04
    56 OT LS       0.37E-01    3.1                    -6088.2652396598
    57 OT CG       0.37E-01    6.7     0.00005279     -6088.2657575361 -2.18E-04
    58 OT LS       0.10E+00    3.1                    -6088.2659054370
    59 OT CG       0.10E+00    6.6     0.00005451     -6088.2660091103 -2.52E-04
    60 OT LS       0.39E-01    3.1                    -6088.2658473377
    61 OT CG       0.39E-01    6.7     0.00005617     -6088.2661132605 -1.04E-04
    62 OT LS       0.90E-01    3.3                    -6088.2662851984
    63 OT CG       0.90E-01    6.8     0.00005097     -6088.2663675224 -2.54E-04
    64 OT LS       0.68E-01    3.2                    -6088.2665062565
    65 OT CG       0.68E-01    6.8     0.00006308     -6088.2665227805 -1.55E-04
    66 OT LS       0.37E-01    3.3                    -6088.2665633702
    67 OT CG       0.37E-01    5.8     0.00004174     -6088.2666551081 -1.32E-04
    68 OT LS       0.11E+00    2.7                    -6088.2667500106
    69 OT CG       0.11E+00    5.9     0.00004797     -6088.2668192612 -1.64E-04
    70 OT LS       0.40E-01    2.7                    -6088.2666740439

  Leaving inner SCF loop after reaching    70 steps.


  Electronic density on regular grids:      -1295.9999999972        0.0000000028
  Core density on regular grids:             1295.9999999999       -0.0000000001
  Total charge density on r-space grids:        0.0000000027
  Total charge density g-space grids:           0.0000000027

  Overlap energy of the core charge distribution:               0.00000038477260
  Self energy of the core charge distribution:              -8794.40665096074918
  Core Hamiltonian energy:                                   2639.66659310744899
  Hartree energy:                                             989.19411588342155
  Exchange-correlation energy:                               -921.97702188815651
  Dispersion energy:                                           -0.74371057068290

  Total energy:                                             -6088.26667404394539

  outer SCF iter =    3 RMS gradient =   0.48E-04 energy =      -6088.2666740439

  ----------------------------------- OT ---------------------------------------
  Minimizer      : CG                  : conjugate gradient
  Preconditioner : FULL_ALL            : diagonalization, state selective
  Precond_solver : DEFAULT
  Line search    : 2PNT                : 2 energies, one gradient
  stepsize       :    0.15000000                  energy_gap     :    0.08000000
  eps_taylor     :   0.10000E-15                  max_taylor     :             4
  ----------------------------------- OT ---------------------------------------

  Step     Update method      Time    Convergence         Total energy    Change
  ------------------------------------------------------------------------------
     1 OT CG       0.15E+00   10.0     0.00005202     -6088.2668965061 -7.72E-05
     2 OT LS       0.22E-01    2.6                    -6088.2651694841
     3 OT CG       0.22E-01    6.6     0.00003356     -6088.2669497278 -5.32E-05
     4 OT LS       0.58E-01    3.0                    -6088.2669855852
     5 OT CG       0.58E-01    6.6     0.00003062     -6088.2670079286 -5.82E-05
     6 OT LS       0.13E+00    3.1                    -6088.2670826901
     7 OT CG       0.13E+00    6.4     0.00003160     -6088.2671151494 -1.07E-04
     8 OT LS       0.12E+00    3.0                    -6088.2672250792
     9 OT CG       0.12E+00    6.6     0.00003795     -6088.2672251630 -1.10E-04
    10 OT LS       0.30E-01    3.0                    -6088.2668773729
    11 OT CG       0.30E-01    6.0     0.00003413     -6088.2672646417 -3.95E-05
    12 OT LS       0.12E+00    2.7                    -6088.2673196573
    13 OT CG       0.12E+00    5.7     0.00003712     -6088.2673895870 -1.25E-04
    14 OT LS       0.15E+00    2.6                    -6088.2675696184
    15 OT CG       0.15E+00    5.8     0.00004322     -6088.2675794734 -1.90E-04
    16 OT LS       0.75E-01    2.7                    -6088.2675670520
    17 OT CG       0.75E-01    5.7     0.00004138     -6088.2676947811 -1.15E-04
    18 OT LS       0.30E-01    2.7                    -6088.2676447480
    19 OT CG       0.30E-01    5.7     0.00003534     -6088.2677421383 -4.74E-05
    20 OT LS       0.77E-01    2.6                    -6088.2677976098
    21 OT CG       0.77E-01    5.6     0.00002915     -6088.2678312507 -8.91E-05
    22 OT LS       0.16E+00    2.7                    -6088.2679225076
    23 OT CG       0.16E+00    6.0     0.00003833     -6088.2679523343 -1.21E-04
    24 OT LS       0.62E-01    2.7                    -6088.2678446862
    25 OT CG       0.62E-01    5.7     0.00005103     -6088.2680117836 -5.94E-05
    26 OT LS       0.36E-01    2.8                    -6088.2680460223
    27 OT CG       0.36E-01    6.1     0.00003027     -6088.2680915017 -7.97E-05
    28 OT LS       0.13E+00    3.2                    -6088.2681428841
    29 OT CG       0.13E+00    6.7     0.00002502     -6088.2682013205 -1.10E-04
    30 OT LS       0.10E+00    3.5                    -6088.2682528494
    31 OT CG       0.10E+00    6.8     0.00002861     -6088.2682585554 -5.72E-05
    32 OT LS       0.51E-01    3.2                    -6088.2682596501
    33 OT CG       0.51E-01    6.7     0.00003321     -6088.2682942076 -3.57E-05
    34 OT LS       0.55E-01    3.0                    -6088.2683468950
    35 OT CG       0.55E-01    6.6     0.00002674     -6088.2683471098 -5.29E-05
    36 OT LS       0.13E+00    3.1                    -6088.2684006123
    37 OT CG       0.13E+00    6.8     0.00002674     -6088.2684256690 -7.86E-05
    38 OT LS       0.89E-01    3.4                    -6088.2684738150
    39 OT CG       0.89E-01    6.6     0.00002173     -6088.2684833382 -5.77E-05
    40 OT LS       0.43E-01    3.2                    -6088.2684801440
    41 OT CG       0.43E-01    6.6     0.00002369     -6088.2685009485 -1.76E-05
    42 OT LS       0.70E-01    3.1                    -6088.2685301791
    43 OT CG       0.70E-01    6.1     0.00001857     -6088.2685349464 -3.40E-05
    44 OT LS       0.12E+00    2.7                    -6088.2685649072
    45 OT CG       0.12E+00    6.6     0.00001751     -6088.2685720994 -3.72E-05
    46 OT LS       0.83E-01    3.2                    -6088.2685892140
    47 OT CG       0.83E-01    6.5     0.00001559     -6088.2685947596 -2.27E-05
    48 OT LS       0.63E-01    3.1                    -6088.2686070439
    49 OT CG       0.63E-01    6.7     0.00001918     -6088.2686083046 -1.35E-05
    50 OT LS       0.41E-01    3.0                    -6088.2686180746
    51 OT CG       0.41E-01    7.0     0.00001342     -6088.2686219582 -1.37E-05
    52 OT LS       0.14E+00    3.1                    -6088.2686331736
    53 OT CG       0.14E+00    6.3     0.00001273     -6088.2686440107 -2.21E-05
    54 OT LS       0.16E+00    2.9                    -6088.2686671943
    55 OT CG       0.16E+00    5.7     0.00001432     -6088.2686678782 -2.39E-05
    56 OT LS       0.45E-01    2.7                    -6088.2686183347
    57 OT CG       0.45E-01    5.9     0.00001469     -6088.2686764087 -8.53E-06
    58 OT LS       0.49E-01    2.7                    -6088.2686860066
    59 OT CG       0.49E-01    5.7     0.00001090     -6088.2686860949 -9.69E-06
    60 OT LS       0.12E+00    2.7                    -6088.2686944338
    61 OT CG       0.12E+00    5.9     0.00001204     -6088.2686989768 -1.29E-05
    62 OT LS       0.83E-01    2.7                    -6088.2687071430
    63 OT CG       0.83E-01    5.7     0.00001139     -6088.2687093933 -1.04E-05
    64 OT LS       0.42E-01    2.7                    -6088.2687095949
    65 OT CG       0.42E-01    5.9     0.00001139     -6088.2687142703 -4.88E-06
    66 OT LS       0.70E-01    2.7                    -6088.2687210745
    67 OT CG       0.70E-01    5.7     0.00000824     -6088.2687224770 -8.21E-06
    68 OT LS       0.12E+00    3.0                    -6088.2687286119
    69 OT CG       0.12E+00    6.6     0.00000928     -6088.2687299430 -7.47E-06
    70 OT LS       0.77E-01    3.1                    -6088.2687336186

  Leaving inner SCF loop after reaching    70 steps.


  Electronic density on regular grids:      -1295.9999999982        0.0000000018
  Core density on regular grids:             1295.9999999999       -0.0000000001
  Total charge density on r-space grids:        0.0000000017
  Total charge density g-space grids:           0.0000000017

  Overlap energy of the core charge distribution:               0.00000038477260
  Self energy of the core charge distribution:              -8794.40665096074918
  Core Hamiltonian energy:                                   2639.66527123699552
  Hartree energy:                                             989.18925263071560
  Exchange-correlation energy:                               -921.97289633969240
  Dispersion energy:                                           -0.74371057068290

  Total energy:                                             -6088.26873361864091

  outer SCF iter =    4 RMS gradient =   0.93E-05 energy =      -6088.2687336186

  ----------------------------------- OT ---------------------------------------
  Minimizer      : CG                  : conjugate gradient
  Preconditioner : FULL_ALL            : diagonalization, state selective
  Precond_solver : DEFAULT
  Line search    : 2PNT                : 2 energies, one gradient
  stepsize       :    0.15000000                  energy_gap     :    0.08000000
  eps_taylor     :   0.10000E-15                  max_taylor     :             4
  ----------------------------------- OT ---------------------------------------

  Step     Update method      Time    Convergence         Total energy    Change
  ------------------------------------------------------------------------------
     1 OT CG       0.15E+00   13.2     0.00001192     -6088.2687356509 -5.71E-06
     2 OT LS       0.22E-01    3.1                    -6088.2686455065
     3 OT CG       0.22E-01    6.6     0.00000680     -6088.2687384376 -2.79E-06
     4 OT LS       0.68E-01    3.0                    -6088.2687399553
     5 OT CG       0.68E-01    6.5     0.00000511     -6088.2687412268 -2.79E-06
     6 OT LS       0.14E+00    3.4                    -6088.2687436005
     7 OT CG       0.14E+00    6.6     0.00000518     -6088.2687444210 -3.19E-06
     8 OT LS       0.11E+00    3.1                    -6088.2687468934
     9 OT CG       0.11E+00    6.6     0.00000575     -6088.2687470469 -2.63E-06
    10 OT LS       0.15E+00    3.2                    -6088.2687511914
    11 OT CG       0.15E+00    6.4     0.00000681     -6088.2687515612 -4.51E-06
    12 OT LS       0.12E+00    3.1                    -6088.2687563310
    13 OT CG       0.12E+00    6.4     0.00000808     -6088.2687566537 -5.09E-06
    14 OT LS       0.38E-01    2.7                    -6088.2687478157
    15 OT CG       0.38E-01    5.7     0.00000779     -6088.2687587850 -2.13E-06
    16 OT LS       0.90E-01    2.6                    -6088.2687619097
    17 OT CG       0.90E-01    5.8     0.00000655     -6088.2687632857 -4.50E-06
    18 OT LS       0.12E+00    2.6                    -6088.2687671703
    19 OT CG       0.12E+00    5.6     0.00000732     -6088.2687673525 -4.07E-06
    20 OT LS       0.98E-01    2.7                    -6088.2687715216
    21 OT CG       0.98E-01    5.6     0.00000879     -6088.2687718061 -4.45E-06
    22 OT LS       0.40E-01    2.6                    -6088.2687689296
    23 OT CG       0.40E-01    5.8     0.00000795     -6088.2687743835 -2.58E-06
    24 OT LS       0.89E-01    2.7                    -6088.2687776003
    25 OT CG       0.89E-01    6.4     0.00000852     -6088.2687781737 -3.79E-06
    26 OT LS       0.99E-01    3.1                    -6088.2687819281
    27 OT CG       0.99E-01    6.8     0.00001051     -6088.2687818677 -3.69E-06
    28 OT LS       0.70E-01    3.0                    -6088.2687870086
    29 OT CG       0.70E-01    6.6     0.00001062     -6088.2687883616 -6.49E-06
    30 OT LS       0.50E-01    3.0                    -6088.2687921604
    31 OT CG       0.50E-01    6.4     0.00001178     -6088.2687930251 -4.66E-06
    32 OT LS       0.83E-01    3.0                    -6088.2688006109
    33 OT CG       0.83E-01    6.4     0.00001242     -6088.2688004981 -7.47E-06
    34 OT LS       0.58E-01    2.6                    -6088.2688038041
    35 OT CG       0.58E-01    5.7     0.00001207     -6088.2688051452 -4.65E-06
    36 OT LS       0.86E-01    2.6                    -6088.2688145168
    37 OT CG       0.86E-01    5.8     0.00001183     -6088.2688151057 -9.96E-06
    38 OT LS       0.57E-01    2.6                    -6088.2688193732
    39 OT CG       0.57E-01    5.7     0.00001121     -6088.2688213099 -6.20E-06
    40 OT LS       0.33E-01    3.2                    -6088.2688230460
    41 OT CG       0.33E-01    6.4     0.00000752     -6088.2688249244 -3.61E-06
    42 OT LS       0.13E+00    3.0                    -6088.2688276668
    43 OT CG       0.13E+00    6.5     0.00001173     -6088.2688288346 -3.91E-06
    44 OT LS       0.26E-01    3.0                    -6088.2688079144
    45 OT CG       0.26E-01    6.5     0.00001112     -6088.2688306538 -1.82E-06
    46 OT LS       0.59E-01    2.9                    -6088.2688350765
    47 OT CG       0.59E-01    6.6     0.00000710     -6088.2688367986 -6.14E-06
    48 OT LS       0.31E-01    3.1                    -6088.2688370938
    49 OT CG       0.31E-01    6.3     0.00000590     -6088.2688381198 -1.32E-06
    50 OT LS       0.94E-01    2.7                    -6088.2688396770
    51 OT CG       0.94E-01    5.6     0.00000622     -6088.2688403017 -2.18E-06
    52 OT LS       0.83E-01    2.6                    -6088.2688419078
    53 OT CG       0.83E-01    5.9     0.00000734     -6088.2688419947 -1.69E-06
    54 OT LS       0.80E-01    2.6                    -6088.2688455036
    55 OT CG       0.80E-01    5.6     0.00000635     -6088.2688455285 -3.53E-06
    56 OT LS       0.92E-01    2.6                    -6088.2688483566
    57 OT CG       0.92E-01    5.9     0.00001061     -6088.2688483191 -2.79E-06
    58 OT LS       0.42E-01    2.6                    -6088.2688469327
    59 OT CG       0.42E-01    5.6     0.00000769     -6088.2688520836 -3.76E-06
    60 OT LS       0.87E-01    2.6                    -6088.2688552413
    61 OT CG       0.87E-01    5.8     0.00000814     -6088.2688556807 -3.60E-06
    62 OT LS       0.50E-01    2.6                    -6088.2688565827
    63 OT CG       0.50E-01    5.6     0.00000931     -6088.2688577992 -2.12E-06
    64 OT LS       0.46E-01    3.0                    -6088.2688609899
    65 OT CG       0.46E-01    6.8     0.00000640     -6088.2688610799 -3.28E-06
    66 OT LS       0.87E-01    3.0                    -6088.2688630562
    67 OT CG       0.87E-01    6.7     0.00001058     -6088.2688628976 -1.82E-06
    68 OT LS       0.37E-01    3.2                    -6088.2688614635
    69 OT CG       0.37E-01    6.6     0.00001053     -6088.2688652400 -2.34E-06
    70 OT LS       0.41E-01    3.1                    -6088.2688691652

  Leaving inner SCF loop after reaching    70 steps.


  Electronic density on regular grids:      -1295.9999972777        0.0000027223
  Core density on regular grids:             1295.9999999999       -0.0000000001
  Total charge density on r-space grids:        0.0000027222
  Total charge density g-space grids:           0.0000027222

  Overlap energy of the core charge distribution:               0.00000038477260
  Self energy of the core charge distribution:              -8794.40665096074918
  Core Hamiltonian energy:                                   2639.66222635039821
  Hartree energy:                                             989.19110795841516
  Exchange-correlation energy:                               -921.97184232738005
  Dispersion energy:                                           -0.74371057068290

  Total energy:                                             -6088.26886916522653

  outer SCF iter =    5 RMS gradient =   0.11E-04 energy =      -6088.2688691652

  ----------------------------------- OT ---------------------------------------
  Minimizer      : CG                  : conjugate gradient
  Preconditioner : FULL_ALL            : diagonalization, state selective
  Precond_solver : DEFAULT
  Line search    : 2PNT                : 2 energies, one gradient
  stepsize       :    0.15000000                  energy_gap     :    0.08000000
  eps_taylor     :   0.10000E-15                  max_taylor     :             4
  ----------------------------------- OT ---------------------------------------

  Step     Update method      Time    Convergence         Total energy    Change
  ------------------------------------------------------------------------------
     1 OT CG       0.15E+00   13.0     0.00001513     -6088.2688691748 -3.93E-06
     2 OT LS       0.12E-01    3.0                    -6088.2685420741
     3 OT CG       0.12E-01    6.9     0.00001331     -6088.2688461535  2.30E-05
     4 OT LS       0.81E-03    3.0                    -6088.2688228525
     5 OT CG       0.81E-03    6.4     0.00001329     -6088.2688445484  1.61E-06
     6 OT LS       0.55E-04    3.1                    -6088.2688429445
     7 OT CG       0.55E-04    6.3     0.00001329     -6088.2688444394  1.09E-07
     8 OT LS       0.37E-05    3.1                    -6088.2688443303
     9 OT CG       0.37E-05    6.4     0.00001329     -6088.2688444319  7.41E-09
    10 OT LS       0.25E-06    2.6                    -6088.2688444245
    11 OT CG       0.25E-06    5.7     0.00001329     -6088.2688444314  5.02E-10
    12 OT LS       0.17E-07    2.7                    -6088.2688444309
    13 OT CG       0.17E-07    5.7     0.00001329     -6088.2688444314  3.46E-11
    14 OT LS       0.34E-07    2.6                    -6088.2688444314
    15 OT CG       0.34E-07    5.6     0.00001329     -6088.2688444313  6.73E-11
    16 OT LS       0.69E-07    2.8                    -6088.2688444313
    17 OT CG       0.69E-07    5.6     0.00001329     -6088.2688444312  1.38E-10
    18 OT LS       0.47E-08    3.1                    -6088.2688444311
    19 OT CG       0.47E-08    6.9     0.00001329     -6088.2688444312  9.09E-12
    20 OT LS       0.94E-08    3.2                    -6088.2688444312
    21 OT CG       0.94E-08    6.7     0.00001329     -6088.2688444312  1.82E-11
    22 OT LS       0.19E-07    3.3                    -6088.2688444312
    23 OT CG       0.19E-07    6.3     0.00001329     -6088.2688444311  3.82E-11
    24 OT LS       0.38E-07    3.0                    -6088.2688444311
    25 OT CG       0.38E-07    6.5     0.00001329     -6088.2688444311  7.37E-11
    26 OT LS       0.75E-07    3.1                    -6088.2688444310
    27 OT CG       0.75E-07    6.9     0.00001329     -6088.2688444309  1.50E-10
    28 OT LS       0.51E-08    3.2                    -6088.2688444308
    29 OT CG       0.51E-08    6.4     0.00001329     -6088.2688444309  1.09E-11
    30 OT LS       0.10E-07    3.2                    -6088.2688444309
    31 OT CG       0.10E-07    6.4     0.00001329     -6088.2688444309  2.00E-11
    32 OT LS       0.20E-07    3.1                    -6088.2688444309
    33 OT CG       0.20E-07    6.5     0.00001329     -6088.2688444308  4.00E-11
    34 OT LS       0.41E-07    3.0                    -6088.2688444308
    35 OT CG       0.41E-07    6.4     0.00001329     -6088.2688444308  8.28E-11
    36 OT LS       0.82E-07    3.0                    -6088.2688444307
    37 OT CG       0.82E-07    6.4     0.00001329     -6088.2688444306  1.62E-10
    38 OT LS       0.55E-08    2.9                    -6088.2688444304
    39 OT CG       0.55E-08    6.5     0.00001329     -6088.2688444306  1.27E-11
    40 OT LS       0.11E-07    3.0                    -6088.2688444306
    41 OT CG       0.11E-07    6.7     0.00001329     -6088.2688444306  2.09E-11
    42 OT LS       0.22E-07    3.0                    -6088.2688444305
    43 OT CG       0.22E-07    6.5     0.00001329     -6088.2688444305  4.46E-11
    44 OT LS       0.44E-07    2.9                    -6088.2688444305
    45 OT CG       0.44E-07    5.6     0.00001329     -6088.2688444304  8.82E-11
    46 OT LS       0.30E-08    2.6                    -6088.2688444303
    47 OT CG       0.30E-08    5.6     0.00001329     -6088.2688444304  6.37E-12
    48 OT LS       0.60E-08    2.8                    -6088.2688444304
    49 OT CG       0.60E-08    5.6     0.00001329     -6088.2688444304  1.09E-11
    50 OT LS       0.12E-07    2.6                    -6088.2688444304
    51 OT CG       0.12E-07    5.9     0.00001329     -6088.2688444304  2.36E-11
    52 OT LS       0.24E-07    2.6                    -6088.2688444304
    53 OT CG       0.24E-07    5.6     0.00001329     -6088.2688444303  4.82E-11
    54 OT LS       0.48E-07    2.6                    -6088.2688444303
    55 OT CG       0.48E-07    5.9     0.00001329     -6088.2688444302  9.55E-11
    56 OT LS       0.32E-08    2.6                    -6088.2688444302
    57 OT CG       0.32E-08    5.7     0.00001329     -6088.2688444302  6.37E-12
    58 OT LS       0.65E-08    2.6                    -6088.2688444302
    59 OT CG       0.65E-08    6.5     0.00001329     -6088.2688444302  1.27E-11
    60 OT LS       0.13E-07    3.0                    -6088.2688444302
    61 OT CG       0.13E-07    6.6     0.00001329     -6088.2688444302  2.64E-11
    62 OT LS       0.26E-07    3.1                    -6088.2688444302
    63 OT CG       0.26E-07    6.5     0.00001329     -6088.2688444301  5.18E-11
    64 OT LS       0.52E-07    3.2                    -6088.2688444301
    65 OT CG       0.52E-07    6.6     0.00001329     -6088.2688444300  1.02E-10
    66 OT LS       0.35E-08    3.2                    -6088.2688444299
    67 OT CG       0.35E-08    6.4     0.00001329     -6088.2688444300  7.28E-12
    68 OT LS       0.70E-08    3.0                    -6088.2688444300
    69 OT CG       0.70E-08    6.8     0.00001329     -6088.2688444300  1.36E-11
    70 OT LS       0.14E-07    3.0                    -6088.2688444300

  Leaving inner SCF loop after reaching    70 steps.


  Electronic density on regular grids:      -1295.9999576952        0.0000423048
  Core density on regular grids:             1295.9999999999       -0.0000000001
  Total charge density on r-space grids:        0.0000423047
  Total charge density g-space grids:           0.0000423047

  Overlap energy of the core charge distribution:               0.00000038477260
  Self energy of the core charge distribution:              -8794.40665096074918
  Core Hamiltonian energy:                                   2639.66134722371135
  Hartree energy:                                             989.19174711645769
  Exchange-correlation energy:                               -921.97157762352151
  Dispersion energy:                                           -0.74371057068290

  Total energy:                                             -6088.26884443001200

  outer SCF iter =    6 RMS gradient =   0.13E-04 energy =      -6088.2688444300

  ----------------------------------- OT ---------------------------------------
  Minimizer      : CG                  : conjugate gradient
  Preconditioner : FULL_ALL            : diagonalization, state selective
  Precond_solver : DEFAULT
  Line search    : 2PNT                : 2 energies, one gradient
  stepsize       :    0.15000000                  energy_gap     :    0.08000000
  eps_taylor     :   0.10000E-15                  max_taylor     :             4
  ----------------------------------- OT ---------------------------------------

  Step     Update method      Time    Convergence         Total energy    Change
  ------------------------------------------------------------------------------
     1 OT CG       0.15E+00   13.4     0.00001460     -6088.2688444300  2.91E-11
     2 OT LS       0.11E-01    3.2                    -6088.2685068751
     3 OT CG       0.11E-01    6.4     0.00001445     -6088.2688179600  2.65E-05
     4 OT LS       0.71E-03    3.0                    -6088.2687918220
     5 OT CG       0.71E-03    5.6     0.00001444     -6088.2688162170  1.74E-06
     6 OT LS       0.47E-04    2.6                    -6088.2688144756
     7 OT CG       0.47E-04    5.8     0.00001444     -6088.2688161022  1.15E-07
     8 OT LS       0.31E-05    2.6                    -6088.2688159875
     9 OT CG       0.31E-05    5.6     0.00001444     -6088.2688160947  7.56E-09
    10 OT LS       0.20E-06    2.7                    -6088.2688160871
    11 OT CG       0.20E-06    5.7     0.00001444     -6088.2688160942  4.99E-10
    12 OT LS       0.13E-07    2.6                    -6088.2688160937
    13 OT CG       0.13E-07    5.6     0.00001444     -6088.2688160941  3.27E-11
    14 OT LS       0.27E-07    2.7                    -6088.2688160941
    15 OT CG       0.27E-07    6.1     0.00001444     -6088.2688160941  6.55E-11
    16 OT LS       0.54E-07    3.0                    -6088.2688160940
    17 OT CG       0.54E-07    6.3     0.00001444     -6088.2688160939  1.31E-10
    18 OT LS       0.35E-08    3.0                    -6088.2688160938
    19 OT CG       0.35E-08    6.5     0.00001444     -6088.2688160939  8.19E-12
    20 OT LS       0.71E-08    3.0                    -6088.2688160939
    21 OT CG       0.71E-08    6.6     0.00001444     -6088.2688160939  1.73E-11
    22 OT LS       0.14E-07    3.1                    -6088.2688160939
    23 OT CG       0.14E-07    6.5     0.00001444     -6088.2688160939  3.46E-11
    24 OT LS       0.28E-07    2.8                    -6088.2688160938
    25 OT CG       0.28E-07    5.6     0.00001444     -6088.2688160938  6.91E-11
    26 OT LS       0.57E-07    2.6                    -6088.2688160937
    27 OT CG       0.57E-07    5.9     0.00001444     -6088.2688160937  1.38E-10
    28 OT LS       0.37E-08    2.6                    -6088.2688160935
    29 OT CG       0.37E-08    5.6     0.00001444     -6088.2688160937  1.00E-11
    30 OT LS       0.74E-08    2.6                    -6088.2688160936
    31 OT CG       0.74E-08    6.4     0.00001444     -6088.2688160936  1.73E-11
    32 OT LS       0.15E-07    3.0                    -6088.2688160936
    33 OT CG       0.15E-07    6.4     0.00001444     -6088.2688160936  3.73E-11
    34 OT LS       0.30E-07    3.2                    -6088.2688160936
    35 OT CG       0.30E-07    6.6     0.00001444     -6088.2688160935  7.19E-11
    36 OT LS       0.60E-07    3.0                    -6088.2688160935
    37 OT CG       0.60E-07    6.7     0.00001444     -6088.2688160934  1.46E-10
    38 OT LS       0.39E-08    3.2                    -6088.2688160932
    39 OT CG       0.39E-08    6.2     0.00001444     -6088.2688160934  9.09E-12
    40 OT LS       0.79E-08    2.8                    -6088.2688160934
    41 OT CG       0.79E-08    5.6     0.00001444     -6088.2688160934  2.00E-11
    42 OT LS       0.16E-07    2.6                    -6088.2688160933
    43 OT CG       0.16E-07    5.7     0.00001444     -6088.2688160933  3.73E-11
    44 OT LS       0.32E-07    2.7                    -6088.2688160933
    45 OT CG       0.32E-07    5.6     0.00001444     -6088.2688160932  7.73E-11
    46 OT LS       0.63E-07    2.6                    -6088.2688160932
    47 OT CG       0.63E-07    5.7     0.00001444     -6088.2688160931  1.54E-10
    48 OT LS       0.41E-08    2.6                    -6088.2688160929
    49 OT CG       0.41E-08    5.6     0.00001444     -6088.2688160931  1.00E-11
    50 OT LS       0.83E-08    2.6                    -6088.2688160931
    51 OT CG       0.83E-08    5.8     0.00001444     -6088.2688160931  2.09E-11
    52 OT LS       0.17E-07    2.6                    -6088.2688160930
    53 OT CG       0.17E-07    5.6     0.00001444     -6088.2688160930  3.91E-11
    54 OT LS       0.33E-07    2.6                    -6088.2688160930
    55 OT CG       0.33E-07    6.8     0.00001444     -6088.2688160929  8.09E-11
    56 OT LS       0.66E-07    3.3                    -6088.2688160929
    57 OT CG       0.66E-07    6.3     0.00001444     -6088.2688160928  1.63E-10
    58 OT LS       0.44E-08    3.1                    -6088.2688160926
    59 OT CG       0.44E-08    6.3     0.00001444     -6088.2688160928  1.00E-11
    60 OT LS       0.88E-08    3.5                    -6088.2688160928
    61 OT CG       0.88E-08    6.6     0.00001444     -6088.2688160927  2.09E-11
    62 OT LS       0.18E-07    3.2                    -6088.2688160927
    63 OT CG       0.18E-07    6.6     0.00001444     -6088.2688160927  4.37E-11
    64 OT LS       0.35E-07    3.1                    -6088.2688160927
    65 OT CG       0.35E-07    7.0     0.00001444     -6088.2688160926  8.55E-11
    66 OT LS       0.70E-07    3.0                    -6088.2688160925
    67 OT CG       0.70E-07    6.3     0.00001444     -6088.2688160924  1.71E-10
    68 OT LS       0.46E-08    3.1                    -6088.2688160923
    69 OT CG       0.46E-08    6.5     0.00001444     -6088.2688160924  1.09E-11
    70 OT LS       0.92E-08    3.1                    -6088.2688160924

  Leaving inner SCF loop after reaching    70 steps.


  Electronic density on regular grids:      -1295.9999140706        0.0000859294
  Core density on regular grids:             1295.9999999999       -0.0000000001
  Total charge density on r-space grids:        0.0000859293
  Total charge density g-space grids:           0.0000859293

  Overlap energy of the core charge distribution:               0.00000038477260
  Self energy of the core charge distribution:              -8794.40665096074918
  Core Hamiltonian energy:                                   2639.66111109876601
  Hartree energy:                                             989.19191231057209
  Exchange-correlation energy:                               -921.97147835509986
  Dispersion energy:                                           -0.74371057068290

  Total energy:                                             -6088.26881609242173

  outer SCF iter =    7 RMS gradient =   0.14E-04 energy =      -6088.2688160924

  ----------------------------------- OT ---------------------------------------
  Minimizer      : CG                  : conjugate gradient
  Preconditioner : FULL_ALL            : diagonalization, state selective
  Precond_solver : DEFAULT
  Line search    : 2PNT                : 2 energies, one gradient
  stepsize       :    0.15000000                  energy_gap     :    0.08000000
  eps_taylor     :   0.10000E-15                  max_taylor     :             4
  ----------------------------------- OT ---------------------------------------

  Step     Update method      Time    Convergence         Total energy    Change
  ------------------------------------------------------------------------------
     1 OT CG       0.15E+00   10.5     0.00001582     -6088.2688160924  2.27E-11
     2 OT LS       0.11E-01    2.6                    -6088.2684146884
     3 OT CG       0.11E-01    5.8     0.00001577     -6088.2687846203  3.15E-05
     4 OT LS       0.70E-03    2.6                    -6088.2687535869
     5 OT CG       0.70E-03    5.6     0.00001577     -6088.2687825647  2.06E-06
     6 OT LS       0.46E-04    2.6                    -6088.2687805111
     7 OT CG       0.46E-04    5.8     0.00001577     -6088.2687824303  1.34E-07
     8 OT LS       0.30E-05    2.6                    -6088.2687822959
     9 OT CG       0.30E-05    5.6     0.00001577     -6088.2687824215  8.79E-09
    10 OT LS       0.20E-06    2.7                    -6088.2687824127
    11 OT CG       0.20E-06    6.2     0.00001577     -6088.2687824209  5.76E-10
    12 OT LS       0.13E-07    3.2                    -6088.2687824204
    13 OT CG       0.13E-07    6.6     0.00001577     -6088.2687824209  3.73E-11
    14 OT LS       0.26E-07    3.1                    -6088.2687824209
    15 OT CG       0.26E-07    6.6     0.00001577     -6088.2687824208  7.55E-11
    16 OT LS       0.51E-07    3.1                    -6088.2687824207
    17 OT CG       0.51E-07    6.6     0.00001577     -6088.2687824207  1.50E-10
    18 OT LS       0.33E-08    3.1                    -6088.2687824205
    19 OT CG       0.33E-08    6.5     0.00001577     -6088.2687824207  1.00E-11
    20 OT LS       0.67E-08    2.8                    -6088.2687824206
    21 OT CG       0.67E-08    5.7     0.00001577     -6088.2687824206  1.91E-11
    22 OT LS       0.13E-07    2.6                    -6088.2687824206
    23 OT CG       0.13E-07    5.7     0.00001577     -6088.2687824206  4.00E-11
    24 OT LS       0.27E-07    2.6                    -6088.2687824206
    25 OT CG       0.27E-07    5.6     0.00001577     -6088.2687824205  7.73E-11
    26 OT LS       0.54E-07    2.6                    -6088.2687824204
    27 OT CG       0.54E-07    6.5     0.00001577     -6088.2687824204  1.57E-10
    28 OT LS       0.35E-08    3.3                    -6088.2687824202
    29 OT CG       0.35E-08    6.5     0.00001577     -6088.2687824204  1.00E-11
    30 OT LS       0.70E-08    3.2                    -6088.2687824203
    31 OT CG       0.70E-08    6.6     0.00001577     -6088.2687824203  2.00E-11
    32 OT LS       0.14E-07    3.0                    -6088.2687824203
    33 OT CG       0.14E-07    6.4     0.00001577     -6088.2687824203  4.18E-11
    34 OT LS       0.28E-07    3.0                    -6088.2687824203
    35 OT CG       0.28E-07    6.4     0.00001577     -6088.2687824202  8.09E-11
    36 OT LS       0.56E-07    2.8                    -6088.2687824201
    37 OT CG       0.56E-07    5.7     0.00001577     -6088.2687824200  1.64E-10
    38 OT LS       0.37E-08    2.6                    -6088.2687824199
    39 OT CG       0.37E-08    5.6     0.00001577     -6088.2687824200  1.18E-11
    40 OT LS       0.73E-08    2.7                    -6088.2687824200
    41 OT CG       0.73E-08    5.6     0.00001577     -6088.2687824200  2.09E-11
    42 OT LS       0.15E-07    2.6                    -6088.2687824200
    43 OT CG       0.15E-07    5.7     0.00001577     -6088.2687824200  4.18E-11
    44 OT LS       0.29E-07    2.6                    -6088.2687824199
    45 OT CG       0.29E-07    5.6     0.00001577     -6088.2687824199  8.73E-11
    46 OT LS       0.59E-07    2.6                    -6088.2687824198
    47 OT CG       0.59E-07    5.7     0.00001577     -6088.2687824197  1.71E-10
    48 OT LS       0.38E-08    2.6                    -6088.2687824195
    49 OT CG       0.38E-08    5.6     0.00001577     -6088.2687824197  1.09E-11
    50 OT LS       0.77E-08    2.6                    -6088.2687824197
    51 OT CG       0.77E-08    6.4     0.00001577     -6088.2687824197  2.36E-11
    52 OT LS       0.15E-07    3.1                    -6088.2687824197
    53 OT CG       0.15E-07    6.4     0.00001577     -6088.2687824196  4.37E-11
    54 OT LS       0.31E-07    3.0                    -6088.2687824196
    55 OT CG       0.31E-07    6.6     0.00001577     -6088.2687824195  9.09E-11
    56 OT LS       0.61E-07    3.1                    -6088.2687824195
    57 OT CG       0.61E-07    6.6     0.00001577     -6088.2687824194  1.80E-10
    58 OT LS       0.40E-08    3.1                    -6088.2687824192
    59 OT CG       0.40E-08    7.0     0.00001577     -6088.2687824194  1.09E-11
    60 OT LS       0.81E-08    3.2                    -6088.2687824193
    61 OT CG       0.81E-08    6.5     0.00001577     -6088.2687824193  2.36E-11
    62 OT LS       0.16E-07    3.3                    -6088.2687824193
    63 OT CG       0.16E-07    6.4     0.00001577     -6088.2687824193  4.82E-11
    64 OT LS       0.32E-07    2.9                    -6088.2687824192
    65 OT CG       0.32E-07    6.7     0.00001577     -6088.2687824192  9.46E-11
    66 OT LS       0.21E-08    3.1                    -6088.2687824191
    67 OT CG       0.21E-08    6.3     0.00001577     -6088.2687824192  5.46E-12
    68 OT LS       0.42E-08    2.6                    -6088.2687824192
    69 OT CG       0.42E-08    5.8     0.00001577     -6088.2687824192  1.27E-11
    70 OT LS       0.84E-08    2.6                    -6088.2687824192

  Leaving inner SCF loop after reaching    70 steps.


  Electronic density on regular grids:      -1295.9998627429        0.0001372571
  Core density on regular grids:             1295.9999999999       -0.0000000001
  Total charge density on r-space grids:        0.0001372570
  Total charge density g-space grids:           0.0001372570

  Overlap energy of the core charge distribution:               0.00000038477260
  Self energy of the core charge distribution:              -8794.40665096074918
  Core Hamiltonian energy:                                   2639.66098647745184
  Hartree energy:                                             989.19200179753670
  Exchange-correlation energy:                               -921.97140954748807
  Dispersion energy:                                           -0.74371057068290

  Total energy:                                             -6088.26878241915892

  outer SCF iter =    8 RMS gradient =   0.16E-04 energy =      -6088.2687824192

  ----------------------------------- OT ---------------------------------------
  Minimizer      : CG                  : conjugate gradient
  Preconditioner : FULL_ALL            : diagonalization, state selective
  Precond_solver : DEFAULT
  Line search    : 2PNT                : 2 energies, one gradient
  stepsize       :    0.15000000                  energy_gap     :    0.08000000
  eps_taylor     :   0.10000E-15                  max_taylor     :             4
  ----------------------------------- OT ---------------------------------------

  Step     Update method      Time    Convergence         Total energy    Change
  ------------------------------------------------------------------------------
     1 OT CG       0.15E+00    9.9     0.00001728     -6088.2687824191  2.46E-11
     2 OT LS       0.11E-01    2.6                    -6088.2683020106
     3 OT CG       0.11E-01    5.9     0.00001726     -6088.2687447394  3.77E-05
     4 OT LS       0.70E-03    2.6                    -6088.2687075998
     5 OT CG       0.70E-03    5.6     0.00001726     -6088.2687422818  2.46E-06
     6 OT LS       0.46E-04    2.6                    -6088.2687398266
     7 OT CG       0.46E-04    6.1     0.00001726     -6088.2687421213  1.61E-07
     8 OT LS       0.30E-05    3.1                    -6088.2687419607
     9 OT CG       0.30E-05    6.6     0.00001726     -6088.2687421108  1.05E-08
    10 OT LS       0.20E-06    3.5                    -6088.2687421003
    11 OT CG       0.20E-06    6.7     0.00001726     -6088.2687421101  6.86E-10
    12 OT LS       0.13E-07    3.4                    -6088.2687421094
    13 OT CG       0.13E-07    6.4     0.00001726     -6088.2687421101  4.46E-11
    14 OT LS       0.25E-07    3.0                    -6088.2687421100
    15 OT CG       0.25E-07    6.7     0.00001726     -6088.2687421100  9.00E-11
    16 OT LS       0.51E-07    2.8                    -6088.2687421099
    17 OT CG       0.51E-07    5.6     0.00001726     -6088.2687421098  1.79E-10
    18 OT LS       0.33E-08    2.6                    -6088.2687421096
    19 OT CG       0.33E-08    5.7     0.00001726     -6088.2687421098  1.18E-11
    20 OT LS       0.67E-08    2.6                    -6088.2687421098
    21 OT CG       0.67E-08    5.6     0.00001726     -6088.2687421097  2.27E-11
    22 OT LS       0.13E-07    2.6                    -6088.2687421097
    23 OT CG       0.13E-07    6.5     0.00001726     -6088.2687421097  4.73E-11
    24 OT LS       0.27E-07    3.2                    -6088.2687421097
    25 OT CG       0.27E-07    6.7     0.00001726     -6088.2687421096  9.37E-11
    26 OT LS       0.17E-08    3.2                    -6088.2687421095
    27 OT CG       0.17E-08    6.8     0.00001726     -6088.2687421096  6.37E-12
    28 OT LS       0.35E-08    3.1                    -6088.2687421096
    29 OT CG       0.35E-08    6.5     0.00001726     -6088.2687421096  1.18E-11
    30 OT LS       0.70E-08    3.0                    -6088.2687421096
    31 OT CG       0.70E-08    6.5     0.00001726     -6088.2687421096  2.46E-11
    32 OT LS       0.14E-07    2.8                    -6088.2687421095
    33 OT CG       0.14E-07    5.6     0.00001726     -6088.2687421095  4.91E-11
    34 OT LS       0.28E-07    2.6                    -6088.2687421095
    35 OT CG       0.28E-07    5.7     0.00001726     -6088.2687421094  9.73E-11
    36 OT LS       0.18E-08    2.8                    -6088.2687421093
    37 OT CG       0.18E-08    5.6     0.00001726     -6088.2687421094  7.28E-12
    38 OT LS       0.37E-08    2.6                    -6088.2687421094
    39 OT CG       0.37E-08    5.8     0.00001726     -6088.2687421094  1.18E-11
    40 OT LS       0.73E-08    2.6                    -6088.2687421094
    41 OT CG       0.73E-08    5.6     0.00001726     -6088.2687421094  2.64E-11
    42 OT LS       0.15E-07    2.6                    -6088.2687421093
    43 OT CG       0.15E-07    6.0     0.00001726     -6088.2687421093  5.09E-11
    44 OT LS       0.29E-07    2.6                    -6088.2687421093
    45 OT CG       0.29E-07    5.6     0.00001726     -6088.2687421092  1.03E-10
    46 OT LS       0.19E-08    2.6                    -6088.2687421091
    47 OT CG       0.19E-08    6.5     0.00001726     -6088.2687421092  7.28E-12
    48 OT LS       0.38E-08    3.1                    -6088.2687421092
    49 OT CG       0.38E-08    6.5     0.00001726     -6088.2687421092  1.27E-11
    50 OT LS       0.76E-08    2.9                    -6088.2687421092
    51 OT CG       0.76E-08    6.5     0.00001726     -6088.2687421092  2.64E-11
    52 OT LS       0.15E-07    3.2                    -6088.2687421091
    53 OT CG       0.15E-07    6.4     0.00001726     -6088.2687421091  5.37E-11
    54 OT LS       0.30E-07    3.0                    -6088.2687421091
    55 OT CG       0.30E-07    6.5     0.00001726     -6088.2687421090  1.06E-10
    56 OT LS       0.20E-08    3.0                    -6088.2687421089
    57 OT CG       0.20E-08    6.3     0.00001726     -6088.2687421090  6.37E-12
    58 OT LS       0.40E-08    3.2                    -6088.2687421090
    59 OT CG       0.40E-08    6.6     0.00001726     -6088.2687421090  1.46E-11
    60 OT LS       0.79E-08    3.2                    -6088.2687421090
    61 OT CG       0.79E-08    6.4     0.00001726     -6088.2687421090  2.73E-11
    62 OT LS       0.16E-07    3.1                    -6088.2687421089
    63 OT CG       0.16E-07    6.2     0.00001726     -6088.2687421089  5.73E-11
    64 OT LS       0.32E-07    2.6                    -6088.2687421089
    65 OT CG       0.32E-07    5.8     0.00001726     -6088.2687421088  1.10E-10
    66 OT LS       0.21E-08    2.6                    -6088.2687421087
    67 OT CG       0.21E-08    5.6     0.00001726     -6088.2687421088  7.28E-12
    68 OT LS       0.41E-08    2.6                    -6088.2687421088
    69 OT CG       0.41E-08    5.7     0.00001726     -6088.2687421088  1.46E-11
    70 OT LS       0.83E-08    2.6                    -6088.2687421088

  Leaving inner SCF loop after reaching    70 steps.


  Electronic density on regular grids:      -1295.9998017498        0.0001982502
  Core density on regular grids:             1295.9999999999       -0.0000000001
  Total charge density on r-space grids:        0.0001982501
  Total charge density g-space grids:           0.0001982501

  Overlap energy of the core charge distribution:               0.00000038477260
  Self energy of the core charge distribution:              -8794.40665096074918
  Core Hamiltonian energy:                                   2639.66088943168597
  Hartree energy:                                             989.19207514838172
  Exchange-correlation energy:                               -921.97134554216734
  Dispersion energy:                                           -0.74371057068290

  Total energy:                                             -6088.26874210875940

  outer SCF iter =    9 RMS gradient =   0.17E-04 energy =      -6088.2687421088

  ----------------------------------- OT ---------------------------------------
  Minimizer      : CG                  : conjugate gradient
  Preconditioner : FULL_ALL            : diagonalization, state selective
  Precond_solver : DEFAULT
  Line search    : 2PNT                : 2 energies, one gradient
  stepsize       :    0.15000000                  energy_gap     :    0.08000000
  eps_taylor     :   0.10000E-15                  max_taylor     :             4
  ----------------------------------- OT ---------------------------------------

  Step     Update method      Time    Convergence         Total energy    Change
  ------------------------------------------------------------------------------
     1 OT CG       0.15E+00    9.9     0.00001894     -6088.2687421087  2.91E-11
     2 OT LS       0.11E-01    3.0                    -6088.2681662129
     3 OT CG       0.11E-01    7.1     0.00001892     -6088.2686968288  4.53E-05
     4 OT LS       0.70E-03    3.0                    -6088.2686522096
     5 OT CG       0.70E-03    6.7     0.00001892     -6088.2686938718  2.96E-06
     6 OT LS       0.46E-04    3.1                    -6088.2686909176
     7 OT CG       0.46E-04    6.9     0.00001892     -6088.2686936783  1.93E-07
     8 OT LS       0.30E-05    3.0                    -6088.2686934848
     9 OT CG       0.30E-05    6.7     0.00001892     -6088.2686936657  1.27E-08
    10 OT LS       0.20E-06    3.2                    -6088.2686936530
    11 OT CG       0.20E-06    6.4     0.00001892     -6088.2686936648  8.28E-10
    12 OT LS       0.13E-07    3.0                    -6088.2686936640
    13 OT CG       0.13E-07    6.5     0.00001892     -6088.2686936648  5.37E-11
    14 OT LS       0.26E-07    3.1                    -6088.2686936647
    15 OT CG       0.26E-07    6.7     0.00001892     -6088.2686936647  1.09E-10
    16 OT LS       0.17E-08    3.0                    -6088.2686936646
    17 OT CG       0.17E-08    6.6     0.00001892     -6088.2686936647  7.28E-12
    18 OT LS       0.34E-08    3.0                    -6088.2686936646
    19 OT CG       0.34E-08    6.5     0.00001892     -6088.2686936646  1.46E-11
    20 OT LS       0.68E-08    3.1                    -6088.2686936646
    21 OT CG       0.68E-08    6.6     0.00001892     -6088.2686936646  2.82E-11
    22 OT LS       0.14E-07    3.4                    -6088.2686936646
    23 OT CG       0.14E-07    6.4     0.00001892     -6088.2686936646  5.73E-11
    24 OT LS       0.27E-07    3.1                    -6088.2686936645
    25 OT CG       0.27E-07    6.5     0.00001892     -6088.2686936644  1.15E-10
    26 OT LS       0.18E-08    3.0                    -6088.2686936643
    27 OT CG       0.18E-08    5.9     0.00001892     -6088.2686936644  7.28E-12
    28 OT LS       0.36E-08    2.6                    -6088.2686936644
    29 OT CG       0.36E-08    5.6     0.00001892     -6088.2686936644  1.55E-11
    30 OT LS       0.72E-08    2.6                    -6088.2686936644
    31 OT CG       0.72E-08    5.8     0.00001892     -6088.2686936644  3.00E-11
    32 OT LS       0.14E-07    2.6                    -6088.2686936644
    33 OT CG       0.14E-07    5.7     0.00001892     -6088.2686936643  6.09E-11
    34 OT LS       0.29E-07    2.7                    -6088.2686936643
    35 OT CG       0.29E-07    5.6     0.00001892     -6088.2686936642  1.21E-10
    36 OT LS       0.19E-08    2.6                    -6088.2686936641
    37 OT CG       0.19E-08    5.7     0.00001892     -6088.2686936642  7.28E-12
    38 OT LS       0.38E-08    2.7                    -6088.2686936642
    39 OT CG       0.38E-08    5.6     0.00001892     -6088.2686936642  1.55E-11
    40 OT LS       0.76E-08    2.6                    -6088.2686936642
    41 OT CG       0.76E-08    5.8     0.00001892     -6088.2686936641  3.27E-11
    42 OT LS       0.15E-07    3.1                    -6088.2686936641
    43 OT CG       0.15E-07    6.4     0.00001892     -6088.2686936641  6.28E-11
    44 OT LS       0.30E-07    3.1                    -6088.2686936640
    45 OT CG       0.30E-07    6.6     0.00001892     -6088.2686936640  1.29E-10
    46 OT LS       0.20E-08    3.1                    -6088.2686936638
    47 OT CG       0.20E-08    6.8     0.00001892     -6088.2686936639  8.19E-12
    48 OT LS       0.40E-08    3.0                    -6088.2686936639
    49 OT CG       0.40E-08    6.7     0.00001892     -6088.2686936639  1.64E-11
    50 OT LS       0.80E-08    3.0                    -6088.2686936639
    51 OT CG       0.80E-08    6.7     0.00001892     -6088.2686936639  3.37E-11
    52 OT LS       0.16E-07    3.3                    -6088.2686936639
    53 OT CG       0.16E-07    6.5     0.00001892     -6088.2686936638  6.73E-11
    54 OT LS       0.32E-07    3.0                    -6088.2686936638
    55 OT CG       0.32E-07    6.5     0.00001892     -6088.2686936637  1.35E-10
    56 OT LS       0.21E-08    3.1                    -6088.2686936636
    57 OT CG       0.21E-08    6.4     0.00001892     -6088.2686936637  9.09E-12
    58 OT LS       0.42E-08    3.0                    -6088.2686936637
    59 OT CG       0.42E-08    5.6     0.00001892     -6088.2686936637  1.73E-11
    60 OT LS       0.84E-08    2.6                    -6088.2686936637
    61 OT CG       0.84E-08    5.8     0.00001892     -6088.2686936636  3.55E-11
    62 OT LS       0.17E-07    2.6                    -6088.2686936636
    63 OT CG       0.17E-07    5.6     0.00001892     -6088.2686936636  7.00E-11
    64 OT LS       0.34E-07    2.8                    -6088.2686936635
    65 OT CG       0.34E-07    5.6     0.00001892     -6088.2686936634  1.42E-10
    66 OT LS       0.22E-08    2.6                    -6088.2686936633
    67 OT CG       0.22E-08    5.8     0.00001892     -6088.2686936634  9.09E-12
    68 OT LS       0.44E-08    3.2                    -6088.2686936634
    69 OT CG       0.44E-08    6.7     0.00001892     -6088.2686936634  1.91E-11
    70 OT LS       0.88E-08    3.0                    -6088.2686936634

  Leaving inner SCF loop after reaching    70 steps.


  Electronic density on regular grids:      -1295.9997289168        0.0002710832
  Core density on regular grids:             1295.9999999999       -0.0000000001
  Total charge density on r-space grids:        0.0002710831
  Total charge density g-space grids:           0.0002710831

[...]

  outer SCF iter =   11 RMS gradient =   0.13E-02 energy =      -6087.6772414202
  outer SCF loop FAILED to converge after   11 iterations or  770 steps


 *** WARNING in qs_scf.F:542 :: SCF run NOT converged ***


 ENERGY| Total FORCE_EVAL ( QS ) energy (a.u.):            -6087.677241420195969


 --------  Informations at step =     7 ------------
  Optimization Method        =                 BFGS
  Total Energy               =     -6087.6772414202
  Internal Pressure [bar]    =     34072.3144751004
  Real energy change         =         0.6879482186
  Predicted change in energy =        -0.0227122376
  Scaling factor             =         0.9296734924
  Step size                  =         0.4724315332
  Trust radius               =         0.4724315332
  Decrease in energy         =                   NO
  Used time                  =             3622.598

  Convergence check :
  Max. step size             =         0.4724315332
  Conv. limit for step size  =         0.0030000000
  Convergence in step size   =                   NO
  RMS step size              =         0.1106081434
  Conv. limit for RMS step   =         0.0015000000
  Convergence in RMS step    =                   NO
  Max. gradient              =         0.1512589172
  Conv. limit for gradients  =         0.0004500000
  Conv. for gradients        =                   NO
  RMS gradient               =         0.0149955416
  Conv. limit for RMS grad.  =         0.0003000000
  Conv. for gradients        =                   NO
  Pressure Deviation [bar]   =     34071.3144751004
  Pressure Tolerance [bar]   =       100.0000000000
  Conv. for  PRESSURE        =                   NO
 ---------------------------------------------------

 --------------------------
 OPTIMIZATION STEP:      8
 --------------------------

 CELL| Volume [angstrom^3]:                                             2503.025
 CELL| Vector a [angstrom]:       9.691     0.000     0.000    |a| =       9.691
 CELL| Vector b [angstrom]:      -4.850     8.401     0.000    |b| =       9.701
 CELL| Vector c [angstrom]:       0.000     0.000    30.744    |c| =      30.744
 CELL| Angle (b,c), alpha [degree]:                                       90.000
 CELL| Angle (a,c), beta  [degree]:                                       90.000
 CELL| Angle (a,b), gamma [degree]:                                      120.000
 CELL| Numerically orthorhombic:                                              NO

 Number of electrons:                                                       1296
 Number of occupied orbitals:                                                648
 Number of molecular orbitals:                                               648

 Number of orbital functions:                                               2736
 Number of independent orbital functions:                                   2736

 Extrapolation method: ASPC


 SCF WAVEFUNCTION OPTIMIZATION

  ----------------------------------- OT ---------------------------------------
  Minimizer      : CG                  : conjugate gradient
  Preconditioner : FULL_ALL            : diagonalization, state selective
  Precond_solver : DEFAULT
  Line search    : 2PNT                : 2 energies, one gradient
  stepsize       :    0.15000000                  energy_gap     :    0.08000000
  eps_taylor     :   0.10000E-15                  max_taylor     :             4
  ----------------------------------- OT ---------------------------------------

  Step     Update method      Time    Convergence         Total energy    Change
  ------------------------------------------------------------------------------
     1 OT CG       0.15E+00    7.4     0.00912300     -6083.9941972591 -6.08E+03
     2 OT LS       0.61E-01    3.1                    -6078.8615961136
     3 OT CG       0.61E-01    6.5     0.01132576     -6084.8029887171 -8.09E-01
     4 OT LS       0.37E-01    3.1                    -6086.6604790268
     5 OT CG       0.37E-01    6.6     0.00383989     -6087.2422456502 -2.44E+00
     6 OT LS       0.39E-01    3.1                    -6087.7539469567
     7 OT CG       0.39E-01    6.4     0.00193257     -6087.7574759932 -5.15E-01
     8 OT LS       0.59E-01    3.0                    -6087.9370576053
     9 OT CG       0.59E-01    6.5     0.00189005     -6087.9521202147 -1.95E-01
    10 OT LS       0.59E-01    3.1                    -6088.1175956609
    11 OT CG       0.59E-01    6.6     0.00131066     -6088.1176783054 -1.66E-01
    12 OT LS       0.38E-01    3.0                    -6088.1586954170
    13 OT CG       0.38E-01    6.4     0.00080113     -6088.1741172807 -5.64E-02
    14 OT LS       0.50E-01    3.0                    -6088.2008174859
    15 OT CG       0.50E-01    6.6     0.00052207     -6088.2022430101 -2.81E-02
    16 OT LS       0.71E-01    3.0                    -6088.2176343697
    17 OT CG       0.71E-01    6.5     0.00047807     -6088.2191965357 -1.70E-02
    18 OT LS       0.70E-01    2.9                    -6088.2335171938
    19 OT CG       0.70E-01    6.4     0.00043522     -6088.2335196333 -1.43E-02
    20 OT LS       0.81E-01    3.2                    -6088.2468598474
    21 OT CG       0.81E-01    6.5     0.00044966     -6088.2470831745 -1.36E-02
    22 OT LS       0.63E-01    3.0                    -6088.2572079495
    23 OT CG       0.63E-01    5.7     0.00035725     -6088.2581284204 -1.10E-02
    24 OT LS       0.84E-01    2.7                    -6088.2670439952
    25 OT CG       0.84E-01    5.7     0.00037458     -6088.2676015412 -9.47E-03
    26 OT LS       0.75E-01    2.6                    -6088.2765907475
    27 OT CG       0.75E-01    5.6     0.00036305     -6088.2767492480 -9.15E-03
    28 OT LS       0.74E-01    2.9                    -6088.2853625624
    29 OT CG       0.74E-01    5.6     0.00031199     -6088.2853623400 -8.61E-03
    30 OT LS       0.69E-01    2.6                    -6088.2912870786
    31 OT CG       0.69E-01    5.9     0.00029644     -6088.2913328044 -5.97E-03
    32 OT LS       0.98E-01    2.6                    -6088.2982295350
    33 OT CG       0.98E-01    5.6     0.00033338     -6088.2988940965 -7.56E-03
    34 OT LS       0.80E-01    2.6                    -6088.3062776651
    35 OT CG       0.80E-01    5.7     0.00033961     -6088.3066715260 -7.78E-03
    36 OT LS       0.84E-01    3.1                    -6088.3152639057
    37 OT CG       0.84E-01    6.4     0.00032804     -6088.3152763873 -8.60E-03
    38 OT LS       0.69E-01    3.0                    -6088.3214323661
    39 OT CG       0.69E-01    6.3     0.00029007     -6088.3217562627 -6.48E-03
    40 OT LS       0.69E-01    3.1                    -6088.3268593596
    41 OT CG       0.69E-01    6.6     0.00025565     -6088.3268593715 -5.10E-03
    42 OT LS       0.65E-01    3.1                    -6088.3306153986
    43 OT CG       0.65E-01    6.5     0.00022261     -6088.3306283443 -3.77E-03
    44 OT LS       0.71E-01    3.0                    -6088.3337265926
    45 OT CG       0.71E-01    6.5     0.00020893     -6088.3337515508 -3.12E-03
    46 OT LS       0.64E-01    3.1                    -6088.3362074494
    47 OT CG       0.64E-01    6.5     0.00017667     -6088.3362360485 -2.48E-03
    48 OT LS       0.77E-01    3.3                    -6088.3383222191
    49 OT CG       0.77E-01    6.3     0.00016916     -6088.3383846054 -2.15E-03
    50 OT LS       0.69E-01    3.0                    -6088.3401055122
    51 OT CG       0.69E-01    6.4     0.00015722     -6088.3401330945 -1.75E-03
    52 OT LS       0.73E-01    3.2                    -6088.3417209885
    53 OT CG       0.73E-01    6.6     0.00014914     -6088.3417252921 -1.59E-03
    54 OT LS       0.69E-01    3.0                    -6088.3430852977
    55 OT CG       0.69E-01    6.7     0.00013389     -6088.3430889235 -1.36E-03
    56 OT LS       0.75E-01    3.0                    -6088.3442715225
    57 OT CG       0.75E-01    6.5     0.00012824     -6088.3442782767 -1.19E-03
    58 OT LS       0.75E-01    3.1                    -6088.3453750177
    59 OT CG       0.75E-01    5.7     0.00011841     -6088.3453750506 -1.10E-03
    60 OT LS       0.77E-01    2.6                    -6088.3463311726
    61 OT CG       0.77E-01    5.8     0.00011708     -6088.3463316316 -9.57E-04
    62 OT LS       0.76E-01    2.9                    -6088.3472516368
    63 OT CG       0.76E-01    5.6     0.00011503     -6088.3472518882 -9.20E-04
    64 OT LS       0.75E-01    3.0                    -6088.3481342455
    65 OT CG       0.75E-01    5.6     0.00011133     -6088.3481342743 -8.82E-04
    66 OT LS       0.73E-01    2.7                    -6088.3489317707
    67 OT CG       0.73E-01    7.2     0.00010838     -6088.3489328198 -7.99E-04
    68 OT LS       0.78E-01    3.2                    -6088.3497437601
    69 OT CG       0.78E-01    7.0     0.00010521     -6088.3497478841 -8.15E-04
    70 OT LS       0.72E-01    3.4                    -6088.3504426672

  Leaving inner SCF loop after reaching    70 steps.


  Electronic density on regular grids:      -1295.9999999977        0.0000000023
  Core density on regular grids:             1295.9999999999       -0.0000000001
  Total charge density on r-space grids:        0.0000000022
  Total charge density g-space grids:           0.0000000022

  Overlap energy of the core charge distribution:               0.00000033847504
  Self energy of the core charge distribution:              -8794.40665096074918
  Core Hamiltonian energy:                                   2636.25876289327061
  Hartree energy:                                             991.40854641177179
  Exchange-correlation energy:                               -920.89771910961156
  Dispersion energy:                                           -0.71338224030900

  Total energy:                                             -6088.35044266715249

  outer SCF iter =    1 RMS gradient =   0.11E-03 energy =      -6088.3504426672

  ----------------------------------- OT ---------------------------------------
  Minimizer      : CG                  : conjugate gradient
  Preconditioner : FULL_ALL            : diagonalization, state selective
  Precond_solver : DEFAULT
  Line search    : 2PNT                : 2 energies, one gradient
  stepsize       :    0.15000000                  energy_gap     :    0.08000000
  eps_taylor     :   0.10000E-15                  max_taylor     :             4
  ----------------------------------- OT ---------------------------------------

  Step     Update method      Time    Convergence         Total energy    Change
  ------------------------------------------------------------------------------
     1 OT CG       0.15E+00   13.8     0.00020346     -6088.3504488528 -7.01E-04
     2 OT LS       0.25E+00    3.4                    -6088.3581335771
     3 OT CG       0.25E+00    6.8     0.00021693     -6088.3593448851 -8.90E-03
     4 OT LS       0.30E-01    3.0                    -6088.2968858298
     5 OT CG       0.30E-01    6.9     0.00012970     -6088.3603002397 -9.55E-04
     6 OT LS       0.37E-01    3.0                    -6088.3607180133
     7 OT CG       0.37E-01    6.6     0.00008109     -6088.3607349470 -4.35E-04
     8 OT LS       0.61E-01    2.9                    -6088.3610353755
     9 OT CG       0.61E-01    6.4     0.00010693     -6088.3610906583 -3.56E-04
    10 OT LS       0.60E-01    3.0                    -6088.3616973375
    11 OT CG       0.60E-01    6.5     0.00011192     -6088.3616972740 -6.07E-04
    12 OT LS       0.86E-01    3.1                    -6088.3625762733
    13 OT CG       0.86E-01    6.8     0.00007626     -6088.3626586770 -9.61E-04
    14 OT LS       0.80E-01    3.0                    -6088.3630601903
    15 OT CG       0.80E-01    6.7     0.00009723     -6088.3630626702 -4.04E-04
    16 OT LS       0.53E-01    2.7                    -6088.3633997862
    17 OT CG       0.53E-01    5.6     0.00009994     -6088.3635010988 -4.38E-04
    18 OT LS       0.78E-01    2.8                    -6088.3641243257
    19 OT CG       0.78E-01    5.6     0.00008251     -6088.3641857139 -6.85E-04
    20 OT LS       0.11E+00    2.6                    -6088.3647728712
    21 OT CG       0.11E+00    5.6     0.00007547     -6088.3648255563 -6.40E-04
    22 OT LS       0.52E-01    2.7                    -6088.3647549314
    23 OT CG       0.52E-01    5.6     0.00006381     -6088.3650784247 -2.53E-04
    24 OT LS       0.52E-01    2.6                    -6088.3652618189
    25 OT CG       0.52E-01    5.8     0.00004819     -6088.3652618184 -1.83E-04
    26 OT LS       0.90E-01    2.6                    -6088.3654134961
    27 OT CG       0.90E-01    5.6     0.00004272     -6088.3654472205 -1.85E-04
    28 OT LS       0.90E-01    2.6                    -6088.3655918223
    29 OT CG       0.90E-01    5.7     0.00004792     -6088.3655917938 -1.45E-04
    30 OT LS       0.61E-01    3.1                    -6088.3656890979
    31 OT CG       0.61E-01    6.5     0.00004665     -6088.3657190588 -1.27E-04
    32 OT LS       0.83E-01    3.1                    -6088.3658674652
    33 OT CG       0.83E-01    6.5     0.00004185     -6088.3658793895 -1.60E-04
    34 OT LS       0.71E-01    3.1                    -6088.3659872679
    35 OT CG       0.71E-01    6.7     0.00003629     -6088.3659898137 -1.10E-04
    36 OT LS       0.68E-01    3.3                    -6088.3660698754
    37 OT CG       0.68E-01    6.6     0.00003858     -6088.3660701425 -8.03E-05
    38 OT LS       0.85E-01    3.0                    -6088.3661759939
    39 OT CG       0.85E-01    6.6     0.00003856     -6088.3661806436 -1.11E-04
    40 OT LS       0.90E-01    3.0                    -6088.3662998437
    41 OT CG       0.90E-01    6.4     0.00004084     -6088.3663007475 -1.20E-04
    42 OT LS       0.73E-01    3.0                    -6088.3664064967
    43 OT CG       0.73E-01    6.6     0.00004093     -6088.3664149847 -1.14E-04
    44 OT LS       0.65E-01    3.1                    -6088.3665077996
    45 OT CG       0.65E-01    6.5     0.00003421     -6088.3665090866 -9.41E-05
    46 OT LS       0.59E-01    3.0                    -6088.3665701654
    47 OT CG       0.59E-01    6.6     0.00002814     -6088.3665705019 -6.14E-05
    48 OT LS       0.86E-01    2.9                    -6088.3666259894
    49 OT CG       0.86E-01    6.5     0.00003095     -6088.3666314958 -6.10E-05
    50 OT LS       0.94E-01    3.3                    -6088.3667093340
    51 OT CG       0.94E-01    6.5     0.00003125     -6088.3667097591 -7.83E-05
    52 OT LS       0.67E-01    3.2                    -6088.3667569731
    53 OT CG       0.67E-01    5.7     0.00002908     -6088.3667655190 -5.58E-05
    54 OT LS       0.91E-01    2.7                    -6088.3668292475
    55 OT CG       0.91E-01    5.7     0.00002494     -6088.3668337697 -6.83E-05
    56 OT LS       0.75E-01    2.6                    -6088.3668723023
    57 OT CG       0.75E-01    5.6     0.00002292     -6088.3668744092 -4.06E-05
    58 OT LS       0.71E-01    2.8                    -6088.3669074335
    59 OT CG       0.71E-01    5.6     0.00002098     -6088.3669074620 -3.31E-05
    60 OT LS       0.87E-01    2.6                    -6088.3669408074
    61 OT CG       0.87E-01    6.7     0.00001881     -6088.3669418622 -3.44E-05
    62 OT LS       0.94E-01    3.0                    -6088.3669708763
    63 OT CG       0.94E-01    6.4     0.00002180     -6088.3669709674 -2.91E-05
    64 OT LS       0.94E-01    3.1                    -6088.3670098868
    65 OT CG       0.94E-01    6.6     0.00002210     -6088.3670098869 -3.89E-05
    66 OT LS       0.79E-01    3.1                    -6088.3670437001
    67 OT CG       0.79E-01    6.5     0.00001898     -6088.3670449600 -3.51E-05
    68 OT LS       0.87E-01    3.0                    -6088.3670725205
    69 OT CG       0.87E-01    6.6     0.00001886     -6088.3670727124 -2.78E-05
    70 OT LS       0.87E-01    3.0                    -6088.3670996818

  Leaving inner SCF loop after reaching    70 steps.


  Electronic density on regular grids:      -1295.9999999977        0.0000000023
  Core density on regular grids:             1295.9999999999       -0.0000000001
  Total charge density on r-space grids:        0.0000000022
  Total charge density g-space grids:           0.0000000022

  Overlap energy of the core charge distribution:               0.00000033847504
  Self energy of the core charge distribution:              -8794.40665096074918
  Core Hamiltonian energy:                                   2636.13371439308048
  Hartree energy:                                             991.49795983750084
  Exchange-correlation energy:                               -920.87874104980187
  Dispersion energy:                                           -0.71338224030900

  Total energy:                                             -6088.36709968180458

  outer SCF iter =    2 RMS gradient =   0.19E-04 energy =      -6088.3670996818

  ----------------------------------- OT ---------------------------------------
  Minimizer      : CG                  : conjugate gradient
  Preconditioner : FULL_ALL            : diagonalization, state selective
  Precond_solver : DEFAULT
  Line search    : 2PNT                : 2 energies, one gradient
  stepsize       :    0.15000000                  energy_gap     :    0.08000000
  eps_taylor     :   0.10000E-15                  max_taylor     :             4
  ----------------------------------- OT ---------------------------------------

  Step     Update method      Time    Convergence         Total energy    Change
  ------------------------------------------------------------------------------
     1 OT CG       0.15E+00   12.6     0.00001886     -6088.3670996749 -2.70E-05
     2 OT LS       0.42E-01    2.9                    -6088.3670245468
     3 OT CG       0.42E-01    6.2     0.00001047     -6088.3671128617 -1.32E-05
     4 OT LS       0.14E+00    2.9                    -6088.3671197503
     5 OT CG       0.14E+00    6.2     0.00001067     -6088.3671261962 -1.33E-05
     6 OT LS       0.13E+00    2.8                    -6088.3671390455
     7 OT CG       0.13E+00    6.4     0.00001365     -6088.3671391162 -1.29E-05
     8 OT LS       0.10E+00    3.1                    -6088.3671547803
     9 OT CG       0.10E+00    6.4     0.00001121     -6088.3671558390 -1.67E-05
    10 OT LS       0.14E+00    3.0                    -6088.3671701958
    11 OT CG       0.14E+00    6.4     0.00001242     -6088.3671712211 -1.54E-05
    12 OT LS       0.11E+00    2.7                    -6088.3671858153
    13 OT CG       0.11E+00    5.8     0.00001395     -6088.3671865292 -1.53E-05
    14 OT LS       0.15E+00    2.5                    -6088.3672108042
    15 OT CG       0.15E+00    5.5     0.00001504     -6088.3672122271 -2.57E-05
    16 OT LS       0.11E+00    2.5                    -6088.3672301788
    17 OT CG       0.11E+00    5.9     0.00001458     -6088.3672335316 -2.13E-05
    18 OT LS       0.18E+00    2.5                    -6088.3672619602
    19 OT CG       0.18E+00    5.5     0.00001565     -6088.3672679922 -3.45E-05
    20 OT LS       0.94E-01    2.5                    -6088.3672705481
    21 OT CG       0.94E-01    5.6     0.00001380     -6088.3672892455 -2.13E-05
    22 OT LS       0.14E+00    2.5                    -6088.3673104429
    23 OT CG       0.14E+00    5.6     0.00001736     -6088.3673132599 -2.40E-05
    24 OT LS       0.82E-01    3.0                    -6088.3673251224
    25 OT CG       0.82E-01    6.3     0.00001331     -6088.3673364937 -2.32E-05
    26 OT LS       0.13E+00    3.2                    -6088.3673541795
    27 OT CG       0.13E+00    6.4     0.00001316     -6088.3673570457 -2.06E-05
    28 OT LS       0.11E+00    3.0                    -6088.3673734624
    29 OT CG       0.11E+00    6.4     0.00001162     -6088.3673740846 -1.70E-05
    30 OT LS       0.14E+00    2.9                    -6088.3673901011
