     144
 i =        1, E =     -6088.3049260372
 Ga         0.0042441419       -0.0005471902       -0.0050945417
  N        -0.0030297061        1.8512023207        0.6373119827
 Ga        -0.0010807970        1.8511314530        2.6018633323
  N         0.0003443819        0.0001113533        3.2321005862
 Ga         0.0000440493        0.0000166779        5.1907352558
  N        -0.0001356296        1.8506117164        5.8258480616
 Ga        -0.0001995838        1.8506375209        7.7834553990
  N         0.0000208426       -0.0000026022        8.4191818392
 Ga         0.0000100059        0.0000074008       10.3753360366
  N        -0.0002034487        1.8506301806       11.0123792987
 Ga        -0.0001917023        1.8507044175       12.9690331692
  N         0.0000050020        0.0000060177       13.6053747062
 Ga         0.0000147319       -0.0000633311       15.5612464976
  N        -0.0001751461        1.8507697221       16.1952130560
 Ga        -0.0001306555        1.8508327059       18.1662135335
  N         0.0000164446        0.0000449033       18.7881953471
 Ga        -1.6059499093        2.7808577948       -0.0027265435
  N        -1.6018213634        4.6282325033        0.6412875279
 Ga        -1.6024231194        4.6269785821        2.6009267906
  N        -1.6028212226        2.7759530185        3.2323864422
 Ga        -1.6026158696        2.7760316674        5.1905605586
  N        -1.6029815206        4.6266192703        5.8258462136
 Ga        -1.6028963439        4.6266107112        7.7834237651
  N        -1.6027039768        2.7759584041        8.4191699859
 Ga        -1.6027064512        2.7759648020       10.3753623320
  N        -1.6028975653        4.6266200677       11.0123740501
 Ga        -1.6029582422        4.6265979664       12.9690638797
  N        -1.6026976400        2.7759744783       13.6052986674
 Ga        -1.6027666644        2.7760100468       15.5611570706
  N        -1.6029342447        4.6265735225       16.1951855853
 Ga        -1.6031033664        4.6266323921       18.1661474412
  N        -1.6027475750        2.7759528758       18.7882109538
 Ga        -3.2027027842        5.5460321714       -0.0035898491
  N        -3.2065282358        7.4014313946        0.6376241866
 Ga        -3.2060453534        7.4025324486        2.6016447769
  N        -3.2059035348        5.5518034063        3.2318497761
 Ga        -3.2053584779        5.5518984768        5.1908062874
  N        -3.2055562486        7.4025591996        5.8257781573
 Ga        -3.2056151962        7.4025935399        7.7834842726
  N        -3.2054309381        5.5519413774        8.4191532251
 Ga        -3.2054159507        5.5519408775       10.3753955096
  N        -3.2056309396        7.4025950525       11.0123730198
 Ga        -3.2055747550        7.4025514588       12.9690601311
  N        -3.2054180421        5.5519438468       13.6052721624
 Ga        -3.2053771948        5.5519575554       15.5611470770
  N        -3.2056329523        7.4025347046       16.1951834941
 Ga        -3.2054768199        7.4024186314       18.1661619490
  N        -3.2054142916        5.5519277959       18.7882034231
 Ga         3.2071251465        0.0015286556       -0.0049826514
  N         3.2036985595        1.8525472285        0.6376054821
 Ga         3.2038619314        1.8508761906        2.6015346411
  N         3.2044386091        0.0004042580        3.2318344148
 Ga         3.2048353715       -0.0000235022        5.1908224800
  N         3.2047269274        1.8506635382        5.8256916614
 Ga         3.2046327791        1.8506424757        7.7835149691
  N         3.2048060349        0.0000175325        8.4191665861
 Ga         3.2048342885       -0.0000018690       10.3753922140
  N         3.2046492292        1.8506608604       11.0123801004
 Ga         3.2045682382        1.8506358737       12.9690427728
  N         3.2048118615        0.0000019330       13.6052904673
 Ga         3.2048643314       -0.0000405063       15.5611886021
  N         3.2044963480        1.8506727973       16.1951936090
 Ga         3.2044238648        1.8505867972       18.1661746817
  N         3.2048496071       -0.0000037537       18.7882803214
 Ga         1.6031778232        2.7744074128       -0.0040932950
  N         1.6011682283        4.6258374446        0.6405747122
 Ga         1.6008560161        4.6271861230        2.6012210190
  N         1.6020376820        2.7754589862        3.2321085919
 Ga         1.6020007661        2.7759533094        5.1907143317
  N         1.6020517236        4.6265119322        5.8259167725
 Ga         1.6019307644        4.6266212370        7.7833958148
  N         1.6021334687        2.7759415110        8.4191768068
 Ga         1.6021160212        2.7759633058       10.3753917310
  N         1.6019170250        4.6266275510       11.0123794497
 Ga         1.6019620267        4.6265882424       12.9690593222
  N         1.6021150537        2.7759629725       13.6052850977
 Ga         1.6021537700        2.7760025683       15.5611339645
  N         1.6019734293        4.6265306451       16.1951992666
 Ga         1.6020488654        4.6264948549       18.1661529185
  N         1.6021379616        2.7759492971       18.7882288129
 Ga         0.0025138933        5.5520313493       -0.0019607532
  N        -0.0026265826        7.4019441533        0.6406008138
 Ga        -0.0009014537        7.4019374591        2.6009832011
  N        -0.0003844138        5.5520102409        3.2332189996
 Ga        -0.0004271540        5.5519364554        5.1902228524
  N        -0.0008556508        7.4026831674        5.8258780644
 Ga        -0.0007777195        7.4025913491        7.7834144484
  N        -0.0005918902        5.5519386757        8.4191883098
 Ga        -0.0005866615        5.5519491416       10.3753534832
  N        -0.0007943827        7.4025851289       11.0123774344
 Ga        -0.0007664749        7.4026453969       12.9690499542
  N        -0.0005879006        5.5519450323       13.6053437196
 Ga        -0.0006156706        5.5519604957       15.5612582633
  N        -0.0007671397        7.4027100543       16.1951804371
 Ga        -0.0007674098        7.4027817253       18.1661296201
  N        -0.0005623227        5.5519356237       18.7882215284
 Ga         6.4070557368       -0.0023612740       -0.0035975481
  N         6.4105187318        1.8489252731        0.6394135167
 Ga         6.4097323261        1.8502533896        2.6012143170
  N         6.4095662932       -0.0000661656        3.2325769335
 Ga         6.4096866222       -0.0001997143        5.1904749340
  N         6.4093886370        1.8506934280        5.8257358443
 Ga         6.4094581795        1.8506393046        7.7834930169
  N         6.4096588585        0.0000142201        8.4191916357
 Ga         6.4096398724        0.0000024743       10.3753469604
  N         6.4094327519        1.8506639757       11.0123759314
 Ga         6.4095020278        1.8506003783       12.9690571849
  N         6.4096437617       -0.0000055698       13.6052607072
 Ga         6.4096163884       -0.0000096176       15.5611335873
  N         6.4095508170        1.8505907801       16.1951975277
 Ga         6.4095684517        1.8505017534       18.1661576622
  N         6.4096604870       -0.0000045689       18.7882517844
 Ga         4.8132299204        2.7747031197       -0.0041584071
  N         4.8035251143        4.6281588135        0.6363856132
 Ga         4.8059410538        4.6272671378        2.6018404713
  N         4.8070295208        2.7761339138        3.2312255490
 Ga         4.8070597191        2.7759586199        5.1910406218
  N         4.8067872951        4.6265361910        5.8256652824
 Ga         4.8067371973        4.6266221144        7.7835404189
  N         4.8069446935        2.7759772565        8.4191415686
 Ga         4.8069440781        2.7759684680       10.3753590265
  N         4.8067342217        4.6265958554       11.0123752356
 Ga         4.8067478546        4.6266823379       12.9690534223
  N         4.8069293677        2.7759704332       13.6053739532
 Ga         4.8069567002        2.7759430740       15.5612555316
  N         4.8067641392        4.6266863637       16.1952183741
 Ga         4.8068305124        4.6268136141       18.1661956857
  N         4.8069199891        2.7759527888       18.7881790107
 Ga         3.2024211058        5.5529773640       -0.0033942120
  N         3.2040486079        7.4041235864        0.6392284968
 Ga         3.2032026079        7.4028089200        2.6014943847
  N         3.2043825298        5.5520485072        3.2323131701
 Ga         3.2040871594        5.5520764716        5.1906238397
  N         3.2041400283        7.4025918561        5.8258947287
 Ga         3.2040441431        7.4025957685        7.7834289831
  N         3.2042681452        5.5519307840        8.4191785771
 Ga         3.2042350225        5.5519380104       10.3753603209
  N         3.2040477816        7.4025893042       11.0123741459
 Ga         3.2039734448        7.4025776969       12.9690682696
  N         3.2042446095        5.5519299771       13.6053029965
 Ga         3.2042075254        5.5519602781       15.5611621293
  N         3.2039362554        7.4025610742       16.1951973223
 Ga         3.2038347770        7.4025261579       18.1661660393
  N         3.2042474495        5.5519332688       18.7882031516
     144
 i =        2, E =     -6088.3433987298
 Ga         0.0154392475       -0.0015443427       -0.0148346983
  N        -0.0109478493        1.8713451602        0.6162275768
 Ga        -0.0038040995        1.8707412196        2.6247696907
  N         0.0010578811        0.0005667931        3.2192649912
 Ga         0.0002488018        0.0001188495        5.2034649562
  N        -0.0003811199        1.8689246646        5.8141124819
 Ga        -0.0005413391        1.8690091270        7.7963369438
  N         0.0001105728        0.0000332134        8.4078820988
 Ga         0.0000329382        0.0000428279       10.3852484825
  N        -0.0005542906        1.8690006502       11.0015528722
 Ga        -0.0005513675        1.8692111440       12.9806471483
  N         0.0000555375        0.0000435506       13.5942975460
 Ga         0.0000560249       -0.0000421151       15.5710335317
  N        -0.0005378015        1.8692696798       16.1796864913
 Ga        -0.0003290197        1.8696132177       18.2034603785
  N         0.0000880471        0.0001600884       18.7675791663
 Ga        -1.6316512413        2.8219423577       -0.0064934448
  N        -1.6138199280        4.6791748837        0.6320088918
 Ga        -1.6173310752        4.6742226091        2.6228150079
  N        -1.6192526506        2.8039815441        3.2202218151
 Ga        -1.6183686984        2.8039230032        5.2030501605
  N        -1.6194436864        4.6727120536        5.8140215599
 Ga        -1.6191797222        4.6726701235        7.7962145143
  N        -1.6186474565        2.8036521541        8.4078623278
 Ga        -1.6186607902        2.8036651399       10.3853181726
  N        -1.6192031680        4.6726933995       11.0015509411
 Ga        -1.6193721721        4.6726104122       12.9806767314
  N        -1.6186247541        2.8037070997       13.5940626690
 Ga        -1.6187688425        2.8037771024       15.5706983985
  N        -1.6193351305        4.6725392774       16.1796236258
 Ga        -1.6197486908        4.6727008713       18.2033231691
  N        -1.6187445127        2.8036729271       18.7677532068
 Ga        -3.2281954489        5.5850697270       -0.0095943611
  N        -3.2397945967        7.4711232938        0.6177661208
 Ga        -3.2395016200        7.4761016824        2.6239812878
  N        -3.2390723189        5.6066071386        3.2181337063
 Ga        -3.2371549087        5.6071216969        5.2037577777
  N        -3.2376860166        7.4761836896        5.8138511385
 Ga        -3.2379250590        7.4763592134        7.7964321877
  N        -3.2373893881        5.6073289186        8.4078088853
 Ga        -3.2373419604        5.6073229694       10.3854410235
  N        -3.2379612592        7.4763489205       11.0015520791
 Ga        -3.2378090172        7.4762422413       12.9806727200
  N        -3.2373492681        5.6073325031       13.5940118345
 Ga        -3.2372295506        5.6073739881       15.5707006172
  N        -3.2379028470        7.4761239914       16.1796232146
 Ga        -3.2374456682        7.4758501722       18.2033583748
  N        -3.2373514120        5.6072456787       18.7677959338
 Ga         3.2435808682        0.0058441780       -0.0142031735
  N         3.2331179184        1.8761103377        0.6170606345
 Ga         3.2324063384        1.8700088716        2.6239449236
  N         3.2344212827        0.0015302209        3.2181523640
 Ga         3.2358485757       -0.0000099983        5.2037168753
  N         3.2356506851        1.8691314830        5.8134954472
 Ga         3.2352914584        1.8690472492        7.7965466673
  N         3.2357878856        0.0001101318        8.4078423033
 Ga         3.2358489144        0.0000396491       10.3854353961
  N         3.2353296679        1.8690933887       11.0015543106
 Ga         3.2351156820        1.8690005378       12.9806631874
  N         3.2358207709        0.0000604477       13.5940582460
 Ga         3.2358903770       -0.0000401881       15.5708044717
  N         3.2349374906        1.8690752670       16.1796436227
 Ga         3.2346466407        1.8688566156       18.2033871882
  N         3.2358741678        0.0000365111       18.7679600735
 Ga         1.6197611799        2.7983902599       -0.0109492020
  N         1.6144764513        4.6691974152        0.6301403074
 Ga         1.6128558719        4.6745259448        2.6231797387
  N         1.6165811621        2.8018997746        3.2193538691
 Ga         1.6167490469        2.8035663904        5.2033762306
  N         1.6170476869        4.6722969994        5.8143219158
 Ga         1.6166228759        4.6726871670        7.7961431867
  N         1.6172247868        2.8035858704        8.4078767621
 Ga         1.6171534817        2.8036589172       10.3854119945
  N         1.6165825610        4.6727046945       11.0015655886
 Ga         1.6167101444        4.6726072516       12.9806757509
  N         1.6171613477        2.8036738256       13.5940259459
 Ga         1.6172126173        2.8037797016       15.5706802919
  N         1.6167682068        4.6724800699       16.1796444682
 Ga         1.6169467833        4.6723016580       18.2033165623
  N         1.6172095957        2.8036989583       18.7679101398
 Ga         0.0108859937        5.6077178389       -0.0033114889
  N        -0.0089339368        7.4737205225        0.6294532571
 Ga        -0.0027157166        7.4740210440        2.6227625892
  N        -0.0009640868        5.6076737950        3.2234952476
 Ga        -0.0009057528        5.6073231799        5.2020339794
  N        -0.0023279964        7.4766346397        5.8141528549
 Ga        -0.0020481725        7.4763361813        7.7961799601
  N        -0.0015230375        5.6073305690        8.4079008723
 Ga        -0.0015221879        5.6073391025       10.3853158660
  N        -0.0021086085        7.4763177251       11.0015527365
 Ga        -0.0020295671        7.4765095341       12.9806610301
  N        -0.0015161530        5.6073572088       13.5942379662
 Ga        -0.0015662572        5.6073428947       15.5710822123
  N        -0.0020134389        7.4767203231       16.1796159190
 Ga        -0.0020609903        7.4769032724       18.2032984113
  N        -0.0014799870        5.6073414181       18.7677135535
 Ga         6.4616747783       -0.0089873237       -0.0091470902
  N         6.4756018995        1.8616399027        0.6259577434
 Ga         6.4721546634        1.8672971864        2.6229897924
  N         6.4711028016       -0.0003775894        3.2210113158
 Ga         6.4717559501       -0.0006831153        5.2027662238
  N         6.4709201907        1.8691506794        5.8136370397
 Ga         6.4711274979        1.8690046956        7.7964319125
  N         6.4716887563        0.0000996700        8.4079089594
 Ga         6.4716627939        0.0000490510       10.3852864224
  N         6.4710142617        1.8690905675       11.0015422030
 Ga         6.4712380386        1.8689132109       12.9806808355
  N         6.4716344519        0.0000444643       13.5939903020
 Ga         6.4715894643        0.0000184003       15.5706218440
  N         6.4713457932        1.8689256084       16.1796704124
 Ga         6.4714406477        1.8686777661       18.2033580448
  N         6.4717059787        0.0000085177       18.7678569599
 Ga         4.8770516258        2.7995138259       -0.0117328300
  N         4.8405476234        4.6780556504        0.6134081482
 Ga         4.8490979591        4.6752060580        2.6246557129
  N         4.8532861945        2.8043660424        3.2157480742
 Ga         4.8534318635        2.8036519617        5.2044163350
  N         4.8525231582        4.6724174769        5.8134233456
 Ga         4.8523852543        4.6726965799        7.7965758993
  N         4.8529832360        2.8037100684        8.4077521041
 Ga         4.8529963893        2.8036768504       10.3853290531
  N         4.8523657272        4.6726105999       11.0015439205
 Ga         4.8524159561        4.6728564981       12.9806689455
  N         4.8529309757        2.8037084791       13.5943183229
 Ga         4.8530084864        2.8035901881       15.5710680624
  N         4.8524033068        4.6729343388       16.1797035574
 Ga         4.8526236662        4.6732661504       18.2034614996
  N         4.8529203222        2.8036021921       18.7675479185
 Ga         3.2260816917        5.6117191929       -0.0082573291
  N         3.2343143453        7.4821367778        0.6230963477
 Ga         3.2307916187        7.4772364681        2.6239030830
  N         3.2345187705        5.6079221230        3.2201434764
 Ga         3.2337869572        5.6078243068        5.2031431143
  N         3.2340972119        7.4763503550        5.8142641944
 Ga         3.2337567300        7.4763646432        7.7962610108
  N         3.2344120658        5.6073046073        8.4078792901
 Ga         3.2343013611        5.6073447823       10.3853384633
  N         3.2337406541        7.4763275499       11.0015514064
 Ga         3.2335371688        7.4763106387       12.9806761599
  N         3.2343124871        5.6073034735       13.5940915493
 Ga         3.2341983477        5.6073566516       15.5707396561
  N         3.2333883061        7.4762312860       16.1796788019
 Ga         3.2331261459        7.4761400023       18.2033755663
  N         3.2343593627        5.6072813066       18.7677239552
     144
 i =        3, E =     -6088.3522509768
 Ga         0.0211657582        0.0001211865       -0.0169897567
  N        -0.0149096396        1.8756368250        0.6034316815
 Ga        -0.0050039323        1.8741025858        2.6335232186
  N         0.0013071076        0.0008836417        3.2134459033
 Ga         0.0004375976        0.0002280912        5.2103227706
  N        -0.0004954737        1.8716590077        5.8082875519
 Ga        -0.0006298465        1.8717732627        7.8025628631
  N         0.0001745700        0.0000747740        8.4019499211
 Ga         0.0000568307        0.0000813890       10.3909122611
  N        -0.0006470860        1.8717550445       10.9957795450
 Ga        -0.0006593394        1.8720096916       12.9861382080
  N         0.0000887171        0.0000840108       13.5882368394
 Ga         0.0000767809        0.0000240807       15.5770132709
  N        -0.0006737402        1.8720189101       16.1737017043
 Ga        -0.0003550488        1.8726069603       18.2230716536
  N         0.0001307090        0.0002162335       18.7546984803
 Ga        -1.6415203796        2.8332891961       -0.0069096765
  N        -1.6113993330        4.6896338298        0.6266821875
 Ga        -1.6187634581        4.6818622898        2.6326306243
  N        -1.6222264330        2.8087554733        3.2148873558
 Ga        -1.6207684287        2.8083228831        5.2098705376
  N        -1.6219799578        4.6797730114        5.8080656585
 Ga        -1.6216994800        4.6796783540        7.8023987978
  N        -1.6210604838        2.8079233194        8.4019302250
 Ga        -1.6210812809        2.8079338775       10.3910084969
  N        -1.6217334625        4.6796970238       10.9957780047
 Ga        -1.6219260053        4.6795894742       12.9861554496
  N        -1.6210363518        2.8079906523       13.5879138959
 Ga        -1.6211734553        2.8080607196       15.5765371297
  N        -1.6218769767        4.6794605104       16.1736131776
 Ga        -1.6224415895        4.6796600095       18.2229243570
  N        -1.6211670853        2.8079947439       18.7550754207
 Ga        -3.2307091260        5.5832135496       -0.0115434164
  N        -3.2437597457        7.4788279956        0.6043956671
 Ga        -3.2450312985        7.4871558737        2.6329400914
  N        -3.2444811167        5.6146942778        3.2117152372
 Ga        -3.2420073628        5.6154497456        5.2107420097
  N        -3.2425725065        7.4873247597        5.8078702958
 Ga        -3.2429089529        7.4875895689        7.8027021496
  N        -3.2422488589        5.6158447798        8.4018631965
 Ga        -3.2422070139        5.6158203548       10.3911639232
  N        -3.2429503304        7.4875838961       10.9957794181
 Ga        -3.2427684034        7.4874789505       12.9861588253
  N        -3.2421905427        5.6158432498       13.5878683952
 Ga        -3.2420896707        5.6158718181       15.5765815507
  N        -3.2428371084        7.4873197042       16.1736223934
 Ga        -3.2422083967        7.4869357759       18.2229630579
  N        -3.2422148634        5.6157486557       18.7551931281
 Ga         3.2490620553        0.0095762795       -0.0159607579
  N         3.2389346725        1.8815420870        0.6044882852
 Ga         3.2360554006        1.8734096834        2.6328341830
  N         3.2384843945        0.0019969607        3.2116950584
 Ga         3.2404856647        0.0001146865        5.2106548784
  N         3.2404001045        1.8719289427        5.8074026260
 Ga         3.2399012932        1.8718389360        7.8027979058
  N         3.2404915175        0.0001747502        8.4018916846
 Ga         3.2405581140        0.0000827654       10.3911899544
  N         3.2399392117        1.8718784577       10.9957821320
 Ga         3.2396996031        1.8717618290       12.9861554508
  N         3.2405395437        0.0001148933       13.5879178243
 Ga         3.2405832379        0.0000004769       15.5766873414
  N         3.2395014410        1.8718482370       16.1736495740
 Ga         3.2390220984        1.8715472150       18.2229897705
  N         3.2405777696        0.0000817154       18.7553804843
 Ga         1.6215178182        2.7993023216       -0.0114879364
  N         1.6163642123        4.6735442306        0.6241199235
 Ga         1.6140003784        4.6816249689        2.6326766439
  N         1.6183119055        2.8055951818        3.2139218967
 Ga         1.6189112341        2.8077096957        5.2101122523
  N         1.6193278754        4.6791613394        5.8085494262
 Ga         1.6188108246        4.6796824503        7.8023130204
  N         1.6195186399        2.8078269502        8.4019526209
 Ga         1.6194224363        2.8079255107       10.3911316084
  N         1.6187329067        4.6797040599       10.9957972462
 Ga         1.6189073238        4.6796140103       12.9861575391
  N         1.6194334634        2.8079569176       13.5878811354
 Ga         1.6194646839        2.8080528814       15.5765613411
  N         1.6189705664        4.6794825491       16.1736499478
 Ga         1.6192398546        4.6791683726       18.2229149858
  N         1.6194759552        2.8080034679       18.7553346279
 Ga         0.0169595576        5.6173709424       -0.0005834664
  N        -0.0122257701        7.4837814308        0.6218652005
 Ga        -0.0033948054        7.4844636900        2.6326906311
  N        -0.0009506428        5.6165995194        3.2195959265
 Ga        -0.0007708130        5.6158411869        5.2087592521
  N        -0.0027267255        7.4879592593        5.8082250674
 Ga        -0.0023190941        7.4875783364        7.8023806460
  N        -0.0016895102        5.6158512921        8.4019651240
 Ga        -0.0016898801        5.6158412041       10.3910155552
  N        -0.0023917899        7.4875562241       10.9957785218
 Ga        -0.0023225885        7.4877836741       12.9861393883
  N        -0.0016844677        5.6158810735       13.5881768910
 Ga        -0.0017373920        5.6158533286       15.5770897831
  N        -0.0023089571        7.4880398251       16.1736094745
 Ga        -0.0023619252        7.4883499641       18.2228996071
  N        -0.0016409890        5.6158911749       18.7549119048
 Ga         6.4674234167       -0.0134298749       -0.0087418932
  N         6.4871200140        1.8593954341        0.6189162779
 Ga         6.4819199587        1.8690508981        2.6320400129
  N         6.4799853696       -0.0009315238        3.2159032433
 Ga         6.4811815316       -0.0009478700        5.2095541773
  N         6.4802076159        1.8718691130        5.8075556643
 Ga         6.4804369459        1.8717625945        7.8026426689
  N         6.4811001924        0.0001556397        8.4019805334
 Ga         6.4810741098        0.0000923134       10.3909562902
  N         6.4802790078        1.8718574572       10.9957690041
 Ga         6.4805567520        1.8716910432       12.9861626939
  N         6.4810290819        0.0000975486       13.5878532617
 Ga         6.4809933317        0.0000676058       15.5764685949
  N         6.4806744791        1.8716790036       16.1736854507
 Ga         6.4808652638        1.8713328991       18.2229709719
  N         6.4811368514        0.0000451027       18.7552134474
 Ga         4.8943486224        2.8038228864       -0.0143041979
  N         4.8424274262        4.6871521380        0.6004374607
 Ga         4.8543152085        4.6830653978        2.6333246411
  N         4.8604376789        2.8090377678        3.2085079751
 Ga         4.8606005514        2.8079767614        5.2113624373
  N         4.8593674617        4.6793756520        5.8073350031
 Ga         4.8592179726        4.6797132744        7.8028115805
  N         4.8599578271        2.8079922815        8.4017907181
 Ga         4.8599661900        2.8079531414       10.3910251288
  N         4.8592041319        4.6795937349       10.9957725810
 Ga         4.8592440318        4.6798888902       12.9861579047
  N         4.8598904064        2.8079888447       13.5882644963
 Ga         4.8599603091        2.8078516492       15.5770725781
  N         4.8592244768        4.6800134425       16.1737217179
 Ga         4.8595268003        4.6804731422       18.2230777968
  N         4.8598697281        2.8078337567       18.7546824772
 Ga         3.2246992204        5.6232965230       -0.0083476667
  N         3.2401355907        7.4957539757        0.6125164239
 Ga         3.2345105238        7.4888733255        2.6330565001
  N         3.2385231225        5.6169859163        3.2149542155
 Ga         3.2381085596        5.6165067082        5.2099023120
  N         3.2386401479        7.4876491529        5.8084648606
 Ga         3.2381841043        7.4876093041        7.8024849335
  N         3.2389665459        5.6158208567        8.4019672556
 Ga         3.2388243022        5.6158548470       10.3910205157
  N         3.2381366779        7.4875696228       10.9957803234
 Ga         3.2379282394        7.4875254603       12.9861570479
  N         3.2388233622        5.6158154654       13.5879554727
 Ga         3.2387126311        5.6158472221       15.5765902829
  N         3.2376977308        7.4874200712       16.1737017410
 Ga         3.2373271783        7.4872826824       18.2229957828
  N         3.2388925811        5.6157641635       18.7550460618
     144
 i =        4, E =     -6088.3596915015
 Ga         0.0275242606        0.0040730987       -0.0156755117
  N        -0.0192706823        1.8762065316        0.5863848528
 Ga        -0.0062014331        1.8728668592        2.6397238578
  N         0.0013255932        0.0014471379        3.2081477010
 Ga         0.0007478207        0.0003892291        5.2183956499
  N        -0.0006376932        1.8699736132        5.8025249640
 Ga        -0.0006552798        1.8700898553        7.8083110555
  N         0.0002608737        0.0001438649        8.3957301218
 Ga         0.0000911546        0.0001362711       10.3976388515
  N        -0.0006781609        1.8700471847       10.9895358768
 Ga        -0.0007145396        1.8703625653       12.9911309333
  N         0.0001342250        0.0001470464       13.5816122255
 Ga         0.0000951691        0.0001208689       15.5848058967
  N        -0.0007981256        1.8702889185       16.1696093194
 Ga        -0.0002587480        1.8713767250       18.2440514384
  N         0.0001832891        0.0002793346       18.7375698248
 Ga        -1.6510759965        2.8390436599       -0.0078004127
  N        -1.6009594024        4.6909674596        0.6206087937
 Ga        -1.6158540798        4.6788486558        2.6414811432
  N        -1.6216438594        2.8072980432        3.2101637826
 Ga        -1.6194266884        2.8061333195        5.2180909019
  N        -1.6205083437        4.6757843332        5.8020889215
 Ga        -1.6203208355        4.6756093000        7.8080928346
  N        -1.6196267418        2.8055803407        8.3957087275
 Ga        -1.6196589742        2.8055812147       10.3977879732
  N        -1.6203640070        4.6756094984       10.9895318475