     206
 i =        1, E =     -8480.5252893313
  N         0.0202116626        2.0270201911        2.4756406451
 Ga         0.0206605085        0.0485241867        2.8065282568
  N         0.0201981333        0.0469387350        4.9686472950
 Ga         0.0200984348        1.8746487280        5.7530720195
  N         0.0199882717        1.8929540659        7.7480411959
 Ga         0.0196585484        0.0475518656        8.3984415214
  N         0.0195181890        0.0478844580       10.3706225331
 Ga         0.0197393696        1.8872202561       11.0225837736
  N         0.0191674486        1.8676114265       13.0155007677
 Ga         0.0162283016        0.0449968425       13.8191167995
  N         0.0190845850        0.0489292260       16.0207662569
 Ga         0.0191341019        2.0809152065       16.4202095733
 Ga         0.0213358960        3.7625588638        1.4438626712
  N        -1.4818303116        4.6284422622        2.4761185967
 Ga        -1.6857080606        2.7759430173        3.2408925150
  N        -1.5885968734        2.8318386583        5.2033678161
 Ga        -1.6132593581        4.7036443191        5.7528243418
  N        -1.5980496814        4.6951780367        7.7479215720
 Ga        -1.5782921135        2.8382780765        8.3900306214
  N        -1.5769102066        2.8391370044       10.3821026250
 Ga        -1.6026517925        4.6981155088       11.0211690990
  N        -1.6203874537        4.7082397552       13.0139816222
 Ga        -1.5790478659        2.8389028152       13.5686521768
  N        -1.6048862917        2.8239356296       15.5300600173
 Ga        -1.4329604056        4.5979220726       16.4199937265
  N         0.0280841265        3.7626686947       17.5624408867
  N        -3.1961525432        7.5983826136        2.4755536324
 Ga        -3.1957097138        5.6178781465        2.8063690069
  N        -3.1961393906        5.6179239826        4.9685518497
 Ga        -3.1961535880        7.4454652192        5.7528919951
  N        -3.1962092096        7.4635903736        7.7475485911
 Ga        -3.1963527298        5.6181957957        8.3979705055
  N        -3.1960467810        5.6179056907       10.3701425538
 Ga        -3.1964005448        7.4582275118       11.0212306219
  N        -3.1968597046        7.4382764803       13.0140922212
 Ga        -3.1992702442        5.6175694472       13.8148169774
  N        -3.1958413389        5.6175141541       16.0194685348
 Ga        -3.1946654212        7.6590216744       16.4305814808
 Ga        -3.1953373106        9.3330749703        1.4437849403
  N        -4.6973815932       10.1985177102        2.4758769673
 Ga        -4.9033219588        8.3459032422        3.2405648972
  N        -4.8048455922        8.4025737842        5.2026581265
 Ga        -4.8293292483       10.2743341352        5.7529094824
  N        -4.8141997897       10.2659830182        7.7476015989
 Ga        -4.7947397601        8.4090724726        8.3893279864
  N        -4.7933965817        8.4098244679       10.3809428105
 Ga        -4.8191242688       10.2687051273       11.0219138339
  N        -4.8370122794       10.2788863439       13.0147876688
 Ga        -4.7942040751        8.4098257209       13.5731645251
  N        -4.8204596865        8.3937879201       15.5361651075
 Ga        -4.6456000283       10.1695517647       16.4301064063
  N        -3.1904451925        9.3349878791       17.5560693705
  N         3.2367735388        1.9035653870        2.5641425757
 Ga         3.2366653890        0.1618407805        3.2420279213
  N         3.2363354088        0.0478803381        5.2038654623
 Ga         3.2364312828        1.9040401532        5.8286615418
  N         3.2360448227        1.9042411882        7.8005658745
 Ga         3.2361262399        0.0361527973        8.3901241863
  N         3.2363338886        0.0352795050       10.3821899922
 Ga         3.2362250710        1.9050498869       10.9778525395
  N         3.2356568574        1.9044293385       12.9480510290
 Ga         3.2351897552        0.0355875804       13.5734683291
  N         3.2343672246        0.0682768698       15.5359147117
 Ga         3.2370134633        1.9064588870       15.8157229656
  N         1.5164612028        4.6244690751        2.4852561665
 Ga         1.7271130263        2.7743081216        3.2412791662
  N         1.6290454247        2.8312274486        5.2037176998
 Ga         1.6540245988        4.7039934971        5.7521908010
  N         1.6376916399        4.6950511493        7.7484277332
 Ga         1.6183133340        2.8381131004        8.3907202305
  N         1.6166255686        2.8394936509       10.3828530555
 Ga         1.6429049326        4.6985395548       11.0228154581
  N         1.6598607115        4.7090159883       13.0161226363
 Ga         1.6170926127        2.8390238445       13.5682150353
  N         1.6423002467        2.8219465769       15.5306378458
 Ga         1.4798095153        4.6031893341       16.4193917940
  N         0.0196236157        7.4753937655        2.5638225271
 Ga         0.0196613421        5.7327000365        3.2412826658
  N         0.0196415711        5.6191257229        5.2036561461
 Ga         0.0198741644        7.4751213229        5.8283434404
  N         0.0197663475        7.4749071748        7.8001560873
 Ga         0.0197727139        5.6070665825        8.3902662961
  N         0.0201411688        5.6053717529       10.3822647809
 Ga         0.0204490433        7.4753442779       10.9780944872
  N         0.0194864564        7.4753062745       12.9482933326
 Ga         0.0190039022        5.6069655482       13.5693180653
  N         0.0166623063        5.6367483369       15.5326586844
 Ga         0.0221563922        7.4775467850       15.8166111507
  N        -1.6942844289       10.1987961501        2.4764347456
 Ga        -1.4891112040        8.3461956852        3.2414401544
  N        -1.5875782604        8.4027670251        5.2034924936
 Ga        -1.5625892354       10.2743906617        5.7530443029
  N        -1.5781566027       10.2658463019        7.7476235458
 Ga        -1.5978350984        8.4091072591        8.3900335489
  N        -1.5989342476        8.4100315945       10.3819686195
 Ga        -1.5729586568       10.2690267790       11.0239230149
  N        -1.5560085286       10.2792735155       13.0172838669
 Ga        -1.5994510231        8.4095139815       13.5727839842
  N        -1.5718044510        8.3923084568       15.5348211057
 Ga        -1.7403546872       10.1721961834       16.4299800195
  N         6.4532189137        2.0274172337        2.4750196988
 Ga         6.4520041322        0.0484396063        2.8067592505
  N         6.4525389234        0.0470093911        4.9681341404
 Ga         6.4527668103        1.8746016506        5.7529937267
  N         6.4525744527        1.8926630704        7.7476307114
 Ga         6.4522741294        0.0474526284        8.3987977682
  N         6.4524472738        0.0475080357       10.3708277461
 Ga         6.4523746401        1.8871398799       11.0236507557
  N         6.4521602379        1.8683523401       13.0152696142
 Ga         6.4556233207        0.0483111738       13.8247022383
  N         6.4530304271        0.0484612639       16.0215133747
 Ga         6.4547285162        2.0915450918       16.4377212256
 Ga         6.4472636891        3.7636817015        1.4463148111
  N         4.9568505685        4.6271595585        2.4884006313
 Ga         4.7458977626        2.7752798434        3.2412491491
  N         4.8439140569        2.8310127156        5.2035262122
 Ga         4.8189564312        4.7038296634        5.7518192495
  N         4.8343650791        4.6950745431        7.7478272050
 Ga         4.8541674447        2.8380257311        8.3901263167
  N         4.8555289320        2.8389565956       10.3817395467
 Ga         4.8297073492        4.6981505304       11.0219111371
  N         4.8125116042        4.7083691173       13.0133946026
 Ga         4.8546289377        2.8396332913       13.5734621237
  N         4.8289050076        2.8226311098       15.5323958138
 Ga         5.0085239564        4.5932827706       16.4371019153
  N         6.4503011761        3.7585205213       17.5823377515
  N         3.2386713839        7.6050229017        2.4873660525
 Ga         3.2349975847        5.6179547785        2.7707670043
  N         3.2365115453        5.6176608903        4.9586741181
 Ga         3.2361949997        7.4447913932        5.7519615923
  N         3.2360497552        7.4636349929        7.7476548179
 Ga         3.2361201946        5.6183161021        8.3987711554
  N         3.2358238987        5.6181184204       10.3709497190
 Ga         3.2359882686        7.4585339265       11.0231385085
  N         3.2357941344        7.4395296446       13.0142351328
 Ga         3.2388213051        5.6216448115       13.8204893470
  N         3.2357397475        5.6186693005       16.0187423496
 Ga         3.2364686789        7.6735824040       16.4518992608
 Ga         3.2331253316        9.3324462099        1.4485890467
  N         1.7331644684       10.1999899865        2.4773884360
 Ga         1.5292408898        8.3458805495        3.2411637281
  N         1.6269295539        8.4028688333        5.2032155117
 Ga         1.6031617338       10.2743314519        5.7528264780
  N         1.6181461972       10.2659402060        7.7473825022
 Ga         1.6375766349        8.4091067754        8.3901433828
  N         1.6390316091        8.4099441245       10.3814190992
 Ga         1.6137781609       10.2685107742       11.0242008996
  N         1.5969927390       10.2784557471       13.0152774004
 Ga         1.6388939664        8.4102661598       13.5779398376
  N         1.6112162798        8.3954934089       15.5354940471
 Ga         1.8020728153       10.1612921754       16.4526059084
  N         3.2361591021        9.3282485183       17.6002211342
  N         9.6691480420        1.9042092331        2.5637763640
 Ga         9.6692591932        0.1614314402        3.2413721775
  N         9.6688106754        0.0481590511        5.2032205979
 Ga         9.6686907304        1.9041122249        5.8283326158
  N         9.6686585145        1.9042130227        7.7999875662
 Ga         9.6683386346        0.0360840956        8.3899345626
  N         9.6681934599        0.0351992583       10.3814105675
 Ga         9.6683743587        1.9042248301       10.9784381920
  N         9.6684350845        1.9043138184       12.9483901777
 Ga         9.6681317778        0.0351131357       13.5779566208
  N         9.6690343606        0.0669625796       15.5345604370
 Ga         9.6661898836        1.9024760797       15.8130924625
  N         7.9543570627        4.6281114294        2.4743681748
 Ga         8.1593883460        2.7757380544        3.2407916082
  N         8.0615781310        2.8317522081        5.2031227699
 Ga         8.0859037670        4.7034556999        5.7529729809
  N         8.0703829783        4.6949278418        7.7476011596
 Ga         8.0507728162        2.8380440209        8.3897983873
  N         8.0494139890        2.8386420514       10.3814797148
 Ga         8.0743408608        4.6977278983       11.0210008030
  N         8.0909614066        4.7077969907       13.0122382437
 Ga         8.0497857729        2.8392683822       13.5726085349
  N         8.0775097858        2.8239930307       15.5299828213
 Ga         7.8951384800        4.5897031561       16.4378535874
  N         6.4515018232        7.4750758131        2.5614478258
 Ga         6.4541928737        5.7328063875        3.2425287189
  N         6.4534264081        5.6193848098        5.2040151963
 Ga         6.4525863980        7.4749533886        5.8286432066
  N         6.4523213579        7.4749419040        7.7997434506
 Ga         6.4524033266        5.6069574067        8.3892047443
  N         6.4522061735        5.6054054897       10.3805598355
 Ga         6.4516307272        7.4750831537       10.9777596752
  N         6.4522348115        7.4751790796       12.9480260571
 Ga         6.4519639185        5.6057499400       13.5737943079
  N         6.4548101630        5.6353190027       15.5340607229
 Ga         6.4492082911        7.4748199586       15.8150729803
  N         4.7391662267       10.1990101798        2.4747579278
 Ga         4.9442217352        8.3478301712        3.2434372086
  N         4.8458858736        8.4029244135        5.2045543490
 Ga         4.8696762094       10.2744515057        5.7532659799
  N         4.8540338168       10.2658376647        7.7475524325
 Ga         4.8345917784        8.4089159520        8.3897326127
  N         4.8328424669        8.4097750698       10.3808273637
 Ga         4.8580021187       10.2682181985       11.0229774158
  N         4.8744045618       10.2780794277       13.0137880688
 Ga         4.8325741359        8.4101754323       13.5773481809
  N         4.8609264731        8.3958070443       15.5353395390
 Ga         4.6691094189       10.1600726863       16.4527778751
  O         3.2246802811        5.6698305255       -0.1270426124
  H         2.5680910603        5.2923562257       -0.7383011313
  C         4.0067818752        6.6325105840       -0.8685466219
  H         3.3834394711        7.2801358199       -1.5026876831
  H         4.5241075063        7.2559402838       -0.1269188992
  H         4.7725592052        6.1460409428       -1.4888775376
     206
 i =        2, E =     -8480.5261264309
  N         0.0201113959        2.0256839073        2.4753664147
 Ga         0.0204190196        0.0488464370        2.8101579336
  N         0.0201191959        0.0470031785        4.9674221476
 Ga         0.0198825325        1.8748855994        5.7543181242
  N         0.0198761294        1.8927574014        7.7467338449
 Ga         0.0197482405        0.0476471095        8.3996333716
  N         0.0197777234        0.0471397297       10.3691692887
 Ga         0.0198112334        1.8868614398       11.0227870095
  N         0.0192695413        1.8669260653       13.0113808469
 Ga         0.0163967028        0.0474937038       13.8249692227
  N         0.0187963861        0.0506211456       16.0194359644
 Ga         0.0199062263        2.0913173931       16.4315570919
 Ga         0.0200044394        3.7616459345        1.4482855914
  N        -1.4830230560        4.6290123624        2.4757653742
 Ga        -1.6867247254        2.7753858523        3.2412637037
  N        -1.5887459030        2.8318345781        5.2020379529
 Ga        -1.6131150021        4.7035031609        5.7540062903
  N        -1.5981548136        4.6951672788        7.7465232596
 Ga        -1.5782828143        2.8383271651        8.3907325346
  N        -1.5771971060        2.8391011094       10.3800885561
 Ga        -1.6027830408        4.6984256775       11.0219946810
  N        -1.6209565321        4.7085730402       13.0109120987
 Ga        -1.5782931358        2.8388968776       13.5702770672
  N        -1.6031746010        2.8235130613       15.5265703376
 Ga        -1.4255400567        4.5938294263       16.4312121995
  N         0.0268866760        3.7649766413       17.5818904727
  N        -3.1963246028        7.5979220893        2.4744515190
 Ga        -3.1959648496        5.6173795148        2.8097829801
  N        -3.1960978823        5.6177287180        4.9673364842
 Ga        -3.1962924797        7.4454464578        5.7537900979
  N        -3.1961864576        7.4635548917        7.7461640541
 Ga        -3.1961936725        5.6181048738        8.3989132242
  N        -3.1963314307        5.6182773924       10.3684556756
 Ga        -3.1964220398        7.4580144261       11.0237106260
  N        -3.1969034199        7.4375707905       13.0145362490
 Ga        -3.1977358581        5.6166513019       13.8214973065
  N        -3.1943593267        5.6161418123       16.0172163693
 Ga        -3.1935945143        7.6578483348       16.4297214225
 Ga        -3.1952606552        9.3329816218        1.4468955022
  N        -4.6978659623       10.1986393032        2.4746280847
 Ga        -4.9051495638        8.3449571086        3.2398382534
  N        -4.8052646081        8.4022375333        5.2004684129
 Ga        -4.8292942961       10.2740192738        5.7539123441
  N        -4.8142361166       10.2659319058        7.7462931022
 Ga        -4.7944314171        8.4091588914        8.3911982838
  N        -4.7933052687        8.4099516596       10.3801497316
 Ga        -4.8191691447       10.2687757232       11.0246075986
  N        -4.8376468205       10.2789834612       13.0155812310
 Ga        -4.7941742286        8.4095571431       13.5757995353
  N        -4.8223112224        8.3922811965       15.5376477565
 Ga        -4.6464413199       10.1712391143       16.4294835274
  N        -3.1940662015        9.3345066587       17.5465671845
  N         3.2364546977        1.9038579493        2.5610669437
 Ga         3.2364398206        0.1630911474        3.2426538607
  N         3.2362281402        0.0478631371        5.2028626078
 Ga         3.2363380500        1.9042648924        5.8303499159
  N         3.2360550592        1.9040280857        7.7999284686
 Ga         3.2361759523        0.0360514802        8.3915283180
  N         3.2362439650        0.0346425610       10.3808558711
 Ga         3.2364029075        1.9049229823       10.9780526611
  N         3.2364475507        1.9038925309       12.9451767421
 Ga         3.2354142797        0.0356307730       13.5753939501
  N         3.2367467730        0.0705371413       15.5362464859
 Ga         3.2363643228        1.9085722753       15.8145902998
  N         1.5127651919        4.6218002826        2.4874221567
 Ga         1.7276217437        2.7733577271        3.2436993657
  N         1.6286088887        2.8306642611        5.2041621890
 Ga         1.6563129307        4.7053650416        5.7504312610
  N         1.6377351815        4.6951230101        7.7454818843
 Ga         1.6182307522        2.8387019543        8.3910628040
  N         1.6166353984        2.8394165017       10.3802944677
 Ga         1.6430155511        4.6987747265       11.0230579279
  N         1.6598243497        4.7088616948       13.0125618980
 Ga         1.6172342298        2.8384083608       13.5696814702
  N         1.6415486372        2.8214834668       15.5264035749
 Ga         1.4715444005        4.5977402526       16.4309751913
  N         0.0197209623        7.4749028338        2.5602797115
 Ga         0.0193285183        5.7335028521        3.2432737984
  N         0.0190270827        5.6190147225        5.2037687256
 Ga         0.0199867736        7.4747633747        5.8301867038
  N         0.0196692204        7.4750148459        7.7996306485
 Ga         0.0202163486        5.6067027713        8.3907164436
  N         0.0199683357        5.6056770100       10.3798178370
 Ga         0.0204845547        7.4757388909       10.9785912786
  N         0.0196992291        7.4761653039       12.9457171308
 Ga         0.0189435854        5.6070883671       13.5712111979
  N         0.0170836573        5.6354595644       15.5293899407
 Ga         0.0233529714        7.4744040291       15.8164693195
  N        -1.6941303637       10.1987990011        2.4754571157
 Ga        -1.4880186278        8.3454050386        3.2420886511
  N        -1.5875430397        8.4026269292        5.2024688967
 Ga        -1.5627398355       10.2742506268        5.7542315212
  N        -1.5779300015       10.2659536990        7.7464967441
 Ga        -1.5978668193        8.4091666195        8.3914566714
  N        -1.5994398634        8.4103031237       10.3806830720
 Ga        -1.5728481651       10.2691683588       11.0258866596
  N        -1.5556107864       10.2793939072       13.0168029562
 Ga        -1.5990200392        8.4093705165       13.5745926002
  N        -1.5685811004        8.3926267691       15.5347112234
 Ga        -1.7417732680       10.1711017203       16.4299288848
  N         6.4522055098        2.0275178278        2.4733372124
 Ga         6.4514841927        0.0493938250        2.8102742518
  N         6.4524299992        0.0472319005        4.9670765460
 Ga         6.4529253578        1.8748783448        5.7543109978
  N         6.4525615327        1.8923826639        7.7464792530
 Ga         6.4523681666        0.0474920551        8.4002170170
  N         6.4523220827        0.0472275959       10.3697036995
 Ga         6.4520443492        1.8868021479       11.0245927854
  N         6.4521244506        1.8673674592       13.0132147119
 Ga         6.4550381447        0.0488085059       13.8284674441
  N         6.4534706379        0.0486165871       16.0215376040
 Ga         6.4545701823        2.0946802281       16.4402050401
 Ga         6.4436468783        3.7653362866        1.4514715286
  N         4.9604009483        4.6263727021        2.4939957707
 Ga         4.7441457939        2.7750531516        3.2442965650
  N         4.8442275345        2.8303901405        5.2045179487
 Ga         4.8164085056        4.7053939175        5.7495912779
  N         4.8342523325        4.6951278255        7.7447565889
 Ga         4.8541649362        2.8385929894        8.3906589019
  N         4.8557888467        2.8392327443       10.3796397831
 Ga         4.8295710758        4.6982424659       11.0236265242
  N         4.8121964739        4.7086888920       13.0132099710
 Ga         4.8549629229        2.8390108974       13.5748678067
  N         4.8316096089        2.8206335004       15.5316936852
 Ga         5.0069841904        4.5931238555       16.4390222986
  N         6.4479711669        3.7629948494       17.5877143594
  N         3.2392457340        7.6110044865        2.4934107330
 Ga         3.2337529872        5.6185370470        2.7397024092
  N         3.2361142642        5.6175551789        4.9513319441
 Ga         3.2361546392        7.4418357586        5.7499568965
  N         3.2359368071        7.4635045980        7.7448244547
 Ga         3.2360297212        5.6181875086        8.3986007251
  N         3.2362605031        5.6183622599       10.3688296486
 Ga         3.2358752823        7.4583475838       11.0245566646
  N         3.2360111983        7.4388750251       13.0139243007
 Ga         3.2368862953        5.6202384720       13.8247463955
  N         3.2344363970        5.6172832921       16.0166392405
 Ga         3.2357898854        7.6702796095       16.4504846200
 Ga         3.2305372078        9.3340242228        1.4563772434
  N         1.7318076751       10.2005293279        2.4776387601
 Ga         1.5274229997        8.3446147807        3.2447173379
  N         1.6264211588        8.4034636181        5.2044383630
 Ga         1.6031602425       10.2743910566        5.7541699824
  N         1.6179498625       10.2661411112        7.7462236824
 Ga         1.6380407362        8.4089543318        8.3908625996
  N         1.6393538136        8.4102770086       10.3795787778
 Ga         1.6133714593       10.2684894909       11.0256504627
  N         1.5959754203       10.2789100456       13.0144501106
 Ga         1.6388291281        8.4103971775       13.5789366917
  N         1.6113524483        8.3971143732       15.5354398253
 Ga         1.8005752573       10.1619751379       16.4513580572
  N         3.2363482500        9.3271409224       17.5985743005
  N         9.6688898761        1.9046900702        2.5603436679
 Ga         9.6691500981        0.1636655444        3.2424023331
  N         9.6688029164        0.0481805662        5.2022407303
 Ga         9.6685624027        1.9043016698        5.8291773306
  N         9.6685475031        1.9041547904        7.7986575266
 Ga         9.6680951774        0.0360950504        8.3911195851
  N         9.6680705563        0.0346768835       10.3800819490
 Ga         9.6679597701        1.9040340669       10.9785533315
  N         9.6677304626        1.9036230990       12.9465756039
 Ga         9.6682384251        0.0341099248       13.5787081710
  N         9.6680893703        0.0659846617       15.5341837228
 Ga         9.6677187192        1.9037778358       15.8077075351
  N         7.9540438277        4.6291101625        2.4725401952
 Ga         8.1596870261        2.7757345026        3.2402051098
  N         8.0615624047        2.8318347932        5.2012032350
 Ga         8.0860873662        4.7032596820        5.7544545062
  N         8.0705364008        4.6948798436        7.7465669460
 Ga         8.0505960828        2.8379493181        8.3907758912
  N         8.0489504045        2.8389591680       10.3799162684
 Ga         8.0743990328        4.6981762813       11.0226408828
  N         8.0919320554        4.7084879046       13.0114233814
 Ga         8.0491047890        2.8393763171       13.5736253406
  N         8.0754016254        2.8227648283       15.5285954543
 Ga         7.8957101740        4.5891294793       16.4396416614
  N         6.4494498767        7.4751187010        2.5555419356
 Ga         6.4542467859        5.7345267716        3.2457094609
  N         6.4544446636        5.6197616588        5.2049157028
 Ga         6.4526207794        7.4748925358        5.8313856297
  N         6.4525193582        7.4750632606        7.7999301287
 Ga         6.4518569518        5.6064612300        8.3901453843
  N         6.4521272719        5.6054878688       10.3789167060
 Ga         6.4514416375        7.4751486325       10.9792121588
  N         6.4521376626        7.4752973343       12.9469527528
 Ga         6.4524656634        5.6057177785       13.5758078178
  N         6.4556776538        5.6340234849       15.5344122160
 Ga         6.4487100485        7.4731600039       15.8167998971
  N         4.7395613535       10.1994549446        2.4738806226
 Ga         4.9450924044        8.3483768303        3.2477752011
  N         4.8466296742        8.4037640181        5.2061694825
 Ga         4.8696537574       10.2748511532        5.7550990939
  N         4.8540475750       10.2661964651        7.7468165523
 Ga         4.8338740679        8.4087715663        8.3906273317
  N         4.8326939762        8.4099296638       10.3792758090
 Ga         4.8582534149       10.2683046561       11.0244979475
  N         4.8757514516       10.2785382572       13.0132184793
 Ga         4.8328027475        8.4103891618       13.5786157317
  N         4.8606275960        8.3966421716       15.5355791445
 Ga         4.6713010344       10.1620488677       16.4511527412
  O         3.2276082183        5.6795382756       -0.1421259946
  H         2.5648304817        5.2832217590       -0.7214703100
  C         4.0145479452        6.6350043094       -0.8689796920
  H         3.3830966410        7.2772450526       -1.5001724179
  H         4.5359627272        7.2458614078       -0.1176611090
  H         4.7732380829        6.1460699347       -1.4985238747
     206
 i =        3, E =     -8480.5264604476
  N         0.0198094816        2.0256169420        2.4759162875
 Ga         0.0200330058        0.0488468328        2.8115568996
  N         0.0200562341        0.0471363753        4.9663019382
 Ga         0.0200096925        1.8752521092        5.7550503114
  N         0.0197417729        1.8925923565        7.7461312190
 Ga         0.0199098350        0.0475311231        8.4004696336
  N         0.0200537474        0.0466910524       10.3686372090
 Ga         0.0198141877        1.8865873679       11.0231325130
  N         0.0195354626        1.8667939214       13.0099408732
 Ga         0.0165835946        0.0487951654       13.8279055882
  N         0.0188642520        0.0490433905       16.0195624694
 Ga         0.0200116324        2.0934063492       16.4362037159
 Ga         0.0175240723        3.7601388525        1.4503310629
  N        -1.4833109123        4.6288202093        2.4760850529
 Ga        -1.6880977341        2.7747546548        3.2419443569
  N        -1.5889216806        2.8317315993        5.2015176627
 Ga        -1.6127371963        4.7034865258        5.7546080530
  N        -1.5983056544        4.6951796431        7.7457558342
 Ga        -1.5784483426        2.8383314691        8.3912259451
  N        -1.5774099565        2.8390657364       10.3791103958
 Ga        -1.6030036412        4.6986269345       11.0227703323
  N        -1.6208281570        4.7087538049       13.0099661748
 Ga        -1.5770261802        2.8394571410       13.5721452128
  N        -1.6015832812        2.8245563779       15.5274733117
 Ga        -1.4233967099        4.5938256121       16.4360300277
  N         0.0263967127        3.7649603147       17.5839843019
  N        -3.1964470226        7.5979973802        2.4739337701
 Ga        -3.1962905505        5.6171670074        2.8110162469
  N        -3.1960406098        5.6175312497        4.9661355423
 Ga        -3.1964256500        7.4456674613        5.7539266549
  N        -3.1962948764        7.4636431890        7.7452295953
 Ga        -3.1962237450        5.6181654713        8.3996516960
  N        -3.1964894285        5.6186420743       10.3678576995
 Ga        -3.1965061111        7.4577520010       11.0256662327
  N        -3.1967297806        7.4378353371       13.0157293550
 Ga        -3.1966636839        5.6161465650       13.8251150822
  N        -3.1948339958        5.6161170327       16.0172700997
 Ga        -3.1946890810        7.6579378364       16.4281991879
 Ga        -3.1952581971        9.3329124876        1.4489224556
  N        -4.6978450880       10.1986793202        2.4740997555
 Ga        -4.9063110938        8.3444378249        3.2392123187
  N        -4.8058011866        8.4019080840        5.1990494003
 Ga        -4.8290891602       10.2736970185        5.7541637548
  N        -4.8141722576       10.2657113376        7.7454257537
 Ga        -4.7942441587        8.4091949669        8.3929921280
  N        -4.7931642113        8.4100609121       10.3806639224
 Ga        -4.8193501306       10.2687996317       11.0266145100