     156
 i =        1, E =     -6136.6146106184
 Ga        -0.0031979834       -0.0157539608       -0.5346091762
  N        -0.0002873958        1.8585463087        0.6064509720
 Ga        -0.0003433324        1.8278706847        2.6381131597
  N        -0.0034181236       -0.0156295339        3.2695845447
 Ga        -0.0021947211       -0.0150480436        5.2603389099
  N         0.0008073436        1.8595949813        5.8482061458
 Ga         0.0022186077        1.8581597254        7.8481040634
  N         0.0007901301       -0.0150630446        8.4504121383
 Ga         0.0038026699       -0.0152927323       10.4497058945
  N         0.0041314780        1.8599882771       11.0440907270
 Ga         0.0090686325        1.8629956435       13.0357308624
  N         0.0155764171       -0.0099047660       13.6291194297
 Ga         0.0281869070       -0.0086929146       15.6198532435
  N         0.0140875460        1.8569791858       16.2258150825
 Ga         0.0440740405        1.8438844832       18.2883902461
  N         0.0512912116       -0.0311230820       18.7043085944
 Ga        -1.6231911034        2.7901057459        0.3241217245
  N        -1.6247001606        4.6598100113        0.6069506654
 Ga        -1.5957450869        4.6757281658        2.6368165193
  N        -1.6229453513        2.7899226558        3.2283118300
 Ga        -1.6217408272        2.7906077850        5.2398954618
  N        -1.6212919582        4.6609148469        5.8464663679
 Ga        -1.6191506127        4.6613840877        7.8451060850
  N        -1.6203788379        2.7917848611        8.4509750596
 Ga        -1.6191640985        2.7950951294       10.4470766558
  N        -1.6174137023        4.6667393948       11.0552833183
 Ga        -1.6180374401        4.6707599536       13.0525298757
  N        -1.6094632896        2.8002986684       13.6551854107
 Ga        -1.5959746594        2.8137060425       15.6573376823
  N        -1.5868446270        4.6813113145       16.3074258190
 Ga        -1.5167201379        4.6827128255       18.3846903409
  N        -1.5540312428        2.7888752162       18.7653310919
 Ga        -3.2436110396        5.5953196364        0.3240500280
  N        -3.2373434496        7.4661185783        0.6066718667
 Ga        -3.2643558519        7.4808056032        2.6382246468
  N        -3.2426884966        5.5952680404        3.2286390886
 Ga        -3.2419041114        5.5960211300        5.2400790280
  N        -3.2358368811        7.4662980664        5.8469271812
 Ga        -3.2359079486        7.4670711230        7.8460125962
  N        -3.2399037055        5.5961597866        8.4492293496
 Ga        -3.2387787243        5.5971800789       10.4446307818
  N        -3.2308069448        7.4657850427       11.0554038737
 Ga        -3.2222093825        7.4630832444       13.0534834733
  N        -3.2337076149        5.5985534286       13.6943636747
 Ga        -3.2226659727        5.5928375315       15.7308924005
  N        -3.2137178315        7.4800904563       16.2634553690
 Ga        -3.1828885690        7.4489323709       18.3231904704
  N        -3.1685492104        5.5850705724       18.8537107726
 Ga         3.2428034469       -0.0154188899        0.3243999590
  N         3.2411740111        1.8546568963        0.6064353269
 Ga         3.2695369112        1.8704193987        2.6371870196
  N         3.2426148353       -0.0154295456        3.2282931920
 Ga         3.2439787419       -0.0146516789        5.2399488187
  N         3.2445996605        1.8555006067        5.8474444589
 Ga         3.2470137403        1.8562574412        7.8468260467
  N         3.2449110438       -0.0147392989        8.4495656229
 Ga         3.2477803360       -0.0139804937       10.4450800574
  N         3.2513677622        1.8568957062       11.0512931710
 Ga         3.2582104941        1.8541952914       13.0484262066
  N         3.2569785469       -0.0166282737       13.6603072771
 Ga         3.2732632434       -0.0165309798       15.6662408733
  N         3.2824326604        1.8607874382       16.2234624188
 Ga         3.3170007559        1.8610843934       18.2473894805
  N         3.3102790315       -0.0265746273       18.7036361579
 Ga         1.6222426861        2.7908074521        0.3240207906
  N         1.6291779814        4.6604482937        0.6072402535
 Ga         1.6011699896        4.6758572716        2.6371444295
  N         1.6227150109        2.7900651591        3.2290474051
 Ga         1.6242153776        2.7909344993        5.2409043555
  N         1.6297134269        4.6611578096        5.8483582823
 Ga         1.6301045712        4.6614675526        7.8481573723
  N         1.6260327166        2.7902615095        8.4493795596
 Ga         1.6292524935        2.7915633010       10.4448902028
  N         1.6276867835        4.6622925669       11.0486499771
 Ga         1.6292306811        4.6632348183       13.0435726117
  N         1.6324135721        2.7874813034       13.6463762675
 Ga         1.6467149674        2.7785194546       15.6409999061
  N         1.6329156663        4.6642451852       16.1835599295
 Ga         1.6801393046        4.6397066067       18.1833168961
  N         1.6839295553        2.7758630107       18.6426824709
 Ga         0.0031072556        5.5957680589       -0.5474507813
  N         0.0059445862        7.4706385565        0.6069248959
 Ga         0.0060539286        7.4383321687        2.6369053501
  N         0.0029996447        5.5951907984        3.2696046766
 Ga         0.0046694862        5.5961941837        5.2597846638
  N         0.0074538981        7.4707100243        5.8476701931
 Ga         0.0088536505        7.4693309847        7.8471172487
  N         0.0049333618        5.5957302166        8.4470754879
 Ga         0.0064792521        5.5971950527       10.4442193581
  N         0.0117370153        7.4693181107       11.0458675810
 Ga         0.0147239667        7.4716863009       13.0384011828
  N         0.0064904120        5.6021056609       13.6465490067
 Ga         0.0046306574        5.6023050241       15.6424648859
  N         0.0357601218        7.4630197342       16.2740938284
 Ga         0.0787895777        7.4297384657       18.3603546058
  N         0.1442480913        5.5768149230       18.9138162073
 Ga         6.4870366833       -0.0149834013        0.3236233643
  N         6.4936044989        1.8551040893        0.6060868687
 Ga         6.4661494732        1.8702485361        2.6369731467
  N         6.4882083736       -0.0153665833        3.2288821126
 Ga         6.4897562982       -0.0146702221        5.2407976098
  N         6.4945286643        1.8558658630        5.8478862870
 Ga         6.4944981754        1.8569164464        7.8474009084
  N         6.4909661445       -0.0136210057        8.4511555046
 Ga         6.4944370449       -0.0111678236       10.4476406182
  N         6.4966723435        1.8610002235       11.0533168312
 Ga         6.5001320115        1.8658898025       13.0502683738
  N         6.4900803251       -0.0072953697       13.6403518756
 Ga         6.5061163735        0.0017427960       15.6420511711
  N         6.5204484104        1.8767950683       16.2255108737
 Ga         6.5722233347        1.8791819625       18.2664431492
  N         6.5644985711       -0.0193964034       18.6540502361
 Ga         4.8675654582        2.7916298635       -0.5416366150
  N         4.8709680211        4.6647020503        0.6069673858
 Ga         4.8708096487        4.6333500342        2.6374421277
  N         4.8682860542        2.7899303950        3.2692670216
 Ga         4.8695614566        2.7911248987        5.2595275132
  N         4.8721689562        4.6652094114        5.8480497592
 Ga         4.8728018566        4.6639421829        7.8476532669
  N         4.8709188551        2.7913960959        8.4503482275
 Ga         4.8738049535        2.7952818274       10.4497395054
  N         4.8796992126        4.6660294963       11.0586463078
 Ga         4.8826139381        4.6695499019       13.0612057296
  N         4.8752524110        2.7952122518       13.6530533555
 Ga         4.8851466456        2.8000748129       15.6649229638
  N         4.8649262984        4.6716397351       16.1724741881
 Ga         4.9208246873        4.6629626219       19.1290670993
  N         4.9381083505        2.7852054076       18.7424319322
 Ga         3.2487489440        5.5948169536        0.3235836126
  N         3.2479731828        7.4655171572        0.6061446617
 Ga         3.2756080060        7.4806689863        2.6377621009
  N         3.2486038394        5.5955092517        3.2290528462
 Ga         3.2499902871        5.5963721719        5.2406673074
  N         3.2504681581        7.4661735403        5.8493193825
 Ga         3.2531576603        7.4666793405        7.8495959334
  N         3.2514437722        5.5959851088        8.4547978930
 Ga         3.2549847776        5.5975591247       10.4537678610
  N         3.2566182217        7.4713747710       11.0516201476
 Ga         3.2579969223        7.4723088440       13.0487721852
  N         3.2490451296        5.5967604797       13.6317700625
 Ga         3.2598247550        5.6067830340       15.6379764271
  N         3.2803259490        7.4895087068       16.1566501564
 Ga         3.3293236579        7.4926926118       18.1706714203
  N         3.3615669036        5.5716620901       18.4701807307
  O         1.8273727178        4.9591326622       21.1629111144
  H         1.0647063472        5.3648014090       20.5624232363
  C         0.8959076741        4.0479066458       21.8475488496
  H         0.1428161905        3.5621660560       21.2034950877
  H         1.5347702943        3.2245421984       22.1816684082
  H         0.3343174394        4.3683492492       22.7404198924
  O         4.0512214107        4.7113327227       21.0612078329
  H         3.0261020244        4.8798553627       21.1172915242
  C         4.5388773544        3.6274077314       21.9207462452
  H         4.1240894180        2.6744480113       21.5649888996
  H         5.6307388026        3.5050342476       21.9648472206
  H         4.1840742170        3.8066884958       22.9433219455
     156
 i =        2, E =     -6136.6372828277
 Ga        -0.0031989319       -0.0157946810       -0.5387157268
  N        -0.0002598880        1.8585415054        0.6070820413
 Ga        -0.0002997084        1.8279778389        2.6382750091
  N        -0.0033627149       -0.0156077781        3.2697623054
 Ga        -0.0021550780       -0.0150443598        5.2603903465
  N         0.0008499460        1.8597065906        5.8484451568
 Ga         0.0023464096        1.8581851279        7.8483683457
  N         0.0008756328       -0.0150145839        8.4504437857
 Ga         0.0038046000       -0.0156920087       10.4496297480
  N         0.0043369485        1.8600151061       11.0422377907
 Ga         0.0098857137        1.8620492290       13.0329597728
  N         0.0155396075       -0.0088298469       13.6342919780
 Ga         0.0312197254       -0.0198799903       15.6267022566
  N         0.0216285693        1.8572828678       16.2195796850
 Ga         0.0448910627        1.8478068733       18.2846720337
  N         0.0469989589       -0.0246993943       18.6984550977
 Ga        -1.6229975549        2.7898452514        0.3240444024
  N        -1.6247293493        4.6597659770        0.6066715009
 Ga        -1.5957220483        4.6757118098        2.6367539841
  N        -1.6230490488        2.7899743838        3.2283093450
 Ga        -1.6217495117        2.7906555819        5.2398333589
  N        -1.6212379862        4.6609193108        5.8466556863
 Ga        -1.6190876832        4.6616292181        7.8453679044
  N        -1.6203663119        2.7918684557        8.4512015571
 Ga        -1.6194363341        2.7954028999       10.4472401328
  N        -1.6175411208        4.6668646945       11.0553325663
 Ga        -1.6183423271        4.6711996417       13.0530669811
  N        -1.6067716560        2.7997327989       13.6598379348
 Ga        -1.6011817021        2.8164393530       15.6646110766
  N        -1.5859370480        4.6840370377       16.3129447650
 Ga        -1.5126207059        4.6831222706       18.3908690690
  N        -1.5530959450        2.7880722863       18.7559748594
 Ga        -3.2437161308        5.5955874421        0.3239587912
  N        -3.2372942181        7.4661147680        0.6073231445
 Ga        -3.2642169974        7.4807192402        2.6384305747
  N        -3.2426546835        5.5950684621        3.2286652697
 Ga        -3.2418943364        5.5960102530        5.2400925839
  N        -3.2357400088        7.4663224848        5.8470819400
 Ga        -3.2358197968        7.4670703743        7.8462016085
  N        -3.2398905556        5.5962232889        8.4496325613
 Ga        -3.2389834531        5.5972586302       10.4451890289
  N        -3.2308972198        7.4659105075       11.0555583272
 Ga        -3.2221248507        7.4628728753       13.0544791924
  N        -3.2361501649        5.5970422904       13.6925117657
 Ga        -3.2226648611        5.5916652257       15.7298222537
  N        -3.2071178101        7.4723273847       16.2720591994
 Ga        -3.1885048974        7.4450909002       18.3300301177
  N        -3.1671168501        5.5804091654       18.8564244459
 Ga         3.2425418027       -0.0154470075        0.3243269369
  N         3.2415269817        1.8548393265        0.6064330124
 Ga         3.2696161846        1.8704227369        2.6373050853
  N         3.2427972669       -0.0153389275        3.2283095600
 Ga         3.2440628685       -0.0145879745        5.2399449417
  N         3.2446660753        1.8555485602        5.8476062706
 Ga         3.2471661021        1.8563031420        7.8469477623
  N         3.2448672618       -0.0146026468        8.4498900718
 Ga         3.2477653393       -0.0140747120       10.4454917586
  N         3.2517490006        1.8569910156       11.0513450328
 Ga         3.2585533764        1.8538564472       13.0487730447
  N         3.2573614393       -0.0165760964       13.6600634161
 Ga         3.2691211699       -0.0189712147       15.6659589319
  N         3.2838042335        1.8535399115       16.2328540204
 Ga         3.3212359530        1.8613056489       18.2586361927
  N         3.3050278045       -0.0261068752       18.7167001130
 Ga         1.6221118939        2.7905551815        0.3239667722
  N         1.6292715117        4.6603987484        0.6070024536
 Ga         1.6012408719        4.6758281159        2.6371117138
  N         1.6229125922        2.7900938179        3.2290559902
 Ga         1.6243314856        2.7909879440        5.2408624516
  N         1.6297330833        4.6611609427        5.8485491096
 Ga         1.6302695372        4.6616855652        7.8484571388
  N         1.6261961304        2.7903393308        8.4496582755
 Ga         1.6297184878        2.7921859756       10.4451605503
  N         1.6278712984        4.6624790242       11.0487657694
 Ga         1.6287742151        4.6648340410       13.0444181731
  N         1.6316498060        2.7876958306       13.6467447441
 Ga         1.6559955247        2.7858026754       15.6409790799
  N         1.6275468565        4.6647488814       16.1820288020
 Ga         1.6766150118        4.6403331331       18.1783331872
  N         1.6839437619        2.7782507758       18.6325195917
 Ga         0.0031643079        5.5957474437       -0.5460399387
  N         0.0059718981        7.4706858656        0.6066758858
 Ga         0.0060931771        7.4383445834        2.6368576788
  N         0.0030411453        5.5951850176        3.2694317452
 Ga         0.0047251229        5.5962219477        5.2597222043
  N         0.0074900887        7.4707225872        5.8479622245
 Ga         0.0089306099        7.4693618188        7.8475737082
  N         0.0050088837        5.5956889632        8.4475989602
 Ga         0.0066922038        5.5972495213       10.4449866466
  N         0.0116865341        7.4694851243       11.0449060748
 Ga         0.0151590584        7.4717381536       13.0371321086
  N         0.0055376170        5.6029735603       13.6444429790
 Ga         0.0067030208        5.6017363979       15.6401773766
  N         0.0382131656        7.4668170223       16.2666339002
 Ga         0.0704063588        7.4290109469       18.3550449862
  N         0.1465144034        5.5797223939       18.9285948632
 Ga         6.4873565936       -0.0150167936        0.3235619707
  N         6.4933161700        1.8552802874        0.6061009306
 Ga         6.4661527454        1.8702568960        2.6371007192
  N         6.4880880813       -0.0152585156        3.2289374019
 Ga         6.4897882181       -0.0146133915        5.2408519038
  N         6.4945929648        1.8559314206        5.8480920849
 Ga         6.4944176794        1.8568636943        7.8476064579
  N         6.4910342101       -0.0135010444        8.4515560074
 Ga         6.4945638720       -0.0111786763       10.4482305655
  N         6.4964098549        1.8612764162       11.0531825323
 Ga         6.5012075418        1.8656609393       13.0505717000
  N         6.4904628409       -0.0067701676       13.6371601344
 Ga         6.5091557445       -0.0002837183       15.6374783549
  N         6.5160932714        1.8726551461       16.2296143180
 Ga         6.5726105275        1.8761657910       18.2713218793
  N         6.5592238770       -0.0224135148       18.6613678659
 Ga         4.8676133143        2.7915711633       -0.5409338384
  N         4.8710088466        4.6643015893        0.6069654728
 Ga         4.8708478461        4.6332998794        2.6375775325
  N         4.8683265182        2.7899076722        3.2692394002
 Ga         4.8696230120        2.7911855290        5.2595044194
  N         4.8722765681        4.6651929827        5.8482784870
 Ga         4.8727575061        4.6640885889        7.8479155589
  N         4.8709674304        2.7914955118        8.4504106880
 Ga         4.8738355535        2.7956635435       10.4496146067
  N         4.8794557834        4.6659894766       11.0581405843
 Ga         4.8806409736        4.6699061430       13.0606283782
  N         4.8760135501        2.7961771655       13.6547061627
 Ga         4.8826356148        2.8009554396       15.6689521423
  N         4.8597256987        4.6745178145       16.1635233252
 Ga         4.9148691276        4.6664546003       19.1384141459
  N         4.9414601021        2.7902900051       18.7418079707
 Ga         3.2489129396        5.5950573091        0.3235166426
  N         3.2479775946        7.4654861891        0.6068626801
 Ga         3.2755423520        7.4805804827        2.6380286339
  N         3.2486576996        5.5953040276        3.2291390027
 Ga         3.2501000763        5.5963471992        5.2407758957
  N         3.2504902867        7.4662033682        5.8495624035
 Ga         3.2531250433        7.4666017069        7.8499710689
  N         3.2515336849        5.5960125934        8.4551210365
 Ga         3.2548743038        5.5977572932       10.4542537385
  N         3.2567584299        7.4715694709       11.0502705292
 Ga         3.2575774258        7.4733425416       13.0475059608
  N         3.2486733558        5.5992292425       13.6281924691
 Ga         3.2548210189        5.6068539759       15.6334804604
  N         3.2795214138        7.4862564877       16.1575425113
 Ga         3.3258199596        7.4952258102       18.1703172841
  N         3.3648768853        5.5710302446       18.4469331876
  O         1.7465965501        4.9605539040       21.1981118635
  H         1.1607622578        5.4102761182       20.4876203344
  C         0.9273405237        3.9627349988       21.8802197836
  H         0.1686181830        3.5993913647       21.1587135282
  H         1.5774129074        3.1569857257       22.2153662785
  H         0.3776009161        4.4440909051       22.7192788970
  O         4.0500679149        4.7160407924       21.0682419356
  H         2.9545496154        4.8352467721       21.1407709492
  C         4.5026242298        3.6230839255       21.9255408572
  H         4.1200730053        2.6585802949       21.5625909422
  H         5.6046514355        3.5474131191       21.9337923267
  H         4.1786691291        3.8129244288       22.9566395501
     156
 i =        3, E =     -6136.6419405481
 Ga        -0.0031963928       -0.0158268941       -0.5420159007
  N        -0.0002269324        1.8587012331        0.6074053252
 Ga        -0.0002459017        1.8277497331        2.6380164372
  N        -0.0033126714       -0.0156256354        3.2702592528
 Ga        -0.0021057539       -0.0150222538        5.2605243283
  N         0.0009203857        1.8597703414        5.8486820252
 Ga         0.0025018091        1.8583252531        7.8484494657
  N         0.0010478983       -0.0149946789        8.4500376434
 Ga         0.0041805413       -0.0153531458       10.4488839802
  N         0.0044039588        1.8599485896       11.0451959805
 Ga         0.0108882586        1.8617872016       13.0368171091
  N         0.0166319154       -0.0093398186       13.6380768443
 Ga         0.0340914712       -0.0251345804       15.6311105370
  N         0.0257944361        1.8564911804       16.2176992554
 Ga         0.0470684012        1.8502411197       18.2811624929
  N         0.0429202296       -0.0206921209       18.6922831584
 Ga        -1.6227705845        2.7897665095        0.3240925164
  N        -1.6245993517        4.6598042167        0.6066082688
 Ga        -1.5958018643        4.6756450248        2.6367209552
  N        -1.6229244731        2.7899026678        3.2285568275
 Ga        -1.6216823325        2.7907398104        5.2399583540
  N        -1.6211484364        4.6609942240        5.8468907562
 Ga        -1.6190121289        4.6618555768        7.8454780312
  N        -1.6203322395        2.7920045728        8.4513070222
 Ga        -1.6191805520        2.7955067249       10.4471264688
  N        -1.6177216626        4.6667623891       11.0557868322
 Ga        -1.6188777182        4.6704324553       13.0534794906
  N        -1.6059013272        2.7997215409       13.6635828617
 Ga        -1.6017149616        2.8170835483       15.6691395580
  N        -1.5858364642        4.6831695070       16.3192445864
 Ga        -1.5110508648        4.6863667824       18.4003482327
  N        -1.5510526687        2.7877429307       18.7449017443
 Ga        -3.2436337306        5.5957811802        0.3240031833
  N        -3.2370939658        7.4660206490        0.6076465429
 Ga        -3.2643374139        7.4807956174        2.6381811134
  N        -3.2426283344        5.5951427952        3.2288936468
 Ga        -3.2418175365        5.5960304810        5.2401903225
  N        -3.2356612354        7.4663565666        5.8471993650
 Ga        -3.2356343741        7.4670535500        7.8461174050
  N        -3.2398173914        5.5963497512        8.4499661572
 Ga        -3.2390596322        5.5972620721       10.4454939951
  N        -3.2310236256        7.4660225962       11.0555340271
 Ga        -3.2223591826        7.4624373924       13.0544078567
  N        -3.2370370550        5.5963694226       13.6922864795
 Ga        -3.2223359780        5.5903786293       15.7307310053
  N        -3.2034642686        7.4662792250       16.2783608952
 Ga        -3.1935758643        7.4405016803       18.3362525415
  N        -3.1713608939        5.5760781289       18.8636221120
 Ga         3.2424372278       -0.0155904974        0.3243822429
  N         3.2416309657        1.8548624116        0.6063953626
 Ga         3.2696156094        1.8703711479        2.6373293809
  N         3.2427660537       -0.0153882827        3.2285482652
 Ga         3.2441669027       -0.0145934895        5.2400480117
  N         3.2447202646        1.8555658069        5.8477440945
 Ga         3.2472525234        1.8563089002        7.8469084942
  N         3.2448454146       -0.0145128012        8.4500370975
 Ga         3.2476249345       -0.0139552519       10.4454424742
  N         3.2520692924        1.8570530980       11.0516606044
 Ga         3.2592315624        1.8534021021       13.0488720177
  N         3.2562247385       -0.0164759383       13.6610085976
 Ga         3.2661422166       -0.0191450110       15.6676555140
  N         3.2841413365        1.8503696331       16.2397488215
 Ga         3.3239734482        1.8616457997       18.2672282191
  N         3.2997670931       -0.0256595495       18.7294626105
 Ga         1.6219637321        2.7904767350        0.3240489988
  N         1.6292266350        4.6604285656        0.6069870270
 Ga         1.6014425236        4.6757504896        2.6371086132
  N         1.6228953413        2.7900146279        3.2292935258
 Ga         1.6243947816        2.7910687445        5.2409597159
  N         1.6297674300        4.6612179741        5.8487276903
 Ga         1.6302943658        4.6618392320        7.8485136479
  N         1.6264128933        2.7904699866        8.4499108725
 Ga         1.6297386969        2.7922032427       10.4453294822
  N         1.6277855539        4.6626369528       11.0476928385
 Ga         1.6274480010        4.6652329994       13.0430929874
  N         1.6335447389        2.7886528802       13.6474074364
 Ga         1.6595301162        2.7871463954       15.6409258199
  N         1.6234612561        4.6640492989       16.1727529572
 Ga         1.6772036495        4.6387782535       18.1644765000
  N         1.6841635355        2.7813555328       18.6261423447
 Ga         0.0032388782        5.5957258957       -0.5457117085
  N         0.0060113750        7.4705653665        0.6066510437
 Ga         0.0061469213        7.4384835620        2.6368476380
  N         0.0030988835        5.5951820844        3.2694037373
 Ga         0.0047963093        5.5962731615        5.2597374523
  N         0.0075494115        7.4707256322        5.8482776455
 Ga         0.0089217549        7.4693689199        7.8477949641
  N         0.0050603920        5.5957194080        8.4477779852
 Ga         0.0064521669        5.5971967579       10.4450314330
  N         0.0116491386        7.4696398134       11.0443117620
 Ga         0.0146542157        7.4726739505       13.0363686998
  N         0.0044639306        5.6038302464       13.6420502501
 Ga         0.0056952787        5.6006671393       15.6375048306
  N         0.0397393766        7.4684169023       16.2619081928
 Ga         0.0631272986        7.4317680170       18.3511228407
  N         0.1569092809        5.5830463152       18.9379741423
 Ga         6.4875466386       -0.0151640486        0.3236403260
  N         6.4932923395        1.8553027729        0.6060625764
 Ga         6.4662534381        1.8701971130        2.6371205458
  N         6.4882092318       -0.0152969947        3.2292090591
 Ga         6.4898256894       -0.0146295891        5.2409871673
  N         6.4946825350        1.8559366904        5.8482296447
 Ga         6.4944412399        1.8569103438        7.8475773942
  N         6.4910295921       -0.0133860204        8.4514553575
 Ga         6.4945762483       -0.0106685395       10.4480257612
  N         6.4965701187        1.8617970333       11.0541638174
 Ga         6.5016660252        1.8669058669       13.0518378127
  N         6.4912977783       -0.0059527505       13.6342688644
 Ga         6.5092868987        0.0005114810       15.6340648894
  N         6.5164648220        1.8712816608       16.2343035760
 Ga         6.5708772840        1.8750695887       18.2773729962
  N         6.5564165848       -0.0242815599       18.6689881647
 Ga         4.8676624697        2.7915121005       -0.5404395086
  N         4.8710581826        4.6641997166        0.6069009730
 Ga         4.8708920597        4.6333611659        2.6375766310
  N         4.8683820644        2.7899072594        3.2693693535
 Ga         4.8697020099        2.7912512730        5.2596084290
  N         4.8723607133        4.6652604051        5.8484588023
 Ga         4.8728343134        4.6642410454        7.8479846430
  N         4.8710107013        2.7915635373        8.4504352081
 Ga         4.8739629636        2.7957584025       10.4494214966
  N         4.8791623002        4.6659407232       11.0580390874
 Ga         4.8797610110        4.6699365880       13.0608038778
  N         4.8756953208        2.7968167182       13.6574620220
 Ga         4.8819672977        2.7985453487       15.6737258904
  N         4.8550206696        4.6751339197       16.1532474466
 Ga         4.9060596068        4.6677022671       19.1610544286
  N         4.9423050259        2.7951358210       18.7445851065
 Ga         3.2489138017        5.5952333378        0.3236014015
  N         3.2478540602        7.4653736714        0.6072586819
 Ga         3.2757448286        7.4806484331        2.6378353620
  N         3.2487406082        5.5953766211        3.2294120971
 Ga         3.2501569257        5.5963766922        5.2409190100
  N         3.2505442528        7.4662396698        5.8497187336
 Ga         3.2531152860        7.4666278306        7.8499926793
  N         3.2515581190        5.5960756473        8.4549728381
 Ga         3.2548043383        5.5979782273       10.4540435014
  N         3.2571001275        7.4721730558       11.0491262847
 Ga         3.2583390070        7.4744792427       13.0462794380
  N         3.2469931566        5.6007160696       13.6246072240
 Ga         3.2523007176        5.6094620810       15.6298271757
  N         3.2784306416        7.4871699973       16.1559129423
 Ga         3.3223245767        7.4961161312       18.1680930459
  N         3.3704992349        5.5686653922       18.4252894808
  O         1.7517893812        4.9896616685       21.2246818712
  H         1.1897514754        5.3937765203       20.4766508628
  C         0.9220000568        3.9736421211       21.8619243820