 DBCSR| Multiplication driver                                               BLAS
 DBCSR| Multrec recursion limit                                              512
 DBCSR| Multiplication stack size                                           1000
 DBCSR| Maximum elements for images                                    UNLIMITED
 DBCSR| Multiplicative factor virtual images                                   1
 DBCSR| Multiplication size stacks                                             3
 DBCSR| Number of 3D layers                                               SINGLE
 DBCSR| Use MPI memory allocation                                              T
 DBCSR| Use RMA algorithm                                                      F
 DBCSR| Use Communication thread                                               T
 DBCSR| Communication thread load                                             87


  **** **** ******  **  PROGRAM STARTED AT               2019-07-14 20:51:08.752
 ***** ** ***  *** **   PROGRAM STARTED ON        blg9233.int.ets1.calculquebec.
 **    ****   ******    PROGRAM STARTED BY                                   rzk
 ***** **    ** ** **   PROGRAM PROCESS ID                                206169
  **** **  *******  **  PROGRAM STARTED IN /lustre04/scratch/rzk/rzk/GaN-carbene
                                           /443-adatoms-both-2x2/09-BondBreaking
                                           -CH/02-0401-CH-to-NTop-PES/Phase02-Re
                                           lax-geom

 CP2K| version string:                    CP2K version 7.0 (Development Version)
 CP2K| source code revision number:                                    svn:18619
 CP2K| cp2kflags: libint fftw3 libxc parallel mpi3 scalapack mkl                
 CP2K| is freely available from                            https://www.cp2k.org/
 CP2K| Program compiled at                          Sun Apr  7 00:48:11 EDT 2019
 CP2K| Program compiled on                      beluga2.int.ets1.calculquebec.ca
 CP2K| Program compiled for                    Beluga-Linux-x86-64-intel-openmpi
 CP2K| Data directory path    /home/rzk/projects/def-rzk/group/cp2k/cp2k-mcgill/
 CP2K| Input file name                                                 start.inp
 
 GLOBAL| Force Environment number                                              1
 GLOBAL| Basis set file name                                        BASIS_MOLOPT
 GLOBAL| Potential file name                                      GTH_POTENTIALS
 GLOBAL| MM Potential file name                                     MM_POTENTIAL
 GLOBAL| Coordinate file name                                      __STD_INPUT__
 GLOBAL| Method name                                                        CP2K
 GLOBAL| Project name                                                       TEST
 GLOBAL| Preferred FFT library                                             FFTW3
 GLOBAL| Preferred diagonalization lib.                                       SL
 GLOBAL| Run type                                                        GEO_OPT
 GLOBAL| All-to-all communication in single precision                          F
 GLOBAL| FFTs using library dependent lengths                                  F
 GLOBAL| Global print level                                               MEDIUM
 GLOBAL| MPI I/O enabled                                                       T
 GLOBAL| Total number of message passing processes                            80
 GLOBAL| Number of threads for this process                                    1
 GLOBAL| This output is from process                                           0
 GLOBAL| CPU model name :  Intel(R) Xeon(R) Gold 6148 CPU @ 2.40GHz

 MEMORY| system memory details [Kb]
 MEMORY|                        rank 0           min           max       average
 MEMORY| MemTotal            196614300     196614300     196614300     196614300
 MEMORY| MemFree             177103112     177102492     179642904     178355751
 MEMORY| Buffers                     0             0             0             0
 MEMORY| Cached                3039320       2244080       3039320       2641700
 MEMORY| Slab                  1891800       1487620       1891800       1689710
 MEMORY| SReclaimable           181680        181680        189000        185340
 MEMORY| MemLikelyFree       180324112     180323492     182075984     181182791


 *** Fundamental physical constants (SI units) ***

 *** Literature: B. J. Mohr and B. N. Taylor,
 ***             CODATA recommended values of the fundamental physical
 ***             constants: 2006, Web Version 5.1
 ***             http://physics.nist.gov/constants

 Speed of light in vacuum [m/s]                             2.99792458000000E+08
 Magnetic constant or permeability of vacuum [N/A**2]       1.25663706143592E-06
 Electric constant or permittivity of vacuum [F/m]          8.85418781762039E-12
 Planck constant (h) [J*s]                                  6.62606896000000E-34
 Planck constant (h-bar) [J*s]                              1.05457162825177E-34
 Elementary charge [C]                                      1.60217648700000E-19
 Electron mass [kg]                                         9.10938215000000E-31
 Electron g factor [ ]                                     -2.00231930436220E+00
 Proton mass [kg]                                           1.67262163700000E-27
 Fine-structure constant                                    7.29735253760000E-03
 Rydberg constant [1/m]                                     1.09737315685270E+07
 Avogadro constant [1/mol]                                  6.02214179000000E+23
 Boltzmann constant [J/K]                                   1.38065040000000E-23
 Atomic mass unit [kg]                                      1.66053878200000E-27
 Bohr radius [m]                                            5.29177208590000E-11

 *** Conversion factors ***

 [u] -> [a.u.]                                              1.82288848426455E+03
 [Angstrom] -> [Bohr] = [a.u.]                              1.88972613288564E+00
 [a.u.] = [Bohr] -> [Angstrom]                              5.29177208590000E-01
 [a.u.] -> [s]                                              2.41888432650478E-17
 [a.u.] -> [fs]                                             2.41888432650478E-02
 [a.u.] -> [J]                                              4.35974393937059E-18
 [a.u.] -> [N]                                              8.23872205491840E-08
 [a.u.] -> [K]                                              3.15774647902944E+05
 [a.u.] -> [kJ/mol]                                         2.62549961709828E+03
 [a.u.] -> [kcal/mol]                                       6.27509468713739E+02
 [a.u.] -> [Pa]                                             2.94210107994716E+13
 [a.u.] -> [bar]                                            2.94210107994716E+08
 [a.u.] -> [atm]                                            2.90362800883016E+08
 [a.u.] -> [eV]                                             2.72113838565563E+01
 [a.u.] -> [Hz]                                             6.57968392072181E+15
 [a.u.] -> [1/cm] (wave numbers)                            2.19474631370540E+05
 [a.u./Bohr**2] -> [1/cm]                                   5.14048714338585E+03
 
          ----------------------------------------------------------------------
 COLVARS| COLVAR INPUT INDEX:        1
 COLVARS| BOND          >>> ATOMS:                                   127     211
          ----------------------------------------------------------------------

 CELL_TOP| Volume [angstrom^3]:                                         4586.323
 CELL_TOP| Vector a [angstrom    12.864     0.000     0.000    |a| =      12.864
 CELL_TOP| Vector b [angstrom    -6.432    11.141     0.000    |b| =      12.864
 CELL_TOP| Vector c [angstrom     0.000     0.000    32.000    |c| =      32.000
 CELL_TOP| Angle (b,c), alpha [degree]:                                   90.000
 CELL_TOP| Angle (a,c), beta  [degree]:                                   90.000
 CELL_TOP| Angle (a,b), gamma [degree]:                                  120.000
 CELL_TOP| Numerically orthorhombic:                                          NO
 
 GENERATE|  Preliminary Number of Bonds generated:                             0
 GENERATE|  Achieved consistency in connectivity generation.

 CELL| Volume [angstrom^3]:                                             4586.323
 CELL| Vector a [angstrom]:      12.864     0.000     0.000    |a| =      12.864
 CELL| Vector b [angstrom]:      -6.432    11.141     0.000    |b| =      12.864
 CELL| Vector c [angstrom]:       0.000     0.000    32.000    |c| =      32.000
 CELL| Angle (b,c), alpha [degree]:                                       90.000
 CELL| Angle (a,c), beta  [degree]:                                       90.000
 CELL| Angle (a,b), gamma [degree]:                                      120.000
 CELL| Numerically orthorhombic:                                              NO

 CELL_REF| Volume [angstrom^3]:                                         4670.759
 CELL_REF| Vector a [angstrom    12.982     0.000     0.000    |a| =      12.982
 CELL_REF| Vector b [angstrom    -6.491    11.243     0.000    |b| =      12.982
 CELL_REF| Vector c [angstrom     0.000     0.000    32.000    |c| =      32.000
 CELL_REF| Angle (b,c), alpha [degree]:                                   90.000
 CELL_REF| Angle (a,c), beta  [degree]:                                   90.000
 CELL_REF| Angle (a,b), gamma [degree]:                                  120.000
 CELL_REF| Numerically orthorhombic:                                          NO

 *******************************************************************************
 *******************************************************************************
 **                                                                           **
 **     #####                         ##              ##                      **
 **    ##   ##            ##          ##              ##                      **
 **   ##     ##                       ##            ######                    **
 **   ##     ##  ##   ##  ##   #####  ##  ##   ####   ##    #####    #####    **
 **   ##     ##  ##   ##  ##  ##      ## ##   ##      ##   ##   ##  ##   ##   **
 **   ##  ## ##  ##   ##  ##  ##      ####     ###    ##   ######   ######    **
 **    ##  ###   ##   ##  ##  ##      ## ##      ##   ##   ##       ##        **
 **     #######   #####   ##   #####  ##  ##  ####    ##    #####   ##        **
 **           ##                                                    ##        **
 **                                                                           **
 **                                                ... make the atoms dance   **
 **                                                                           **
 **            Copyright (C) by CP2K developers group (2000 - 2018)           **
 **                                                                           **
 *******************************************************************************

 DFT| Spin unrestricted (spin-polarized) Kohn-Sham calculation               UKS
 DFT| Multiplicity                                                             1
 DFT| Number of spin states                                                    2
 DFT| Charge                                                                   0
 DFT| Self-interaction correction (SIC)                                       NO
 DFT| Cutoffs: density                                              1.000000E-10
 DFT|          gradient                                             1.000000E-10
 DFT|          tau                                                  1.000000E-10
 DFT|          cutoff_smoothing_range                               0.000000E+00
 DFT| XC density smoothing                                                  NONE
 DFT| XC derivatives                                                          PW
 FUNCTIONAL| ROUTINE=NEW
 FUNCTIONAL| PBE:
 FUNCTIONAL| J.P.Perdew, K.Burke, M.Ernzerhof, Phys. Rev. Letter, vol. 77, n 18,
 FUNCTIONAL|  pp. 3865-3868, (1996){spin polarized}                             
 vdW POTENTIAL|                                                   Pair Potential
 vdW POTENTIAL|          DFT-D3 (Version 3.1)
 vdW POTENTIAL|          Potential Form: S. Grimme et al, JCP 132: 154104 (2010)
 vdW POTENTIAL|          Zero Damping
 vdW POTENTIAL|          Cutoff Radius [Bohr]:                             18.90
 vdW POTENTIAL|          s6 Scaling Factor:                               1.0000
 vdW POTENTIAL|          sr6 Scaling Factor:                              1.2170
 vdW POTENTIAL|          s8 Scaling Factor:                               0.7220
 vdW POTENTIAL|          Cutoff for CN calculation:                   0.1000E-05

 QS| Method:                                                                 GPW
 QS| Density plane wave grid type                        NON-SPHERICAL FULLSPACE
 QS| Number of grid levels:                                                    5
 QS| Density cutoff [a.u.]:                                                600.0
 QS| Multi grid cutoff [a.u.]: 1) grid level                               600.0
 QS|                           2) grid level                               200.0
 QS|                           3) grid level                                66.7
 QS|                           4) grid level                                22.2
 QS|                           5) grid level                                 7.4
 QS| Grid level progression factor:                                          3.0
 QS| Relative density cutoff [a.u.]:                                        20.0
 QS| Consistent realspace mapping and integration 
 QS| Interaction thresholds: eps_pgf_orb:                                1.0E-07
 QS|                         eps_filter_matrix:                          0.0E+00
 QS|                         eps_core_charge:                            1.0E-16
 QS|                         eps_rho_gspace:                             1.0E-14
 QS|                         eps_rho_rspace:                             1.0E-14
 QS|                         eps_gvg_rspace:                             1.0E-07
 QS|                         eps_ppl:                                    1.0E-02
 QS|                         eps_ppnl:                                   1.0E-09


 ATOMIC KIND INFORMATION

  1. Atomic kind: N                                     Number of atoms:     100

     Orbital Basis Set                                        DZVP-MOLOPT-SR-GTH

       Number of orbital shell sets:                                           1
       Number of orbital shells:                                               5
       Number of primitive Cartesian functions:                                5
       Number of Cartesian basis functions:                                   14
       Number of spherical basis functions:                                   13
       Norm type:                                                              2

       Normalised Cartesian orbitals:

                        Set   Shell   Orbital            Exponent    Coefficient

                          1       1    2s                7.341988       0.360561
                                                         2.542637       0.139177
                                                         0.888575      -0.289383
                                                         0.333802      -0.182244
                                                         0.112012      -0.019197

                          1       2    3s                7.341988       0.282000
                                                         2.542637       0.177875
                                                         0.888575      -0.278381
                                                         0.333802       0.008577
                                                         0.112012       0.154176

                          1       3    3px               7.341988      -1.188719
                                                         2.542637      -0.973969
                                                         0.888575      -0.501079
                                                         0.333802      -0.144894
                                                         0.112012      -0.013986
                          1       3    3py               7.341988      -1.188719
                                                         2.542637      -0.973969
                                                         0.888575      -0.501079
                                                         0.333802      -0.144894
                                                         0.112012      -0.013986
                          1       3    3pz               7.341988      -1.188719
                                                         2.542637      -0.973969
                                                         0.888575      -0.501079
                                                         0.333802      -0.144894
                                                         0.112012      -0.013986

                          1       4    4px               7.341988      -0.094798
                                                         2.542637       0.050069
                                                         0.888575      -0.114797
                                                         0.333802       0.144793
                                                         0.112012       0.066710
                          1       4    4py               7.341988      -0.094798
                                                         2.542637       0.050069
                                                         0.888575      -0.114797
                                                         0.333802       0.144793
                                                         0.112012       0.066710
                          1       4    4pz               7.341988      -0.094798
                                                         2.542637       0.050069
                                                         0.888575      -0.114797
                                                         0.333802       0.144793
                                                         0.112012       0.066710

                          1       5    4dx2              7.341988       1.354688
                                                         2.542637       0.690378
                                                         0.888575       0.855359
                                                         0.333802       0.091746
                                                         0.112012       0.001253
                          1       5    4dxy              7.341988       2.346389
                                                         2.542637       1.195770
                                                         0.888575       1.481524
                                                         0.333802       0.158910
                                                         0.112012       0.002169
                          1       5    4dxz              7.341988       2.346389
                                                         2.542637       1.195770
                                                         0.888575       1.481524
                                                         0.333802       0.158910
                                                         0.112012       0.002169
                          1       5    4dy2              7.341988       1.354688
                                                         2.542637       0.690378
                                                         0.888575       0.855359
                                                         0.333802       0.091746
                                                         0.112012       0.001253
                          1       5    4dyz              7.341988       2.346389
                                                         2.542637       1.195770
                                                         0.888575       1.481524
                                                         0.333802       0.158910
                                                         0.112012       0.002169
                          1       5    4dz2              7.341988       1.354688
                                                         2.542637       0.690378
                                                         0.888575       0.855359
                                                         0.333802       0.091746
                                                         0.112012       0.001253

     GTH Potential information for                                    GTH-PBE-q5

       Description:                       Goedecker-Teter-Hutter pseudopotential
                                           Goedecker et al., PRB 54, 1703 (1996)
                                          Hartwigsen et al., PRB 58, 3641 (1998)
                                                      Krack, TCA 114, 145 (2005)

       Gaussian exponent of the core charge distribution:               6.208322
       Electronic configuration (s p d ...):                               2   3

       Parameters of the local part of the GTH pseudopotential:

                          rloc        C1          C2          C3          C4
                        0.283791  -12.415226    1.868096

       Parameters of the non-local part of the GTH pseudopotential:

                   l      r(l)      h(i,j,l)

                   0    0.255405   13.630263
                   1    0.245495

  2. Atomic kind: Ga                                    Number of atoms:     100

     Orbital Basis Set                                        DZVP-MOLOPT-SR-GTH

       Number of orbital shell sets:                                           1
       Number of orbital shells:                                               7
       Number of primitive Cartesian functions:                                6
       Number of Cartesian basis functions:                                   30
       Number of spherical basis functions:                                   25
       Norm type:                                                              2

       Normalised Cartesian orbitals:

                        Set   Shell   Orbital            Exponent    Coefficient

                          1       1    2s                7.066654       0.013136
                                                         3.428369      -0.094392
                                                         1.430064       0.265435
                                                         0.571611       0.056465
                                                         0.232197      -0.192187
                                                         0.076562      -0.044987

                          1       2    3s                7.066654      -0.098564
                                                         3.428369       0.010390
                                                         1.430064       0.351249
                                                         0.571611       0.182615
                                                         0.232197      -0.425358
                                                         0.076562       0.190349

                          1       3    3px               7.066654       0.002364
                                                         3.428369       0.019222
                                                         1.430064       0.250132
                                                         0.571611      -0.058486
                                                         0.232197      -0.159451
                                                         0.076562      -0.020696
                          1       3    3py               7.066654       0.002364
                                                         3.428369       0.019222
                                                         1.430064       0.250132
                                                         0.571611      -0.058486
                                                         0.232197      -0.159451
                                                         0.076562      -0.020696
                          1       3    3pz               7.066654       0.002364
                                                         3.428369       0.019222
                                                         1.430064       0.250132
                                                         0.571611      -0.058486
                                                         0.232197      -0.159451
                                                         0.076562      -0.020696

                          1       4    4px               7.066654       0.492448
                                                         3.428369      -0.614736
                                                         1.430064      -0.191654
                                                         0.571611       0.037801
                                                         0.232197       0.302315
                                                         0.076562      -0.071336
                          1       4    4py               7.066654       0.492448
                                                         3.428369      -0.614736
                                                         1.430064      -0.191654
                                                         0.571611       0.037801
                                                         0.232197       0.302315
                                                         0.076562      -0.071336
                          1       4    4pz               7.066654       0.492448
                                                         3.428369      -0.614736
                                                         1.430064      -0.191654
                                                         0.571611       0.037801
                                                         0.232197       0.302315
                                                         0.076562      -0.071336

                          1       5    4dx2              7.066654     -15.264855
                                                         3.428369      -5.345726
                                                         1.430064      -1.022732
                                                         0.571611      -0.123148
                                                         0.232197      -0.006983
                                                         0.076562      -0.000022
                          1       5    4dxy              7.066654     -26.439504
                                                         3.428369      -9.259069
                                                         1.430064      -1.771423
                                                         0.571611      -0.213299
                                                         0.232197      -0.012094
                                                         0.076562      -0.000037
                          1       5    4dxz              7.066654     -26.439504
                                                         3.428369      -9.259069
                                                         1.430064      -1.771423
                                                         0.571611      -0.213299
                                                         0.232197      -0.012094
                                                         0.076562      -0.000037
                          1       5    4dy2              7.066654     -15.264855
                                                         3.428369      -5.345726
                                                         1.430064      -1.022732
                                                         0.571611      -0.123148
                                                         0.232197      -0.006983
                                                         0.076562      -0.000022
                          1       5    4dyz              7.066654     -26.439504
                                                         3.428369      -9.259069
                                                         1.430064      -1.771423
                                                         0.571611      -0.213299
                                                         0.232197      -0.012094
                                                         0.076562      -0.000037
                          1       5    4dz2              7.066654     -15.264855
                                                         3.428369      -5.345726
                                                         1.430064      -1.022732
                                                         0.571611      -0.123148
                                                         0.232197      -0.006983
                                                         0.076562      -0.000022

                          1       6    5dx2              7.066654      -5.739265
                                                         3.428369      -2.129289
                                                         1.430064      -0.700423
                                                         0.571611       0.161606
                                                         0.232197       0.043513
                                                         0.076562       0.011205
                          1       6    5dxy              7.066654      -9.940698
                                                         3.428369      -3.688037
                                                         1.430064      -1.213168
                                                         0.571611       0.279909
                                                         0.232197       0.075368
                                                         0.076562       0.019407
                          1       6    5dxz              7.066654      -9.940698
                                                         3.428369      -3.688037
                                                         1.430064      -1.213168
                                                         0.571611       0.279909
                                                         0.232197       0.075368
                                                         0.076562       0.019407
                          1       6    5dy2              7.066654      -5.739265
                                                         3.428369      -2.129289
                                                         1.430064      -0.700423
                                                         0.571611       0.161606
                                                         0.232197       0.043513
                                                         0.076562       0.011205
                          1       6    5dyz              7.066654      -9.940698
                                                         3.428369      -3.688037
                                                         1.430064      -1.213168
                                                         0.571611       0.279909
                                                         0.232197       0.075368
                                                         0.076562       0.019407
                          1       6    5dz2              7.066654      -5.739265
                                                         3.428369      -2.129289
                                                         1.430064      -0.700423
                                                         0.571611       0.161606
                                                         0.232197       0.043513
                                                         0.076562       0.011205

                          1       7    5fx3              7.066654       0.705879
                                                         3.428369      -0.273976
                                                         1.430064       0.113667
                                                         0.571611       0.132480
                                                         0.232197       0.012437
                                                         0.076562       0.003241
                          1       7    5fx2y             7.066654       1.578393
                                                         3.428369      -0.612629
                                                         1.430064       0.254167
                                                         0.571611       0.296234
                                                         0.232197       0.027811
                                                         0.076562       0.007246
                          1       7    5fx2z             7.066654       1.578393
                                                         3.428369      -0.612629
                                                         1.430064       0.254167
                                                         0.571611       0.296234
                                                         0.232197       0.027811
                                                         0.076562       0.007246
                          1       7    5fxy2             7.066654       1.578393
                                                         3.428369      -0.612629
                                                         1.430064       0.254167
                                                         0.571611       0.296234
                                                         0.232197       0.027811
                                                         0.076562       0.007246
                          1       7    5fxyz             7.066654       2.733856
                                                         3.428369      -1.061105
                                                         1.430064       0.440230
                                                         0.571611       0.513092
                                                         0.232197       0.048170
                                                         0.076562       0.012551
                          1       7    5fxz2             7.066654       1.578393
                                                         3.428369      -0.612629
                                                         1.430064       0.254167
                                                         0.571611       0.296234
                                                         0.232197       0.027811
                                                         0.076562       0.007246
                          1       7    5fy3              7.066654       0.705879
                                                         3.428369      -0.273976
                                                         1.430064       0.113667
                                                         0.571611       0.132480
                                                         0.232197       0.012437
                                                         0.076562       0.003241
                          1       7    5fy2z             7.066654       1.578393
                                                         3.428369      -0.612629
                                                         1.430064       0.254167
                                                         0.571611       0.296234
                                                         0.232197       0.027811
                                                         0.076562       0.007246
                          1       7    5fyz2             7.066654       1.578393
                                                         3.428369      -0.612629
                                                         1.430064       0.254167
                                                         0.571611       0.296234
                                                         0.232197       0.027811
                                                         0.076562       0.007246
                          1       7    5fz3              7.066654       0.705879
                                                         3.428369      -0.273976
                                                         1.430064       0.113667
                                                         0.571611       0.132480
                                                         0.232197       0.012437
                                                         0.076562       0.003241

     GTH Potential information for                                   GTH-PBE-q13

       Description:                       Goedecker-Teter-Hutter pseudopotential
                                           Goedecker et al., PRB 54, 1703 (1996)
                                          Hartwigsen et al., PRB 58, 3641 (1998)
                                                      Krack, TCA 114, 145 (2005)

       Gaussian exponent of the core charge distribution:               2.082466
       Electronic configuration (s p d ...):                           2   1  10

       Parameters of the local part of the GTH pseudopotential:

                          rloc        C1          C2          C3          C4
                        0.490000

       Parameters of the non-local part of the GTH pseudopotential:

                   l      r(l)      h(i,j,l)

                   0    0.416777   10.475690   -4.921768    0.870706
                                   -4.921768    7.770178   -2.248152
                                    0.870706   -2.248152    1.784415
                   1    0.569627    1.777985    0.195860
                                    0.195860   -0.231744
                   2    0.238126  -16.248680

  3. Atomic kind: O                                     Number of atoms:       2

     Orbital Basis Set                                     DZVP-MOLOPT-SR-GTH-q6

       Number of orbital shell sets:                                           1
       Number of orbital shells:                                               5
       Number of primitive Cartesian functions:                                5
       Number of Cartesian basis functions:                                   14
       Number of spherical basis functions:                                   13
       Norm type:                                                              2

       Normalised Cartesian orbitals:

                        Set   Shell   Orbital            Exponent    Coefficient

                          1       1    2s               10.389228       0.396646
                                                         3.849621       0.208811
                                                         1.388401      -0.301641
                                                         0.496955      -0.274061
                                                         0.162492      -0.033677

                          1       2    3s               10.389228       0.303673
                                                         3.849621       0.240943
                                                         1.388401      -0.313066
                                                         0.496955      -0.043055
                                                         0.162492       0.213991

                          1       3    3px              10.389228      -1.530415
                                                         3.849621      -1.371928
                                                         1.388401      -0.761951
                                                         0.496955      -0.253695
                                                         0.162492      -0.035541
                          1       3    3py              10.389228      -1.530415
                                                         3.849621      -1.371928
                                                         1.388401      -0.761951
                                                         0.496955      -0.253695
                                                         0.162492      -0.035541
                          1       3    3pz              10.389228      -1.530415
                                                         3.849621      -1.371928
                                                         1.388401      -0.761951
                                                         0.496955      -0.253695
                                                         0.162492      -0.035541

                          1       4    4px              10.389228      -0.565392
                                                         3.849621      -0.038231
                                                         1.388401      -0.382373
                                                         0.496955       0.179070
                                                         0.162492       0.122714
                          1       4    4py              10.389228      -0.565392
                                                         3.849621      -0.038231
                                                         1.388401      -0.382373
                                                         0.496955       0.179070
                                                         0.162492       0.122714
                          1       4    4pz              10.389228      -0.565392
                                                         3.849621      -0.038231
                                                         1.388401      -0.382373
                                                         0.496955       0.179070
                                                         0.162492       0.122714

                          1       5    4dx2             10.389228       1.867377
                                                         3.849621       0.670994
                                                         1.388401       1.353441
                                                         0.496955       0.273538
                                                         0.162492       0.006620
                          1       5    4dxy             10.389228       3.234392
                                                         3.849621       1.162195
                                                         1.388401       2.344229
                                                         0.496955       0.473781
                                                         0.162492       0.011466
                          1       5    4dxz             10.389228       3.234392
                                                         3.849621       1.162195
                                                         1.388401       2.344229
                                                         0.496955       0.473781
                                                         0.162492       0.011466
                          1       5    4dy2             10.389228       1.867377
                                                         3.849621       0.670994
                                                         1.388401       1.353441
                                                         0.496955       0.273538
                                                         0.162492       0.006620
                          1       5    4dyz             10.389228       3.234392
                                                         3.849621       1.162195
                                                         1.388401       2.344229
                                                         0.496955       0.473781
                                                         0.162492       0.011466
                          1       5    4dz2             10.389228       1.867377
                                                         3.849621       0.670994
                                                         1.388401       1.353441
                                                         0.496955       0.273538
                                                         0.162492       0.006620

     GTH Potential information for                                    GTH-PBE-q6

       Description:                       Goedecker-Teter-Hutter pseudopotential
                                           Goedecker et al., PRB 54, 1703 (1996)
                                          Hartwigsen et al., PRB 58, 3641 (1998)
                                                      Krack, TCA 114, 145 (2005)

       Gaussian exponent of the core charge distribution:               8.360253
       Electronic configuration (s p d ...):                               2   4

       Parameters of the local part of the GTH pseudopotential:

                          rloc        C1          C2          C3          C4
                        0.244554  -16.667215    2.487311

       Parameters of the non-local part of the GTH pseudopotential:

                   l      r(l)      h(i,j,l)

                   0    0.220956   18.337458
                   1    0.211332

  4. Atomic kind: H                                     Number of atoms:       8

     Orbital Basis Set                                     DZVP-MOLOPT-SR-GTH-q1

       Number of orbital shell sets:                                           1
       Number of orbital shells:                                               3
       Number of primitive Cartesian functions:                                5
       Number of Cartesian basis functions:                                    5
       Number of spherical basis functions:                                    5
       Norm type:                                                              2

       Normalised Cartesian orbitals:

                        Set   Shell   Orbital            Exponent    Coefficient

                          1       1    2s               10.068468      -0.133023
                                                         2.680223      -0.177618
                                                         0.791502      -0.258419
                                                         0.239116      -0.107525
                                                         0.082193      -0.014019

                          1       2    3s               10.068468       0.344673
                                                         2.680223       1.819821
                                                         0.791502      -0.999069
                                                         0.239116       0.017430
                                                         0.082193       0.082660

                          1       3    3px              10.068468       0.155326
                                                         2.680223       0.367157
                                                         0.791502       0.311480
                                                         0.239116       0.080105
                                                         0.082193       0.033440
                          1       3    3py              10.068468       0.155326
                                                         2.680223       0.367157
                                                         0.791502       0.311480
                                                         0.239116       0.080105
                                                         0.082193       0.033440
                          1       3    3pz              10.068468       0.155326
                                                         2.680223       0.367157
                                                         0.791502       0.311480
                                                         0.239116       0.080105
                                                         0.082193       0.033440

     GTH Potential information for                                    GTH-PBE-q1

       Description:                       Goedecker-Teter-Hutter pseudopotential
                                           Goedecker et al., PRB 54, 1703 (1996)
                                          Hartwigsen et al., PRB 58, 3641 (1998)
                                                      Krack, TCA 114, 145 (2005)

       Gaussian exponent of the core charge distribution:              12.500000
       Electronic configuration (s p d ...):                                   1

       Parameters of the local part of the GTH pseudopotential:

                          rloc        C1          C2          C3          C4
                        0.200000   -4.178900    0.724463

  5. Atomic kind: C                                     Number of atoms:       2

     Orbital Basis Set                                     DZVP-MOLOPT-SR-GTH-q4

       Number of orbital shell sets:                                           1
       Number of orbital shells:                                               5
       Number of primitive Cartesian functions:                                5
       Number of Cartesian basis functions:                                   14
       Number of spherical basis functions:                                   13
       Norm type:                                                              2

       Normalised Cartesian orbitals:

                        Set   Shell   Orbital            Exponent    Coefficient

                          1       1    2s                5.605331       0.322515
                                                         2.113016       0.213043
                                                         0.769911      -0.209686
                                                         0.348157      -0.219794
                                                         0.128212      -0.022789

                          1       2    3s                5.605331       0.552234
                                                         2.113016       0.082072
                                                         0.769911       0.007843
                                                         0.348157       0.136893
                                                         0.128212       0.074283

                          1       3    3px               5.605331      -0.703879
                                                         2.113016      -0.642521
                                                         0.769911      -0.374851
                                                         0.348157      -0.139743
                                                         0.128212      -0.027849
                          1       3    3py               5.605331      -0.703879
                                                         2.113016      -0.642521
                                                         0.769911      -0.374851
                                                         0.348157      -0.139743
                                                         0.128212      -0.027849
                          1       3    3pz               5.605331      -0.703879
                                                         2.113016      -0.642521
                                                         0.769911      -0.374851
                                                         0.348157      -0.139743
                                                         0.128212      -0.027849

                          1       4    4px               5.605331      -0.480376
                                                         2.113016      -0.552894
                                                         0.769911      -0.316145
                                                         0.348157       0.210505
                                                         0.128212       0.076095
                          1       4    4py               5.605331      -0.480376
                                                         2.113016      -0.552894
                                                         0.769911      -0.316145
                                                         0.348157       0.210505
                                                         0.128212       0.076095
                          1       4    4pz               5.605331      -0.480376
                                                         2.113016      -0.552894
                                                         0.769911      -0.316145
                                                         0.348157       0.210505
                                                         0.128212       0.076095

                          1       5    4dx2              5.605331       0.640026
                                                         2.113016       0.274300
                                                         0.769911       0.446711
                                                         0.348157       0.028674
                                                         0.128212       0.029790
                          1       5    4dxy              5.605331       1.108557
                                                         2.113016       0.475102
                                                         0.769911       0.773726
                                                         0.348157       0.049666
                                                         0.128212       0.051599
                          1       5    4dxz              5.605331       1.108557
                                                         2.113016       0.475102
                                                         0.769911       0.773726
                                                         0.348157       0.049666
                                                         0.128212       0.051599
                          1       5    4dy2              5.605331       0.640026
                                                         2.113016       0.274300
                                                         0.769911       0.446711
                                                         0.348157       0.028674
                                                         0.128212       0.029790
                          1       5    4dyz              5.605331       1.108557
                                                         2.113016       0.475102
                                                         0.769911       0.773726
                                                         0.348157       0.049666
                                                         0.128212       0.051599
                          1       5    4dz2              5.605331       0.640026
                                                         2.113016       0.274300
                                                         0.769911       0.446711
                                                         0.348157       0.028674
                                                         0.128212       0.029790

     GTH Potential information for                                    GTH-PBE-q4

       Description:                       Goedecker-Teter-Hutter pseudopotential
                                           Goedecker et al., PRB 54, 1703 (1996)
                                          Hartwigsen et al., PRB 58, 3641 (1998)
                                                      Krack, TCA 114, 145 (2005)

       Gaussian exponent of the core charge distribution:               4.364419
       Electronic configuration (s p d ...):                               2   2

       Parameters of the local part of the GTH pseudopotential:

                          rloc        C1          C2          C3          C4
                        0.338471   -8.803674    1.339211

       Parameters of the non-local part of the GTH pseudopotential:

                   l      r(l)      h(i,j,l)

                   0    0.302576    9.622487
                   1    0.291507


 MOLECULE KIND INFORMATION


 All atoms are their own molecule, skipping detailed information


 TOTAL NUMBERS AND MAXIMUM NUMBERS

  Total number of            - Atomic kinds:                                   5
                             - Atoms:                                        212
                             - Shell sets:                                   212
                             - Shells:                                      1244
                             - Primitive Cartesian functions:               1160
                             - Cartesian basis functions:                   4496
                             - Spherical basis functions:                   3892

  Maximum angular momentum of- Orbital basis functions:                        3
                             - Local part of the GTH pseudopotential:          2
                             - Non-local part of the GTH pseudopotential:      4


 MODULE QUICKSTEP:  ATOMIC COORDINATES IN angstrom

  Atom  Kind  Element       X           Y           Z          Z(eff)       Mass

       1     1 N    7    0.090727    2.110078    2.576688      5.00      14.0067
       2     2 Ga  31    0.103938    0.151253    3.013638     13.00      69.7230
       3     1 N    7    0.088169    0.132395    5.122847      5.00      14.0067
       4     2 Ga  31    0.064336    1.950944    5.873676     13.00      69.7230
       5     1 N    7    0.073214    1.971581    7.862783      5.00      14.0067
       6     2 Ga  31    0.067524    0.116044    8.487497     13.00      69.7230
       7     1 N    7    0.071389    0.119901   10.465050      5.00      14.0067
       8     2 Ga  31    0.069378    1.958700   11.117399     13.00      69.7230
       9     1 N    7    0.071801    1.940704   13.111852      5.00      14.0067
      10     2 Ga  31    0.070830    0.120405   13.911469     13.00      69.7230
      11     1 N    7    0.071239    0.122060   16.116508      5.00      14.0067
      12     2 Ga  31    0.071724    2.166480   16.527484     13.00      69.7230
      13     2 Ga  31    0.108662    3.826768    1.438848     13.00      69.7230
      14     1 N    7   -1.396496    4.692011    2.533200      5.00      14.0067
      15     2 Ga  31   -1.604073    2.840565    3.315065     13.00      69.7230
      16     1 N    7   -1.534276    2.906675    5.295058      5.00      14.0067
      17     2 Ga  31   -1.569687    4.772763    5.851186     13.00      69.7230
      18     1 N    7   -1.544223    4.769365    7.846894      5.00      14.0067
      19     2 Ga  31   -1.532100    2.911747    8.486143     13.00      69.7230
      20     1 N    7   -1.525750    2.913656   10.480557      5.00      14.0067
      21     2 Ga  31   -1.551530    4.772617   11.115297     13.00      69.7230
      22     1 N    7   -1.567187    4.781649   13.110713      5.00      14.0067
      23     2 Ga  31   -1.525447    2.911976   13.666286     13.00      69.7230
      24     1 N    7   -1.551018    2.896210   15.629119      5.00      14.0067
      25     2 Ga  31   -1.378721    4.671929   16.526855     13.00      69.7230
      26     1 N    7    0.072377    3.843218   17.660595      5.00      14.0067
      27     1 N    7   -3.136420    7.659445    2.561516      5.00      14.0067
      28     2 Ga  31   -3.120295    5.693049    2.875664     13.00      69.7230
      29     1 N    7   -3.139207    5.684211    5.058548      5.00      14.0067
      30     2 Ga  31   -3.149364    7.514181    5.830211     13.00      69.7230
      31     1 N    7   -3.142607    7.536219    7.833125      5.00      14.0067
      32     2 Ga  31   -3.144854    5.692584    8.486082     13.00      69.7230
      33     1 N    7   -3.144026    5.691987   10.462862      5.00      14.0067
      34     2 Ga  31   -3.145149    7.530834   11.113316     13.00      69.7230
      35     1 N    7   -3.143920    7.511901   13.109048      5.00      14.0067
      36     2 Ga  31   -3.144025    5.691770   13.911229     13.00      69.7230
      37     1 N    7   -3.144319    5.692523   16.116547      5.00      14.0067
      38     2 Ga  31   -3.144108    7.733511   16.525369     13.00      69.7230
      39     2 Ga  31   -3.180748    9.394869    1.308005     13.00      69.7230
      40     1 N    7   -4.645631   10.294216    2.587059      5.00      14.0067
      41     2 Ga  31   -4.836051    8.445178    3.287711     13.00      69.7230
      42     1 N    7   -4.750266    8.479604    5.278657      5.00      14.0067
      43     2 Ga  31   -4.777007   10.339368    5.862800     13.00      69.7230
      44     1 N    7   -4.756471   10.338130    7.855209      5.00      14.0067
      45     2 Ga  31   -4.746470    8.476381    8.471882     13.00      69.7230
      46     1 N    7   -4.741369    8.480764   10.471218      5.00      14.0067
      47     2 Ga  31   -4.770055   10.338278   11.115906     13.00      69.7230
      48     1 N    7   -4.784215   10.350423   13.111655      5.00      14.0067
      49     2 Ga  31   -4.741142    8.481648   13.666530     13.00      69.7230
      50     1 N    7   -4.766222    8.466198   15.630055      5.00      14.0067
      51     2 Ga  31   -4.597639   10.243784   16.524469     13.00      69.7230
      52     1 N    7   -3.143839    9.413070   17.657305      5.00      14.0067
      53     1 N    7    3.276903    1.967789    2.664036      5.00      14.0067
      54     2 Ga  31    3.289365    0.114186    3.375710     13.00      69.7230
      55     1 N    7    3.289348    0.136424    5.315288      5.00      14.0067
      56     2 Ga  31    3.286136    1.968862    5.977460     13.00      69.7230
      57     1 N    7    3.289889    1.976528    7.931509      5.00      14.0067
      58     2 Ga  31    3.287331    0.102561    8.506627     13.00      69.7230
      59     1 N    7    3.288509    0.107719   10.493667      5.00      14.0067
      60     2 Ga  31    3.289187    1.978481   11.082681     13.00      69.7230
      61     1 N    7    3.288773    1.977758   13.053035      5.00      14.0067
      62     2 Ga  31    3.288551    0.106036   13.667831     13.00      69.7230
      63     1 N    7    3.288315    0.138682   15.632794      5.00      14.0067
      64     2 Ga  31    3.288927    1.978016   15.908043     13.00      69.7230
      65     1 N    7    1.565636    4.694941    2.626393      5.00      14.0067
      66     2 Ga  31    1.690866    2.882291    3.389949     13.00      69.7230
      67     1 N    7    1.700205    2.894839    5.326197      5.00      14.0067
      68     2 Ga  31    1.703218    4.776468    5.876178     13.00      69.7230
      69     1 N    7    1.687598    4.766942    7.858931      5.00      14.0067
      70     2 Ga  31    1.667024    2.912950    8.506837     13.00      69.7230
      71     1 N    7    1.669613    2.913880   10.493059      5.00      14.0067
      72     2 Ga  31    1.695892    4.775982   11.118200     13.00      69.7230
      73     1 N    7    1.712788    4.782834   13.112638      5.00      14.0067
      74     2 Ga  31    1.668034    2.913074   13.668250     13.00      69.7230
      75     1 N    7    1.695166    2.895599   15.630818      5.00      14.0067
      76     2 Ga  31    1.523618    4.672674   16.527163     13.00      69.7230
      77     1 N    7    0.074715    7.551660    2.707605      5.00      14.0067
      78     2 Ga  31    0.071494    5.715370    3.381100     13.00      69.7230
      79     1 N    7    0.070657    5.706434    5.314864      5.00      14.0067
      80     2 Ga  31    0.092867    7.565036    5.915737     13.00      69.7230
      81     1 N    7    0.077654    7.553196    7.888473      5.00      14.0067
      82     2 Ga  31    0.069105    5.685784    8.485500     13.00      69.7230
      83     1 N    7    0.071948    5.681172   10.478945      5.00      14.0067
      84     2 Ga  31    0.073778    7.549961   11.072952     13.00      69.7230
      85     1 N    7    0.072771    7.548767   13.045642      5.00      14.0067
      86     2 Ga  31    0.072243    5.679079   13.668028     13.00      69.7230
      87     1 N    7    0.071647    5.710862   15.631837      5.00      14.0067
      88     2 Ga  31    0.073158    7.549077   15.909336     13.00      69.7230
      89     1 N    7   -1.642051   10.287907    2.574224      5.00      14.0067
      90     2 Ga  31   -1.529620    8.484832    3.340699     13.00      69.7230
      91     1 N    7   -1.522735    8.474310    5.289121      5.00      14.0067
      92     2 Ga  31   -1.507267   10.350166    5.870370     13.00      69.7230
      93     1 N    7   -1.532113   10.335674    7.859262      5.00      14.0067
      94     2 Ga  31   -1.546136    8.477268    8.483629     13.00      69.7230
      95     1 N    7   -1.546288    8.480825   10.477965      5.00      14.0067
      96     2 Ga  31   -1.517430   10.339949   11.117405     13.00      69.7230
      97     1 N    7   -1.502558   10.351050   13.112599      5.00      14.0067
      98     2 Ga  31   -1.546897    8.482030   13.666954     13.00      69.7230
      99     1 N    7   -1.521427    8.465925   15.630581      5.00      14.0067
     100     2 Ga  31   -1.690060   10.243915   16.524743     13.00      69.7230
     101     1 N    7    6.483466    2.110540    2.567312      5.00      14.0067
     102     2 Ga  31    6.507157    0.101357    2.953404     13.00      69.7230
     103     1 N    7    6.483049    0.135660    5.123495      5.00      14.0067
     104     2 Ga  31    6.514614    1.947054    5.869244     13.00      69.7230
     105     1 N    7    6.505006    1.973443    7.859086      5.00      14.0067
     106     2 Ga  31    6.510256    0.116783    8.485628     13.00      69.7230
     107     1 N    7    6.505885    0.120290   10.463715      5.00      14.0067
     108     2 Ga  31    6.508531    1.959228   11.117152     13.00      69.7230
     109     1 N    7    6.505740    1.940663   13.111492      5.00      14.0067
     110     2 Ga  31    6.506718    0.121043   13.912715     13.00      69.7230
     111     1 N    7    6.505600    0.122676   16.117435      5.00      14.0067
     112     2 Ga  31    6.505172    2.167800   16.528061     13.00      69.7230
     113     2 Ga  31    6.476233    3.859455    1.586779     13.00      69.7230
     114     1 N    7    5.009758    4.700070    2.651465      5.00      14.0067
     115     2 Ga  31    4.852683    2.862776    3.394194     13.00      69.7230
     116     1 N    7    4.878145    2.893060    5.319302      5.00      14.0067
     117     2 Ga  31    4.882461    4.779398    5.867821     13.00      69.7230
     118     1 N    7    4.889229    4.765115    7.853594      5.00      14.0067
     119     2 Ga  31    4.911682    2.914099    8.506388     13.00      69.7230
     120     1 N    7    4.908611    2.914073   10.492474      5.00      14.0067
     121     2 Ga  31    4.884314    4.777216   11.115436     13.00      69.7230
     122     1 N    7    4.865680    4.782998   13.110692      5.00      14.0067
     123     2 Ga  31    4.909601    2.913474   13.667593     13.00      69.7230
     124     1 N    7    4.881853    2.896045   15.630079      5.00      14.0067
     125     2 Ga  31    5.054513    4.672384   16.527647     13.00      69.7230
     126     1 N    7    6.505039    3.843644   17.660639      5.00      14.0067
     127     1 N    7    3.282350    7.527805    2.566549      5.00      14.0067
     128     1 N    7    3.290375    5.674157    5.115733      5.00      14.0067
     129     2 Ga  31    3.292489    7.541860    5.813558     13.00      69.7230
     130     1 N    7    3.287962    7.541487    7.820487      5.00      14.0067
     131     2 Ga  31    3.290191    5.700270    8.486679     13.00      69.7230
     132     1 N    7    3.289151    5.693905   10.462434      5.00      14.0067
     133     2 Ga  31    3.290159    7.532907   11.114091     13.00      69.7230
     134     1 N    7    3.288963    7.512138   13.108693      5.00      14.0067
     135     2 Ga  31    3.289574    5.693371   13.914082     13.00      69.7230
     136     1 N    7    3.288977    5.693642   16.116900      5.00      14.0067
     137     2 Ga  31    3.288828    7.738224   16.528212     13.00      69.7230
     138     2 Ga  31    4.152947   10.896091    0.679734     13.00      69.7230
     139     1 N    7    1.713505   10.347420    2.573828      5.00      14.0067
     140     2 Ga  31    1.699819    8.561951    3.208124     13.00      69.7230
     141     1 N    7    1.677627    8.464664    5.207062      5.00      14.0067
     142     2 Ga  31    1.654311   10.338908    5.813334     13.00      69.7230
     143     1 N    7    1.669403   10.331271    7.827464      5.00      14.0067
     144     2 Ga  31    1.695018    8.485107    8.480486     13.00      69.7230
     145     1 N    7    1.692902    8.482434   10.475493      5.00      14.0067
     146     2 Ga  31    1.668449   10.342644   11.111698     13.00      69.7230
     147     1 N    7    1.649700   10.351560   13.108186      5.00      14.0067
     148     2 Ga  31    1.692432    8.483279   13.666249     13.00      69.7230
     149     1 N    7    1.665507    8.466891   15.628625      5.00      14.0067
     150     2 Ga  31    1.839459   10.241975   16.528176     13.00      69.7230
     151     1 N    7    3.289218    9.412969   17.663004      5.00      14.0067
     152     1 N    7    9.747194    1.938399    2.649231      5.00      14.0067
     153     2 Ga  31    9.668769    0.144188    3.297868     13.00      69.7230
     154     1 N    7    9.718444    0.119968    5.288937      5.00      14.0067
     155     2 Ga  31    9.723892    1.967746    5.903977     13.00      69.7230
     156     1 N    7    9.719375    1.978001    7.888249      5.00      14.0067
     157     2 Ga  31    9.719360    0.105820    8.464999     13.00      69.7230
     158     1 N    7    9.720322    0.108647   10.468231      5.00      14.0067
     159     2 Ga  31    9.720862    1.976078   11.070193     13.00      69.7230
     160     1 N    7    9.720793    1.976931   13.043998      5.00      14.0067
     161     2 Ga  31    9.721046    0.107583   13.666590     13.00      69.7230
     162     1 N    7    9.720805    0.139808   15.630304      5.00      14.0067
     163     2 Ga  31    9.720741    1.977602   15.908998     13.00      69.7230
     164     1 N    7    8.001926    4.703546    2.566991      5.00      14.0067
     165     2 Ga  31    8.229485    2.827742    3.303781     13.00      69.7230
     166     1 N    7    8.112589    2.902048    5.276304      5.00      14.0067
     167     2 Ga  31    8.142692    4.774533    5.834494     13.00      69.7230
     168     1 N    7    8.123469    4.767867    7.836420      5.00      14.0067
     169     2 Ga  31    8.108706    2.914386    8.485494     13.00      69.7230
     170     1 N    7    8.103141    2.914265   10.479817      5.00      14.0067
     171     2 Ga  31    8.126814    4.773566   11.113399     13.00      69.7230
     172     1 N    7    8.143968    4.781799   13.109400      5.00      14.0067
     173     2 Ga  31    8.102568    2.912465   13.666166     13.00      69.7230
     174     1 N    7    8.128389    2.896235   15.628901      5.00      14.0067
     175     2 Ga  31    7.954690    4.671770   16.527190     13.00      69.7230
     176     1 N    7    6.496794    7.571779    2.637184      5.00      14.0067
     177     2 Ga  31    6.506219    5.845765    3.347507     13.00      69.7230
     178     1 N    7    6.506656    5.697460    5.304532      5.00      14.0067
     179     2 Ga  31    6.483432    7.575090    5.874126     13.00      69.7230
     180     1 N    7    6.497507    7.554628    7.866955      5.00      14.0067
     181     2 Ga  31    6.509207    5.690032    8.470485     13.00      69.7230
     182     1 N    7    6.506158    5.682114   10.469968      5.00      14.0067
     183     2 Ga  31    6.504388    7.549635   11.068454     13.00      69.7230
     184     1 N    7    6.504697    7.548630   13.042455      5.00      14.0067
     185     2 Ga  31    6.505313    5.679743   13.667515     13.00      69.7230
     186     1 N    7    6.505215    5.711295   15.631119      5.00      14.0067
     187     2 Ga  31    6.504053    7.549055   15.909347     13.00      69.7230
     188     1 N    7    4.864050   10.380847    2.537477      5.00      14.0067
     189     2 Ga  31    4.948891    8.511983    3.157624     13.00      69.7230
     190     1 N    7    4.881437    8.486761    5.195074      5.00      14.0067
     191     2 Ga  31    4.912696   10.339030    5.818867     13.00      69.7230
     192     1 N    7    4.906210   10.334897    7.830125      5.00      14.0067
     193     2 Ga  31    4.885922    8.483986    8.472696     13.00      69.7230
     194     1 N    7    4.885357    8.482124   10.471038      5.00      14.0067
     195     2 Ga  31    4.908558   10.341393   11.109821     13.00      69.7230
     196     1 N    7    4.927346   10.351328   13.107083      5.00      14.0067
     197     2 Ga  31    4.885770    8.483171   13.665372     13.00      69.7230
     198     1 N    7    4.911805    8.466852   15.627808      5.00      14.0067
     199     2 Ga  31    4.737992   10.241881   16.527573     13.00      69.7230
     200     3 O    8    0.750109    3.710970   -0.281736      6.00      15.9994
     201     4 H    1    2.563060    3.389811    0.186630      1.00       1.0079
     202     5 C    6    0.165131    2.741841   -1.169976      4.00      12.0107
     203     4 H    1    0.032162    1.757614   -0.687649      1.00       1.0079
     204     4 H    1   -0.812848    3.079624   -1.544685      1.00       1.0079
     205     4 H    1    0.844305    2.618349   -2.025347      1.00       1.0079
     206     2 Ga  31    3.269466    5.608835    3.046688     13.00      69.7230
     207     3 O    8    3.452569    3.065879    0.476799      6.00      15.9994
     208     4 H    1    0.010204    7.508686    1.683480      1.00       1.0079
     209     5 C    6    3.285819    1.842488    1.168754      4.00      12.0107
     210     4 H    1    4.135786    1.200592    0.891439      1.00       1.0079
     211     4 H    1    3.280513    7.583694    1.730858      1.00       1.0079
     212     4 H    1    2.351935    1.345680    0.860588      1.00       1.0079




 SCF PARAMETERS         Density guess:                                    ATOMIC
                        --------------------------------------------------------
                        max_scf:                                              80
                        max_scf_history:                                       0
                        max_diis:                                              4
                        --------------------------------------------------------
                        eps_scf:                                        5.00E-06
                        eps_scf_history:                                0.00E+00
                        eps_diis:                                       1.00E-01
                        eps_eigval:                                     1.00E-05
                        --------------------------------------------------------
                        level_shift [a.u.]:                                 0.00
                        --------------------------------------------------------
                        Outer loop SCF in use 
                        No variables optimised in outer loop
                        eps_scf                                         5.00E-06
                        max_scf                                                4
                        No outer loop optimization
                        step_size                                       5.00E-01

 PW_GRID| Information for grid number                                          1
 PW_GRID| Grid distributed over                                    80 processors
 PW_GRID| Real space group dimensions                                    80    1
 PW_GRID| the grid is blocked:                                                NO
 PW_GRID| Cutoff [a.u.]                                                    600.0
 PW_GRID| spherical cutoff:                                                   NO
 PW_GRID|   Bounds   1           -144     143                Points:         288
 PW_GRID|   Bounds   2           -144     143                Points:         288
 PW_GRID|   Bounds   3           -337     337                Points:         675
 PW_GRID| Volume element (a.u.^3)  0.5630E-03     Volume (a.u.^3)     31519.8467
 PW_GRID| Grid span                                                    FULLSPACE
 PW_GRID|   Distribution                         Average         Max         Min
 PW_GRID|   G-Vectors                           699840.0      699840      699840
 PW_GRID|   G-Rays                                2430.0        2430        2430
 PW_GRID|   Real Space Points                   699840.0      777600      583200

 PW_GRID| Information for grid number                                          2
 PW_GRID| Grid distributed over                                    80 processors
 PW_GRID| Real space group dimensions                                    80    1
 PW_GRID| the grid is blocked:                                                NO
 PW_GRID| Cutoff [a.u.]                                                    200.0
 PW_GRID| spherical cutoff:                                                   NO
 PW_GRID|   Bounds   1            -80      79                Points:         160
 PW_GRID|   Bounds   2            -80      79                Points:         160
 PW_GRID|   Bounds   3           -200     199                Points:         400
 PW_GRID| Volume element (a.u.^3)  0.3078E-02     Volume (a.u.^3)     31519.8467
 PW_GRID| Grid span                                                    FULLSPACE
 PW_GRID|   Distribution                         Average         Max         Min
 PW_GRID|   G-Vectors                           128000.0      128160      127840
 PW_GRID|   G-Rays                                 800.0         801         799
 PW_GRID|   Real Space Points                   128000.0      128000      128000

 PW_GRID| Information for grid number                                          3
 PW_GRID| Grid distributed over                                    80 processors
 PW_GRID| Real space group dimensions                                    80    1
 PW_GRID| the grid is blocked:                                                NO
 PW_GRID| Cutoff [a.u.]                                                     66.7
 PW_GRID| spherical cutoff:                                                   NO
 PW_GRID|   Bounds   1            -48      47                Points:          96
 PW_GRID|   Bounds   2            -48      47                Points:          96
 PW_GRID|   Bounds   3           -112     112                Points:         225
 PW_GRID| Volume element (a.u.^3)  0.1520E-01     Volume (a.u.^3)     31519.8467
 PW_GRID| Grid span                                                    FULLSPACE
 PW_GRID|   Distribution                         Average         Max         Min
[...]
 flops   991 x    50 x    64          80167936000     100.0%      0.0%      0.0%
 flops   991 x    64 x    50          80167936000     100.0%      0.0%      0.0%
 flops   242 x    64 x   178         102511230976     100.0%      0.0%      0.0%
 flops   242 x    64 x   183         105390759936     100.0%      0.0%      0.0%
 flops    25 x    18 x    13         108207028800     100.0%      0.0%      0.0%
 flops    13 x    18 x    25         108207028800     100.0%      0.0%      0.0%
 flops   973 x    32 x    50         108228736000     100.0%      0.0%      0.0%
 flops   973 x    50 x    32         108228736000     100.0%      0.0%      0.0%
 flops   242 x    64 x   195         112301629440     100.0%      0.0%      0.0%
 flops   242 x    32 x    32         115261448192     100.0%      0.0%      0.0%
 flops   955 x    32 x   178         122545111040     100.0%      0.0%      0.0%
 flops   955 x    32 x   183         125987389440     100.0%      0.0%      0.0%
 flops   991 x    32 x   178         127164612608     100.0%      0.0%      0.0%
 flops   991 x    32 x   183         130736652288     100.0%      0.0%      0.0%
 flops   955 x    32 x   195         134248857600     100.0%      0.0%      0.0%
 flops   991 x    32 x   195         139309547520     100.0%      0.0%      0.0%
 flops     5 x    32 x    25         149532096000     100.0%      0.0%      0.0%
 flops    25 x    32 x     5         149532096000     100.0%      0.0%      0.0%
 flops    25 x    25 x    50         152762500000     100.0%      0.0%      0.0%
 flops   973 x    64 x    50         157423616000     100.0%      0.0%      0.0%
 flops   973 x    50 x    64         157423616000     100.0%      0.0%      0.0%
 flops   242 x    64 x    32         167653015552     100.0%      0.0%      0.0%
 flops   242 x    32 x    64         167653015552     100.0%      0.0%      0.0%
 flops   955 x    64 x   178         178247434240     100.0%      0.0%      0.0%
 flops   955 x    64 x   183         183254384640     100.0%      0.0%      0.0%
 flops   991 x    64 x   178         184966709248     100.0%      0.0%      0.0%
 flops   991 x    64 x   183         190162403328     100.0%      0.0%      0.0%
 flops   955 x    64 x   195         195271065600     100.0%      0.0%      0.0%
 flops   224 x    32 x   178         195703259136     100.0%      0.0%      0.0%
 flops   224 x    32 x   183         201200541696     100.0%      0.0%      0.0%
 flops   991 x    64 x   195         202632069120     100.0%      0.0%      0.0%
 flops    25 x    18 x    25         205425000000     100.0%      0.0%      0.0%
 flops   224 x    32 x   195         214394019840     100.0%      0.0%      0.0%
 flops   242 x    64 x    64         243858931712     100.0%      0.0%      0.0%
 flops   973 x    32 x   178         249709723648     100.0%      0.0%      0.0%
 flops   973 x    32 x   183         256724041728     100.0%      0.0%      0.0%
 flops   973 x    32 x   195         273558405120     100.0%      0.0%      0.0%
 flops    13 x    13 x    32         283910287232     100.0%      0.0%      0.0%
 flops   224 x    64 x   178         284659286016     100.0%      0.0%      0.0%
 flops   224 x    64 x   183         292655333376     100.0%      0.0%      0.0%
 flops   224 x    64 x   195         311845847040     100.0%      0.0%      0.0%
 flops   224 x    32 x    32         320064847872     100.0%      0.0%      0.0%
 flops   973 x    64 x   178         363214143488     100.0%      0.0%      0.0%
 flops   973 x    64 x   183         373416787968     100.0%      0.0%      0.0%
 flops   955 x    32 x    32         373917491200     100.0%      0.0%      0.0%
 flops   991 x    32 x    32         388012810240     100.0%      0.0%      0.0%
 flops   973 x    64 x   195         397903134720     100.0%      0.0%      0.0%
 flops    13 x    13 x    64         412960417792     100.0%      0.0%      0.0%
 flops   224 x    32 x    64         465548869632     100.0%      0.0%      0.0%
 flops   224 x    64 x    32         465548869632     100.0%      0.0%      0.0%
 flops   955 x    32 x    64         543879987200     100.0%      0.0%      0.0%
 flops   955 x    64 x    32         543879987200     100.0%      0.0%      0.0%
 flops    13 x    25 x    32         560417686400     100.0%      0.0%      0.0%
 flops    25 x    13 x    32         561374070400     100.0%      0.0%      0.0%
 flops   991 x    32 x    64         564382269440     100.0%      0.0%      0.0%
 flops   991 x    64 x    32         564382269440     100.0%      0.0%      0.0%
 flops   224 x    64 x    64         677161992192     100.0%      0.0%      0.0%
 flops   973 x    32 x    32         761930301440     100.0%      0.0%      0.0%
 flops   955 x    64 x    64         791098163200     100.0%      0.0%      0.0%
 flops    13 x    25 x    64         815152998400     100.0%      0.0%      0.0%
 flops    25 x    13 x    64         816544102400     100.0%      0.0%      0.0%
 flops   991 x    64 x    64         820919664640     100.0%      0.0%      0.0%
 flops    25 x    25 x    32        1075448000000     100.0%      0.0%      0.0%
 flops   973 x    64 x    32        1108262256640     100.0%      0.0%      0.0%
 flops   973 x    32 x    64        1108262256640     100.0%      0.0%      0.0%
 flops    25 x    25 x    64        1564288000000     100.0%      0.0%      0.0%
 flops   973 x    64 x    64        1612017827840     100.0%      0.0%      0.0%
 flops    13 x    32 x    13        2697709414400     100.0%      0.0%      0.0%
 flops    25 x    32 x    13        5386305433600     100.0%      0.0%      0.0%
 flops    13 x    32 x    25        5386305433600     100.0%      0.0%      0.0%
 flops    25 x    32 x    25       10225600000000     100.0%      0.0%      0.0%
 flops inhomo. stacks              18684476280736     100.0%      0.0%      0.0%
 flops total                        69.280431E+12     100.0%      0.0%      0.0%
 flops max/rank                      1.202707E+12     100.0%      0.0%      0.0%
 matmuls inhomo. stacks                   1874880     100.0%      0.0%      0.0%
 matmuls total                         1348713378     100.0%      0.0%      0.0%
 number of processed stacks              24800496     100.0%      0.0%      0.0%
 average stack size                                    54.4       0.0       0.0
 marketing flops                    73.935027E+12
 -------------------------------------------------------------------------------
 # multiplications                           6621
 max memory usage/rank               1.359143E+09
 # max total images/rank                        5
 # max 3D layers                                1
 # MPI messages exchanged                60383520
 MPI messages size (bytes):
  total size                         7.333515E+12
  min size                           0.000000E+00
  max size                           1.894792E+06
  average size                     121.448953E+03
 MPI breakdown and total messages size (bytes):
             size <=      128              392160                        0
       128 < size <=     8192             8056114              65995685888
      8192 < size <=    32768            18568206             378794723904
     32768 < size <=   131072            26261040            1904569509120
    131072 < size <=  4194304             7106000            4982685956016
   4194304 < size <= 16777216                   0                        0
  16777216 < size                               0                        0
 -------------------------------------------------------------------------------

 *** WARNING in dbcsr/mm/dbcsr_mm.F:268 :: Using a non-square number of ***
 *** MPI ranks might lead to poor performance.                          ***
 *** Used ranks: 80                                                     ***
 *** Suggested: 81 169                                                  ***

 -------------------------------------------------------------------------------
 
 MEMORY| Estimated peak process memory [MiB]                                1321

 -------------------------------------------------------------------------------
 ----                             MULTIGRID INFO                            ----
 -------------------------------------------------------------------------------
 count for grid        1:        1089308          cutoff [a.u.]          600.00
 count for grid        2:        3504944          cutoff [a.u.]          200.00
 count for grid        3:        2683071          cutoff [a.u.]           66.67
 count for grid        4:        2817789          cutoff [a.u.]           22.22
 count for grid        5:        1980664          cutoff [a.u.]            7.41
 total gridlevel count  :       12075776

 -------------------------------------------------------------------------------
 -                                                                             -
 -                         MESSAGE PASSING PERFORMANCE                         -
 -                                                                             -
 -------------------------------------------------------------------------------

 ROUTINE             CALLS      AVE VOLUME [Bytes]
 MP_Group              593
 MP_Bcast            12368                  30842.
 MP_Allreduce        67009                    353.
 MP_Sync               293
 MP_Alltoall         35742                5551252.
 MP_SendRecv          3160                   5918.
 MP_ISendRecv       169692                 133520.
 MP_Wait           1473186
 MP_comm_split         288
 MP_ISend          1695984                 115200.
 MP_IRecv          1696496                 115098.
 MP_Recv               171                 162816.
 MP_Memory          738900
 -------------------------------------------------------------------------------


 -------------------------------------------------------------------------------
 -                                                                             -
 -                           R E F E R E N C E S                               -
 -                                                                             -
 -------------------------------------------------------------------------------
 
 CP2K version 7.0 (Development Version), the CP2K developers group (2018).
 CP2K is freely available from https://www.cp2k.org/ .

 Schuett, Ole; Messmer, Peter; Hutter, Juerg; VandeVondele, Joost. 
 Electronic Structure Calculations on Graphics Processing Units, John Wiley & Sons, Ltd, 173-190 (2016). 
 GPU-Accelerated Sparse Matrix-Matrix Multiplication for Linear Scaling Density Functional Theory.
 http://dx.doi.org/10.1002/9781118670712.ch8


 Borstnik, U; VandeVondele, J; Weber, V; Hutter, J. 
 PARALLEL COMPUTING, 40 (5-6), 47-58 (2014). 
 Sparse matrix multiplication: The distributed block-compressed sparse
 row library.
 http://dx.doi.org/10.1016/j.parco.2014.03.012


 Hutter, J; Iannuzzi, M; Schiffmann, F; VandeVondele, J. 
 WILEY INTERDISCIPLINARY REVIEWS-COMPUTATIONAL MOLECULAR SCIENCE, 4 (1), 15-25 (2014). 
 CP2K: atomistic simulations of condensed matter systems.
 http://dx.doi.org/10.1002/wcms.1159


 Grimme, S; Ehrlich, S; Goerigk, L. 
 JOURNAL OF COMPUTATIONAL CHEMISTRY, 32, 1456 (2011). 
 Effect of the damping function in dispersion corrected density functional theory.
 http://dx.doi.org/10.1002/jcc.21759


 Grimme, S; Antony, J; Ehrlich, S; Krieg, H. 
 JOURNAL OF CHEMICAL PHYSICS, 132 (15), 154104 (2010). 
 A consistent and accurate ab initio parametrization of density
 functional dispersion correction (DFT-D) for the 94 elements H-Pu.
 http://dx.doi.org/10.1063/1.3382344


 VandeVondele, J; Hutter, J. 
 JOURNAL OF CHEMICAL PHYSICS, 127 (11), 114105 (2007). 
 Gaussian basis sets for accurate calculations on molecular systems in
 gas and condensed phases.
 http://dx.doi.org/10.1063/1.2770708


 Krack, M. 
 THEORETICAL CHEMISTRY ACCOUNTS, 114 (1-3), 145-152 (2005). 
 Pseudopotentials for H to Kr optimized for gradient-corrected
 exchange-correlation functionals.
 http://dx.doi.org/10.1007/s00214-005-0655-y


 VandeVondele, J; Krack, M; Mohamed, F; Parrinello, M; Chassaing, T;
 Hutter, J. COMPUTER PHYSICS COMMUNICATIONS, 167 (2), 103-128 (2005). 
 QUICKSTEP: Fast and accurate density functional calculations using a
 mixed Gaussian and plane waves approach.
 http://dx.doi.org/10.1016/j.cpc.2004.12.014


 Frigo, M; Johnson, SG. 
 PROCEEDINGS OF THE IEEE, 93 (2), 216-231 (2005). 
 The design and implementation of FFTW3.
 http://dx.doi.org/10.1109/JPROC.2004.840301


 Kolafa, J. 
 JOURNAL OF COMPUTATIONAL CHEMISTRY, 25 (3), 335-342 (2004). 
 Time-reversible always stable predictor-corrector method for molecular dynamics of polarizable molecules.
 http://dx.doi.org/10.1002/jcc.10385


 VandeVondele, J; Hutter, J. 
 JOURNAL OF CHEMICAL PHYSICS, 118 (10), 4365-4369 (2003). 
 An efficient orbital transformation method for electronic structure
 calculations.
 http://dx.doi.org/10.1063/1.1543154


 Hartwigsen, C; Goedecker, S; Hutter, J. 
 PHYSICAL REVIEW B, 58 (7), 3641-3662 (1998). 
 Relativistic separable dual-space Gaussian pseudopotentials from H to Rn.
 http://dx.doi.org/10.1103/PhysRevB.58.3641


 Lippert, G; Hutter, J; Parrinello, M. 
 MOLECULAR PHYSICS, 92 (3), 477-487 (1997). 
 A hybrid Gaussian and plane wave density functional scheme.
 http://dx.doi.org/10.1080/002689797170220


 Perdew, JP; Burke, K; Ernzerhof, M. 
 PHYSICAL REVIEW LETTERS, 77 (18), 3865-3868 (1996). 
 Generalized gradient approximation made simple.
 http://dx.doi.org/10.1103/PhysRevLett.77.3865


 Goedecker, S; Teter, M; Hutter, J. 
 PHYSICAL REVIEW B, 54 (3), 1703-1710 (1996). 
 Separable dual-space Gaussian pseudopotentials.
 http://dx.doi.org/10.1103/PhysRevB.54.1703


 -------------------------------------------------------------------------------
 -                                                                             -
 -                                T I M I N G                                  -
 -                                                                             -
 -------------------------------------------------------------------------------
 SUBROUTINE                       CALLS  ASD         SELF TIME        TOTAL TIME
                                MAXIMUM       AVERAGE  MAXIMUM  AVERAGE  MAXIMUM
 CP2K                                 1  1.0    0.160    0.208 3260.312 3260.328
 cp_geo_opt                           1  2.0    0.002    0.014 3259.067 3259.079
 geoopt_bfgs                          1  3.0    0.018    0.040 3259.065 3259.078
 cp_eval_at                          11  4.0    0.005    0.014 3255.346 3255.358
 qs_forces                           10  5.0    0.021    0.052 3135.677 3135.678
 qs_energies                         11  5.9    0.033    0.075 3054.491 3054.523
 scf_env_do_scf                      11  6.9    0.004    0.023 2918.649 2918.662
 scf_env_do_scf_inner_loop          221  8.0    0.026    0.048 2692.284 2692.306
 rebuild_ks_matrix                  231  9.8    0.001    0.001 1410.398 1410.759
 qs_ks_build_kohn_sham_matrix       231 10.8    0.074    0.138 1410.396 1410.758
 qs_ks_update_qs_env                233  9.0    0.002    0.002 1232.884 1233.195
 qs_rho_update_rho                  232  9.0    0.002    0.003 1210.017 1210.567
 calculate_rho_elec                 464 10.0  602.157  611.584 1210.014 1210.565
 sum_up_and_integrate               126 11.7    1.872    2.122  772.990  773.234
 integrate_v_rspace                 252 12.7  423.377  440.124  771.117  771.645
 pw_transfer                       7268 13.3    0.758    0.913  712.204  716.562
 fft_wrap_pw1pw2                   6806 14.4    0.078    0.098  708.584  712.924
 fft_wrap_pw1pw2_600               3942 15.7   43.709   49.515  659.428  663.683
 fft3d_ps                          6806 16.4  202.251  222.792  606.764  612.940
 rs_pw_transfer                    3634 12.9    0.047    0.065  602.796  610.438
 density_rs2pw                      464 11.0    0.034    0.037  547.976  559.660
 qs_vxc_create                      231 11.8    0.009    0.022  494.480  494.613
 dbcsr_multiply_generic            6621 13.7    0.439    0.614  455.171  455.892
 mp_waitall_1                   1342418 16.7  408.694  435.030  408.694  435.030
 qs_scf_new_mos                     221  9.0    0.002    0.005  413.411  413.848
 qs_scf_loop_do_ot                  221 10.0    0.008    0.041  413.409  413.845
 mp_alltoall_z22v                  6806 18.4  348.330  388.956  348.330  388.956
 ot_scf_mini                        221 11.0    0.035    0.078  377.000  377.234
 xc_vxc_pw_create                   126 12.7   18.496   20.863  362.543  362.623
 multiply_cannon                   6621 14.7    2.098    2.217  349.310  358.164
 mp_waitany                      130768 14.9  265.878  285.888  265.878  285.888
 xc_rho_set_and_dset_create         231 13.8    4.089    4.386  273.849  278.186
 potential_pw2rs                    252 13.7    0.198    0.224  276.929  277.487
 rs_pw_transfer_RS2PW_600           486 12.9   96.729  107.122  249.373  257.297
 x_to_yz                           2963 18.0   32.053   36.668  230.790  245.534
 multiply_cannon_metrocomm3      132420 15.7    0.365    0.399  208.960  231.473
 init_scf_loop                       12  7.9    0.005    0.011  226.018  226.033
 ot_mini                            221 12.0    0.002    0.003  195.343  195.618
 yz_to_x                           2411 16.8   19.854   20.941  169.148  188.889
 qs_ks_update_qs_env_forces          10  6.0    0.000    0.000  179.387  179.434
 rs_pw_transfer_PW2RS_600           284 15.3   63.371   68.378  161.976  165.913
 xc_exc_calc                        105 13.0    0.511    0.587  131.928  132.010
 qs_ot_get_derivative               232 13.0    0.004    0.026  122.547  122.869
 prepare_preconditioner              12  8.9    0.000    0.000  113.308  113.337
 make_preconditioner                 24  9.9    0.003    0.013  103.920  103.947
 mp_alltoall_d11v                  6966 15.2   88.542  102.656   88.542  102.656
 rs_distribute_matrix               736 11.9    0.930    1.925   84.398   98.027
 make_full_all                       24 10.9    0.011    0.026   95.469   95.510
 multiply_cannon_metrocomm1      132420 15.7    0.422    0.465   75.217   93.828
 cp_fm_syevd                        288 13.9    0.002    0.003   84.090   84.182
 init_scf_run                        11  6.9    0.001    0.002   82.665   82.666
 scf_env_initial_rho_setup           11  7.9    0.002    0.004   82.664   82.666
 cp_fm_redistribute_end             288 14.9   31.335   81.531   31.869   82.024
 cp_fm_syevd_base                   288 14.6   49.893   78.877   49.893   78.877
 qs_ot_get_p                        466 11.9    0.008    0.045   76.507   77.932
 apply_preconditioner_dbcsr         256 14.0    0.001    0.009   77.230   77.386
 apply_all                          256 15.0    0.030    0.045   77.230   77.385
 wfi_extrapolate                     11  8.9    0.006    0.028   76.544   76.552
 ot_new_cg_direction                116 13.0    0.005    0.007   71.373   71.399
 -------------------------------------------------------------------------------

 The number of warnings for this run is : 1
 
 -------------------------------------------------------------------------------
  **** **** ******  **  PROGRAM ENDED AT                 2019-07-14 21:45:57.597
 ***** ** ***  *** **   PROGRAM RAN ON            blg9233.int.ets1.calculquebec.
 **    ****   ******    PROGRAM RAN BY                                       rzk
 ***** **    ** ** **   PROGRAM PROCESS ID                                206169
  **** **  *******  **  PROGRAM STOPPED IN /lustre04/scratch/rzk/rzk/GaN-carbene
                                           /443-adatoms-both-2x2/09-BondBreaking
                                           -CH/02-0401-CH-to-NTop-PES/Phase02-Re
                                           lax-geom
