     212
 i =        1, E =     -8504.8223278282
  N         0.0910941447        2.1106807425        2.5752079335
 Ga         0.0997643227        0.1551090193        3.0155644142
  N         0.0893987897        0.1320305097        5.1209687230
 Ga         0.0637619531        1.9509813033        5.8742375049
  N         0.0733879801        1.9713114496        7.8611225978
 Ga         0.0671461028        0.1160881058        8.4885917577
  N         0.0718023306        0.1198296276       10.4639668433
 Ga         0.0694826499        1.9587919152       11.1190180802
  N         0.0719643058        1.9408370069       13.1108827361
 Ga         0.0720580979        0.1208345875       13.9131646617
  N         0.0739246067        0.1221548053       16.1152966154
 Ga         0.0743886579        2.1718111363       16.5298933900
 Ga         0.1059203314        3.8253435185        1.4373362483
  N        -1.3964054883        4.6920602793        2.5316363065
 Ga        -1.6046019010        2.8401950929        3.3150373260
  N        -1.5342746093        2.9067474140        5.2934576148
 Ga        -1.5699092128        4.7722658267        5.8518465289
  N        -1.5443410234        4.7696769634        7.8452797553
 Ga        -1.5321187274        2.9117797648        8.4870591865
  N        -1.5255343704        2.9138291219       10.4791985292
 Ga        -1.5514814755        4.7727949963       11.1168593927
  N        -1.5673012446        4.7817728293       13.1095522499
 Ga        -1.5255854975        2.9120776866       13.6672587714
  N        -1.5508810976        2.8956045228       15.6278432003
 Ga        -1.3730288450        4.6714567791       16.5295574690
  N         0.0689493946        3.8409260835       17.6748449941
  N        -3.1361724860        7.6560390958        2.5593955809
 Ga        -3.1204773014        5.6865861359        2.8779791888
  N        -3.1389891514        5.6854164540        5.0564040225
 Ga        -3.1491607386        7.5126829674        5.8333387283
  N        -3.1427475372        7.5367091720        7.8325413992
 Ga        -3.1448125171        5.6923398291        8.4872644076
  N        -3.1440183415        5.6923037145       10.4617202018
 Ga        -3.1451381860        7.5308785797       11.1151968568
  N        -3.1439097922        7.5119683400       13.1082405705
 Ga        -3.1438316506        5.6917500588       13.9131250362
  N        -3.1437446323        5.6915920206       16.1135350582
 Ga        -3.1439448741        7.7363645961       16.5275605334
 Ga        -3.1808041782        9.3949579849        1.3248604266
  N        -4.6477614429       10.2957418280        2.5862014431
 Ga        -4.8382075245        8.4433545542        3.2880298036
  N        -4.7482615147        8.4807964860        5.2764203122
 Ga        -4.7781379316       10.3402631975        5.8658224010
  N        -4.7561193464       10.3378690041        7.8546128983
 Ga        -4.7467263137        8.4762995113        8.4742332397
  N        -4.7412255587        8.4809306723       10.4702916270
 Ga        -4.7699421412       10.3382368316       11.1178840119
  N        -4.7840717386       10.3504347631       13.1104398280
 Ga        -4.7414090386        8.4819402071       13.6673991507
  N        -4.7685725486        8.4696500006       15.6283612952
 Ga        -4.5881486859       10.2436932015       16.5278538396
  N        -3.1439620058        9.4054012587       17.6710871434
  N         3.2769251067        1.9685553354        2.6628175074
 Ga         3.2896321108        0.1175948236        3.3753298291
  N         3.2892988107        0.1345615295        5.3127310578
 Ga         3.2861086957        1.9691741906        5.9776329647
  N         3.2898239086        1.9760104591        7.9297869019
 Ga         3.2873377057        0.1026188230        8.5087278162
  N         3.2885055470        0.1075368417       10.4928017369
 Ga         3.2892449644        1.9781733821       11.0841417206
  N         3.2888975989        1.9778075443       13.0512975027
 Ga         3.2885620547        0.1068284385       13.6665574977
  N         3.2884906526        0.1409796483       15.6249061493
 Ga         3.2890302764        1.9781151133       15.9052513112
  N         1.5618229352        4.6922546035        2.6234400698
 Ga         1.6901157912        2.8819115073        3.3908259550
  N         1.6999358534        2.8943596807        5.3256300809
 Ga         1.7027700139        4.7761339300        5.8776525721
  N         1.6876654908        4.7670601852        7.8579729715
 Ga         1.6668119852        2.9131695011        8.5078001820
  N         1.6700280797        2.9137941166       10.4919288166
 Ga         1.6959593846        4.7761049064       11.1197484509
  N         1.7126453705        4.7826338995       13.1112948447
 Ga         1.6688578255        2.9129246957       13.6683337097
  N         1.6974387236        2.8966525823       15.6263584524
 Ga         1.5165806515        4.6682422720       16.5304136152
  N         0.0717516499        7.5492876885        2.7046929362
 Ga         0.0709643638        5.7137270525        3.3823196573
  N         0.0701310906        5.7062537866        5.3146272855
 Ga         0.0923770166        7.5643722768        5.9168083736
  N         0.0772968236        7.5534452901        7.8871430680
 Ga         0.0691349319        5.6857132833        8.4864678584
  N         0.0720385743        5.6810069486       10.4772877374
 Ga         0.0736147751        7.5496647098       11.0739612322
  N         0.0731543886        7.5492778821       13.0439192969
 Ga         0.0723393687        5.6795591059       13.6677022072
  N         0.0743717572        5.7119279034       15.6271179920
 Ga         0.0720778612        7.5485220633       15.9092148953
  N        -1.6400487841       10.2892755980        2.5724093758
 Ga        -1.5278644805        8.4837802480        3.3408714493
  N        -1.5245704714        8.4754283748        5.2869758124
 Ga        -1.5061550841       10.3509006548        5.8732119289
  N        -1.5325175138       10.3354775056        7.8586519212
 Ga        -1.5459097277        8.4771411925        8.4856435785
  N        -1.5464894673        8.4810472586       10.4768762639
 Ga        -1.5174921178       10.3399702742       11.1193827671
  N        -1.5027310205       10.3509744094       13.1114162558
 Ga        -1.5465302917        8.4822079211       13.6678621828
  N        -1.5190365412        8.4695720509       15.6288111611
 Ga        -1.6996422870       10.2435941405       16.5281686778
  N         6.4827282984        2.1111005255        2.5663202876
 Ga         6.5114330528        0.1055844753        2.9556253530
  N         6.4817444226        0.1353131725        5.1215061102
 Ga         6.5151010532        1.9470519208        5.8695769617
  N         6.5048429745        1.9732454067        7.8574065516
 Ga         6.5105492403        0.1168052995        8.4867740361
  N         6.5055029432        0.1202305437       10.4626110908
 Ga         6.5083263656        1.9591666795       11.1188927287
  N         6.5055805024        1.9407716870       13.1107051325
 Ga         6.5054494383        0.1213980645       13.9142920734
  N         6.5029297049        0.1220504773       16.1161529893
 Ga         6.5026121536        2.1715330802       16.5299034271
 Ga         6.4791151584        3.8582042598        1.5821134392
  N         5.0137835432        4.6975602133        2.6491101755
 Ga         4.8534490029        2.8628772441        3.3950051606
  N         4.8782934643        2.8926314183        5.3189878454
 Ga         4.8829832447        4.7792003082        5.8690634384
  N         4.8891826240        4.7652534038        7.8525414676
 Ga         4.9117681694        2.9142755419        8.5073375605
  N         4.9082893944        2.9140150752       10.4913153832
 Ga         4.8842072548        4.7773221316       11.1169473623
  N         4.8657096710        4.7827942740       13.1094639628
 Ga         4.9088693024        2.9132965853       13.6677164919
  N         4.8802699842        2.8972783362       15.6261048851
 Ga         5.0600621337        4.6688179820       16.5301384774
  N         6.5082527474        3.8412976139       17.6722603363
  N         3.2830836790        7.5235154045        2.6370648521
  N         3.2903060070        5.6737122922        5.1191544234
 Ga         3.2927618640        7.5415467310        5.8157022256
  N         3.2880083569        7.5414714767        7.8197320618
 Ga         3.2901499218        5.7004738181        8.4874870660
  N         3.2891598492        5.6937618427       10.4611133738
 Ga         3.2900917883        7.5325957707       11.1156784592
  N         3.2889522304        7.5119056816       13.1091342155
 Ga         3.2894186154        5.6918288849       13.9154973805
  N         3.2883724715        5.6897161260       16.1157684047
 Ga         3.2887188704        7.7329516157       16.5261293233
 Ga         4.1520945230       10.8965423254        0.6772951547
  N         1.7138893459       10.3512128690        2.5684113714
 Ga         1.6873640216        8.5710375302        3.2157386390
  N         1.6772498965        8.4650523148        5.2115594443
 Ga         1.6546082001       10.3402531883        5.8144263034
  N         1.6690489427       10.3311645471        7.8260263515
 Ga         1.6952161800        8.4851116233        8.4813444777
  N         1.6927806834        8.4823457988       10.4741475457
 Ga         1.6681505037       10.3426170023       11.1134071378
  N         1.6493329209       10.3516731907       13.1084336630
 Ga         1.6920336040        8.4833046162       13.6683448263
  N         1.6646081619        8.4683772219       15.6314343031
 Ga         1.8380377844       10.2450171282       16.5266271266
  N         3.2891629267        9.4091338279       17.6537977094
  N         9.7472029939        1.9386953907        2.6476151580
 Ga         9.6684709603        0.1453762786        3.2985506265
  N         9.7185792121        0.1202575489        5.2880504539
 Ga         9.7240420756        1.9676891559        5.9044337487
  N         9.7193962347        1.9779564182        7.8866577607
 Ga         9.7194491797        0.1056425156        8.4656207256
  N         9.7202632814        0.1083114047       10.4667705119
 Ga         9.7208541489        1.9760787905       11.0710565883
  N         9.7206573954        1.9765912253       13.0425385589
 Ga         9.7210545033        0.1078281936       13.6675203759
  N         9.7206805171        0.1406143258       15.6301764916
 Ga         9.7206597563        1.9788150991       15.9087478196
  N         8.0018707849        4.7037181700        2.5661043987
 Ga         8.2297299668        2.8275307197        3.3035378303
  N         8.1127658277        2.9019990881        5.2749101234
 Ga         8.1429305516        4.7741542301        5.8347690625
  N         8.1235797819        4.7682376865        7.8345938217
 Ga         8.1088332215        2.9144422883        8.4863434143
  N         8.1027891579        2.9144255239       10.4784602077
 Ga         8.1267665923        4.7738115575       11.1148860461
  N         8.1441828894        4.7819486186       13.1083488041
 Ga         8.1026137989        2.9125462147       13.6671328468
  N         8.1276862121        2.8958071305       15.6280009103
 Ga         7.9503936850        4.6719513125       16.5292897089
  N         6.4997125896        7.5693116468        2.6319218819
 Ga         6.5068162115        5.8447915391        3.3479806597
  N         6.5072001450        5.6974694214        5.3038754988
 Ga         6.4833897147        7.5746114401        5.8749900435
  N         6.4979467370        7.5549602222        7.8653126968
 Ga         6.5091793270        5.6900193886        8.4714895020
  N         6.5060082606        5.6819557868       10.4682986068
 Ga         6.5045680959        7.5492871152       11.0695541116
  N         6.5042686384        7.5489996262       13.0409983424
 Ga         6.5051704801        5.6800214848       13.6671984525
  N         6.5025870924        5.7119016348       15.6268307840
 Ga         6.5051037228        7.5484208730       15.9095655092
  N         4.8641438707       10.3840237649        2.5347898731
 Ga         4.9614192919        8.5197385444        3.1645242215
  N         4.8817256333        8.4872786542        5.1982147390
 Ga         4.9124293235       10.3400203946        5.8197848863
  N         4.9066248314       10.3347934325        7.8284948826
 Ga         4.8857398821        8.4841051081        8.4734783734
  N         4.8855029650        8.4819403928       10.4696811237
 Ga         4.9087701765       10.3413693210       11.1114612297
  N         4.9277366145       10.3514889314       13.1072328659
 Ga         4.8860371146        8.4833058457       13.6674609640
  N         4.9126866819        8.4682085211       15.6306764135
 Ga         4.7394236445       10.2450546983       16.5260551940
  O         0.7507315531        3.7101802713       -0.2817476601
  H         2.5625536957        3.3896660875        0.1868253699
  C         0.1653247705        2.7418075581       -1.1701030497
  H         0.0319915892        1.7576512798       -0.6876115731
  H        -0.8129361882        3.0791868527       -1.5445789440
  H         0.8444573370        2.6182306342       -2.0254889350
 Ga         3.2697963706        5.5916850531        3.0546131574
  O         3.4524469113        3.0656973606        0.4762453436
  H         0.0106909756        7.5083465657        1.6804106495
  C         3.2856028253        1.8425263122        1.1681064129
  H         4.1361215187        1.2009634387        0.8908844700
  H         3.2807087599        7.5907091168        1.6313889881
  H         2.3514447424        1.3458251549        0.8602691773
     212
 i =        2, E =     -8504.8233981421
  N         0.0902095005        2.1101423764        2.5736659495
 Ga         0.0970930858        0.1566622921        3.0157367954
  N         0.0898522175        0.1319288344        5.1194705949
 Ga         0.0640252878        1.9513981658        5.8750400768
  N         0.0732111651        1.9711725118        7.8603310891
 Ga         0.0671684946        0.1163688716        8.4900926679
  N         0.0715004019        0.1198767368       10.4634587432
 Ga         0.0692713410        1.9588061769       11.1196476145
  N         0.0718195412        1.9402817361       13.1095428915
 Ga         0.0727556273        0.1211467247       13.9163438387
  N         0.0740433193        0.1226356434       16.1144096014
 Ga         0.0739239005        2.1724274863       16.5327082517
 Ga         0.1077035658        3.8259901857        1.4386684444
  N        -1.3963130567        4.6920319072        2.5307342931
 Ga        -1.6054079702        2.8398062332        3.3151211533
  N        -1.5342483273        2.9067623786        5.2925623548
 Ga        -1.5692946741        4.7723089121        5.8525269313
  N        -1.5447947822        4.7696011603        7.8444117850
 Ga        -1.5322011476        2.9117416536        8.4881471266
  N        -1.5256691801        2.9137062328       10.4781958223
 Ga        -1.5516702406        4.7725889942       11.1174396155
  N        -1.5675716057        4.7820056128       13.1083002126
 Ga        -1.5254658806        2.9121444978       13.6682791982
  N        -1.5500692510        2.8958369965       15.6271288478
 Ga        -1.3728218755        4.6709329259       16.5320233943
  N         0.0681836203        3.8402494355       17.6770598230
  N        -3.1359907159        7.6568040143        2.5571421167
 Ga        -3.1204550800        5.6841979287        2.8788914374
  N        -3.1389074085        5.6859036598        5.0548760614
 Ga        -3.1490673360        7.5126969127        5.8347156103
  N        -3.1427369969        7.5366163003        7.8315661028
 Ga        -3.1448862108        5.6921529940        8.4885299477
  N        -3.1440843569        5.6923616359       10.4609793126
 Ga        -3.1451499078        7.5307053706       11.1163378667
  N        -3.1439097282        7.5116583645       13.1075545664
 Ga        -3.1438060685        5.6915809529       13.9163274167
  N        -3.1437977954        5.6923450305       16.1116962401
 Ga        -3.1438803128        7.7370003397       16.5304110645
 Ga        -3.1804968932        9.3950693101        1.3387411012
  N        -4.6471271707       10.2951093771        2.5851273247
 Ga        -4.8407378123        8.4408298713        3.2895800848
  N        -4.7479400009        8.4808312536        5.2750456156
 Ga        -4.7781539946       10.3402461904        5.8670104082
  N        -4.7561145974       10.3379094447        7.8536538926
 Ga        -4.7465330824        8.4763817554        8.4758111656
  N        -4.7411245269        8.4807923375       10.4694983870
 Ga        -4.7703071340       10.3382061961       11.1183167352
  N        -4.7845860899       10.3507255113       13.1086747344
 Ga        -4.7414917984        8.4823087230       13.6685517929
  N        -4.7685046438        8.4705123115       15.6275540205
 Ga        -4.5869625660       10.2421585078       16.5307548667
  N        -3.1440844651        9.4035052204       17.6741573285
  N         3.2770889034        1.9694852432        2.6625471827
 Ga         3.2897405909        0.1207594343        3.3768136686
  N         3.2894011083        0.1345351526        5.3120108257
 Ga         3.2860961663        1.9700802221        5.9782915819
  N         3.2898589846        1.9756187226        7.9289089405
 Ga         3.2873125258        0.1026782269        8.5099019695
  N         3.2884979381        0.1073000232       10.4919680784
 Ga         3.2892026667        1.9783284140       11.0838739806
  N         3.2889029562        1.9778786416       13.0497242389
 Ga         3.2885553637        0.1064686343       13.6678970597
  N         3.2885420579        0.1402631856       15.6247051157
 Ga         3.2888334632        1.9785833732       15.9022297245
  N         1.5653139656        4.6933205498        2.6232905738
 Ga         1.6885168034        2.8822248051        3.3902511551
  N         1.7000657684        2.8942269938        5.3240435800
 Ga         1.7020491921        4.7754995102        5.8802944910
  N         1.6870583378        4.7667370253        7.8586011064
 Ga         1.6667786895        2.9127896266        8.5085951983
  N         1.6697534059        2.9135103986       10.4908359289
 Ga         1.6959205824        4.7759658792       11.1197959651
  N         1.7130525953        4.7830471053       13.1094211622
 Ga         1.6683654017        2.9133511879       13.6694183583
  N         1.6965287698        2.8976980217       15.6261331042
 Ga         1.5154832748        4.6678048156       16.5331940804
  N         0.0746207972        7.5512813026        2.7044523781
 Ga         0.0725270452        5.7140330797        3.3808741869
  N         0.0702762793        5.7065671672        5.3125643061
 Ga         0.0924047905        7.5638992067        5.9188558532
  N         0.0764420074        7.5532493441        7.8872207685
 Ga         0.0686803570        5.6854791243        8.4877803715
  N         0.0717368563        5.6809365597       10.4765250764
 Ga         0.0736938003        7.5496319111       11.0742624065
  N         0.0733252168        7.5493747958       13.0425752770
 Ga         0.0725231770        5.6795211395       13.6689599172
  N         0.0749663713        5.7112781966       15.6267674072
 Ga         0.0708956172        7.5481487339       15.9094743145
  N        -1.6409214304       10.2882832297        2.5710494470
 Ga        -1.5252872758        8.4812782352        3.3418310676
  N        -1.5247112103        8.4754566683        5.2856618315
 Ga        -1.5059706953       10.3508316868        5.8745253191
  N        -1.5325017837       10.3355928189        7.8578370058
 Ga        -1.5461181278        8.4772768513        8.4872951804
  N        -1.5466915962        8.4809280660       10.4761524811
 Ga        -1.5171821308       10.3398792781       11.1197634523
  N        -1.5022422090       10.3513316597       13.1095668469
 Ga        -1.5464712119        8.4826636334       13.6689616217
  N        -1.5190031601        8.4704370091       15.6279540204
 Ga        -1.7008821320       10.2419717991       16.5310968033
  N         6.4836547354        2.1100647243        2.5648869940
 Ga         6.5139831237        0.1071238696        2.9555703871
  N         6.4813797584        0.1351607807        5.1196747410
 Ga         6.5148703081        1.9473727726        5.8702614484
  N         6.5049976190        1.9730946958        7.8565423380
 Ga         6.5105315123        0.1171614566        8.4884004760
  N         6.5057350099        0.1203211448       10.4622146308
 Ga         6.5086162058        1.9592745978       11.1194022105
  N         6.5057318318        1.9401089873       13.1093791542
 Ga         6.5047319682        0.1214941606       13.9174469440
  N         6.5028468201        0.1226653652       16.1152561279
 Ga         6.5030817924        2.1722728170       16.5322563092
 Ga         6.4777761382        3.8587097361        1.5825061887
  N         5.0100778930        4.6989210620        2.6485279897
 Ga         4.8556241576        2.8633581625        3.3940454806
  N         4.8781779686        2.8924645856        5.3173268692
 Ga         4.8836842689        4.7785467596        5.8715885227
  N         4.8898874766        4.7649747505        7.8530617646
 Ga         4.9118661233        2.9139512613        8.5080647788
  N         4.9085267522        2.9137458958       10.4902085106
 Ga         4.8842671694        4.7772217968       11.1170200784
  N         4.8652931938        4.7832936203       13.1076832076
 Ga         4.9093229977        2.9137475509       13.6686201471
  N         4.8809542907        2.8980674069       15.6256780693
 Ga         5.0611350266        4.6682263155       16.5324359353
  N         6.5089587140        3.8407376278       17.6749996178
  N         3.2833896644        7.5257915418        2.6224007179
  N         3.2903102896        5.6692545235        5.1221850574
 Ga         3.2925454377        7.5418083234        5.8115969559
  N         3.2880853153        7.5414989379        7.8167042605
 Ga         3.2901959845        5.7004889503        8.4879798058
  N         3.2891787259        5.6941300407       10.4604632175
 Ga         3.2901381311        7.5327924029       11.1170318626
  N         3.2889642176        7.5113885930       13.1096212590
 Ga         3.2893076183        5.6908351066       13.9185388541
  N         3.2885262461        5.6903063576       16.1150095252
 Ga         3.2886513996        7.7309836997       16.5249324859
 Ga         4.1516983118       10.8963395812        0.6780220483
  N         1.7130562667       10.3468921032        2.5687666517
 Ga         1.6942224962        8.5671669458        3.2191813363
  N         1.6738868265        8.4672424971        5.2131859270
 Ga         1.6547904119       10.3408091799        5.8172387558
  N         1.6688997900       10.3321164647        7.8265646075
 Ga         1.6951854452        8.4852109832        8.4817457318
  N         1.6928837227        8.4825471046       10.4732939835
 Ga         1.6682098079       10.3427007303       11.1144652195
  N         1.6489306663       10.3521013662       13.1082966828
 Ga         1.6919084570        8.4835324419       13.6691545394
  N         1.6636533728        8.4680553071       15.6317038078
 Ga         1.8366835208       10.2454144496       16.5252311186
  N         3.2891560885        9.4079552756       17.6478082471
  N         9.7470412039        1.9382436942        2.6456468964
 Ga         9.6682966955        0.1444611638        3.2970160198
  N         9.7184395862        0.1201822673        5.2859605471
 Ga         9.7240223511        1.9674645316        5.9052297958
  N         9.7193819106        1.9781528746        7.8859785384
 Ga         9.7194666642        0.1061012693        8.4671929670
  N         9.7203102591        0.1082139990       10.4663006489
 Ga         9.7207819691        1.9760153097       11.0713822632
  N         9.7206427919        1.9765120207       13.0411528691
 Ga         9.7210751166        0.1081188880       13.6683575747
  N         9.7206678040        0.1418434532       15.6305660742
 Ga         9.7208654617        1.9807394311       15.9089578083
  N         8.0023156712        4.7038955512        2.5651693090
 Ga         8.2301496473        2.8273934556        3.3034572288
  N         8.1127215789        2.9020376101        5.2740355630
 Ga         8.1423420120        4.7742464017        5.8353499156
  N         8.1239595335        4.7681442115        7.8335928265
 Ga         8.1088528138        2.9144105249        8.4873399463
  N         8.1029211873        2.9143775258       10.4773363619
 Ga         8.1269075136        4.7735580007       11.1155040702
  N         8.1444576618        4.7822267482       13.1071276070
 Ga         8.1025353156        2.9126726935       13.6679625130
  N         8.1271333757        2.8958631174       15.6271206301
 Ga         7.9502353882        4.6713642964       16.5312915014
  N         6.4970030692        7.5711218874        2.6310716102
 Ga         6.5055176578        5.8447190593        3.3462048227
  N         6.5070038877        5.6978752161        5.3016600858
 Ga         6.4836437544        7.5740727160        5.8776903092
  N         6.4987345128        7.5547891575        7.8655571383
 Ga         6.5096678221        5.6898039211        8.4726970178
  N         6.5063323566        5.6819249077       10.4673938715
 Ga         6.5043987027        7.5492330047       11.0699925360
  N         6.5040679938        7.5490973206       13.0397153823
 Ga         6.5050499804        5.6800466871       13.6683034135
  N         6.5020076080        5.7114601849       15.6263861011
 Ga         6.5063176283        7.5482734186       15.9098498345
  N         4.8649802161       10.3800753963        2.5347512456
 Ga         4.9551402722        8.5156530312        3.1678949188
  N         4.8852592963        8.4886909824        5.1998795921
 Ga         4.9121185872       10.3403714437        5.8219593659
  N         4.9067540120       10.3356132016        7.8286538536
 Ga         4.8857929067        8.4841978894        8.4739863006
  N         4.8854479237        8.4821738989       10.4688267332
 Ga         4.9087363360       10.3414238942       11.1126471558
  N         4.9281662031       10.3518693305       13.1071920710
 Ga         4.8861751161        8.4835040037       13.6682987594
  N         4.9135912696        8.4679173908       15.6310080970
 Ga         4.7407630634       10.2455359046       16.5247239734
  O         0.7501722248        3.7095999151       -0.2815703567
  H         2.5618474208        3.3898699792        0.1868637379
  C         0.1655956857        2.7414203764       -1.1704565575
  H         0.0319806036        1.7574111840       -0.6877414919
  H        -0.8127772204        3.0790416810       -1.5445391216
  H         0.8444960830        2.6177944374       -2.0260415535
 Ga         3.2695263150        5.6001248925        3.0586588621
  O         3.4520174513        3.0655155711        0.4751911392
  H         0.0107802335        7.5079199216        1.6803703632
  C         3.2857284134        1.8429855847        1.1681135372
  H         4.1360141494        1.2012010494        0.8902688771
  H         3.2806783004        7.5918791402        1.6053770743
  H         2.3516282534        1.3461442165        0.8599127690
     212
 i =        3, E =     -8504.8241565799
  N         0.0909256726        2.1098759984        2.5729821387
 Ga         0.0926121431        0.1577786307        3.0163600370
  N         0.0907657911        0.1318973862        5.1166723344
 Ga         0.0638880381        1.9517283254        5.8759711246
  N         0.0729804944        1.9709578126        7.8584547902
 Ga         0.0668381048        0.1166668736        8.4919464901
  N         0.0710309780        0.1197182185       10.4620938353
 Ga         0.0691943841        1.9585199361       11.1216697277
  N         0.0715865976        1.9397123818       13.1083504603
 Ga         0.0736092625        0.1215845852       13.9220190371
  N         0.0745068264        0.1230982500       16.1134257768
 Ga         0.0732106772        2.1742423286       16.5368766924
 Ga         0.1090086725        3.8265206262        1.4382430418
  N        -1.3954463068        4.6921953718        2.5296614545
 Ga        -1.6065859166        2.8393128591        3.3146027614
  N        -1.5342252063        2.9068146364        5.2903839608
 Ga        -1.5685629870        4.7724337676        5.8523300316
  N        -1.5450787599        4.7696662924        7.8417696582
 Ga        -1.5324077118        2.9118111036        8.4893192005
  N        -1.5256880940        2.9136705140       10.4762290820
 Ga        -1.5519907061        4.7725710027       11.1196214737
  N        -1.5678348003        4.7823062893       13.1075077123
 Ga        -1.5252888364        2.9121811352       13.6697158121
  N        -1.5495653918        2.8963468781       15.6257240663
 Ga        -1.3717180240        4.6697276995       16.5359902829
  N         0.0666198151        3.8390591098       17.6818268186
  N        -3.1357036755        7.6591608478        2.5546306094
 Ga        -3.1206328699        5.6792710642        2.8802426640
  N        -3.1387819109        5.6870032657        5.0511673289
 Ga        -3.1488784165        7.5125742726        5.8366881442
  N        -3.1427328326        7.5365517516        7.8293936039
 Ga        -3.1449113055        5.6917992828        8.4896751242
  N        -3.1441268294        5.6923924863       10.4590323185
 Ga        -3.1452154296        7.5303564135       11.1190667159
  N        -3.1439293199        7.5115858833       13.1070731937