 DBCSR| Multiplication driver                                               BLAS
 DBCSR| Multrec recursion limit                                              512
 DBCSR| Multiplication stack size                                           1000
 DBCSR| Maximum elements for images                                    UNLIMITED
 DBCSR| Multiplicative factor virtual images                                   1
 DBCSR| Multiplication size stacks                                             3
 DBCSR| Number of 3D layers                                               SINGLE
 DBCSR| Use MPI memory allocation                                              T
 DBCSR| Use RMA algorithm                                                      F
 DBCSR| Use Communication thread                                               T
 DBCSR| Communication thread load                                             87


  **** **** ******  **  PROGRAM STARTED AT               2019-07-15 11:10:31.865
 ***** ** ***  *** **   PROGRAM STARTED ON        blg9243.int.ets1.calculquebec.
 **    ****   ******    PROGRAM STARTED BY                                   rzk
 ***** **    ** ** **   PROGRAM PROCESS ID                                 92604
  **** **  *******  **  PROGRAM STARTED IN /lustre04/scratch/rzk/rzk/GaN-carbene
                                           /443-adatoms-both-2x2/11-CH3O-HO-H2C-
                                           H-H/01-UseFinal-0902

 CP2K| version string:                    CP2K version 7.0 (Development Version)
 CP2K| source code revision number:                                    svn:18619
 CP2K| cp2kflags: libint fftw3 libxc parallel mpi3 scalapack mkl                
 CP2K| is freely available from                            https://www.cp2k.org/
 CP2K| Program compiled at                          Sun Apr  7 00:48:11 EDT 2019
 CP2K| Program compiled on                      beluga2.int.ets1.calculquebec.ca
 CP2K| Program compiled for                    Beluga-Linux-x86-64-intel-openmpi
 CP2K| Data directory path    /home/rzk/projects/def-rzk/group/cp2k/cp2k-mcgill/
 CP2K| Input file name                                                 start.inp
 
 GLOBAL| Force Environment number                                              1
 GLOBAL| Basis set file name                                        BASIS_MOLOPT
 GLOBAL| Potential file name                                      GTH_POTENTIALS
 GLOBAL| MM Potential file name                                     MM_POTENTIAL
 GLOBAL| Coordinate file name                                      __STD_INPUT__
 GLOBAL| Method name                                                        CP2K
 GLOBAL| Project name                                                       TEST
 GLOBAL| Preferred FFT library                                             FFTW3
 GLOBAL| Preferred diagonalization lib.                                       SL
 GLOBAL| Run type                                                        GEO_OPT
 GLOBAL| All-to-all communication in single precision                          F
 GLOBAL| FFTs using library dependent lengths                                  F
 GLOBAL| Global print level                                               MEDIUM
 GLOBAL| MPI I/O enabled                                                       T
 GLOBAL| Total number of message passing processes                            80
 GLOBAL| Number of threads for this process                                    1
 GLOBAL| This output is from process                                           0
 GLOBAL| CPU model name :  Intel(R) Xeon(R) Gold 6148 CPU @ 2.40GHz

 MEMORY| system memory details [Kb]
 MEMORY|                        rank 0           min           max       average
 MEMORY| MemTotal            196614300     196614300     196614300     196614300
 MEMORY| MemFree             180804068     180332836     180804068     180611118
 MEMORY| Buffers                     0             0             0             0
 MEMORY| Cached                2526252       2526252       3082648       2804450
 MEMORY| Slab                  1489492       1470644       1489492       1480068
 MEMORY| SReclaimable           187008        187008        192800        189904
 MEMORY| MemLikelyFree       183517328     183512800     183746052     183605472


 *** Fundamental physical constants (SI units) ***

 *** Literature: B. J. Mohr and B. N. Taylor,
 ***             CODATA recommended values of the fundamental physical
 ***             constants: 2006, Web Version 5.1
 ***             http://physics.nist.gov/constants

 Speed of light in vacuum [m/s]                             2.99792458000000E+08
 Magnetic constant or permeability of vacuum [N/A**2]       1.25663706143592E-06
 Electric constant or permittivity of vacuum [F/m]          8.85418781762039E-12
 Planck constant (h) [J*s]                                  6.62606896000000E-34
 Planck constant (h-bar) [J*s]                              1.05457162825177E-34
 Elementary charge [C]                                      1.60217648700000E-19
 Electron mass [kg]                                         9.10938215000000E-31
 Electron g factor [ ]                                     -2.00231930436220E+00
 Proton mass [kg]                                           1.67262163700000E-27
 Fine-structure constant                                    7.29735253760000E-03
 Rydberg constant [1/m]                                     1.09737315685270E+07
 Avogadro constant [1/mol]                                  6.02214179000000E+23
 Boltzmann constant [J/K]                                   1.38065040000000E-23
 Atomic mass unit [kg]                                      1.66053878200000E-27
 Bohr radius [m]                                            5.29177208590000E-11

 *** Conversion factors ***

 [u] -> [a.u.]                                              1.82288848426455E+03
 [Angstrom] -> [Bohr] = [a.u.]                              1.88972613288564E+00
 [a.u.] = [Bohr] -> [Angstrom]                              5.29177208590000E-01
 [a.u.] -> [s]                                              2.41888432650478E-17
 [a.u.] -> [fs]                                             2.41888432650478E-02
 [a.u.] -> [J]                                              4.35974393937059E-18
 [a.u.] -> [N]                                              8.23872205491840E-08
 [a.u.] -> [K]                                              3.15774647902944E+05
 [a.u.] -> [kJ/mol]                                         2.62549961709828E+03
 [a.u.] -> [kcal/mol]                                       6.27509468713739E+02
 [a.u.] -> [Pa]                                             2.94210107994716E+13
 [a.u.] -> [bar]                                            2.94210107994716E+08
 [a.u.] -> [atm]                                            2.90362800883016E+08
 [a.u.] -> [eV]                                             2.72113838565563E+01
 [a.u.] -> [Hz]                                             6.57968392072181E+15
 [a.u.] -> [1/cm] (wave numbers)                            2.19474631370540E+05
 [a.u./Bohr**2] -> [1/cm]                                   5.14048714338585E+03
 

 CELL_TOP| Volume [angstrom^3]:                                         4586.323
 CELL_TOP| Vector a [angstrom    12.864     0.000     0.000    |a| =      12.864
 CELL_TOP| Vector b [angstrom    -6.432    11.141     0.000    |b| =      12.864
 CELL_TOP| Vector c [angstrom     0.000     0.000    32.000    |c| =      32.000
 CELL_TOP| Angle (b,c), alpha [degree]:                                   90.000
 CELL_TOP| Angle (a,c), beta  [degree]:                                   90.000
 CELL_TOP| Angle (a,b), gamma [degree]:                                  120.000
 CELL_TOP| Numerically orthorhombic:                                          NO
 
 GENERATE|  Preliminary Number of Bonds generated:                             0
 GENERATE|  Achieved consistency in connectivity generation.

 CELL| Volume [angstrom^3]:                                             4586.323
 CELL| Vector a [angstrom]:      12.864     0.000     0.000    |a| =      12.864
 CELL| Vector b [angstrom]:      -6.432    11.141     0.000    |b| =      12.864
 CELL| Vector c [angstrom]:       0.000     0.000    32.000    |c| =      32.000
 CELL| Angle (b,c), alpha [degree]:                                       90.000
 CELL| Angle (a,c), beta  [degree]:                                       90.000
 CELL| Angle (a,b), gamma [degree]:                                      120.000
 CELL| Numerically orthorhombic:                                              NO

 CELL_REF| Volume [angstrom^3]:                                         4670.759
 CELL_REF| Vector a [angstrom    12.982     0.000     0.000    |a| =      12.982
 CELL_REF| Vector b [angstrom    -6.491    11.243     0.000    |b| =      12.982
 CELL_REF| Vector c [angstrom     0.000     0.000    32.000    |c| =      32.000
 CELL_REF| Angle (b,c), alpha [degree]:                                   90.000
 CELL_REF| Angle (a,c), beta  [degree]:                                   90.000
 CELL_REF| Angle (a,b), gamma [degree]:                                  120.000
 CELL_REF| Numerically orthorhombic:                                          NO

 *******************************************************************************
 *******************************************************************************
 **                                                                           **
 **     #####                         ##              ##                      **
 **    ##   ##            ##          ##              ##                      **
 **   ##     ##                       ##            ######                    **
 **   ##     ##  ##   ##  ##   #####  ##  ##   ####   ##    #####    #####    **
 **   ##     ##  ##   ##  ##  ##      ## ##   ##      ##   ##   ##  ##   ##   **
 **   ##  ## ##  ##   ##  ##  ##      ####     ###    ##   ######   ######    **
 **    ##  ###   ##   ##  ##  ##      ## ##      ##   ##   ##       ##        **
 **     #######   #####   ##   #####  ##  ##  ####    ##    #####   ##        **
 **           ##                                                    ##        **
 **                                                                           **
 **                                                ... make the atoms dance   **
 **                                                                           **
 **            Copyright (C) by CP2K developers group (2000 - 2018)           **
 **                                                                           **
 *******************************************************************************

 DFT| Spin unrestricted (spin-polarized) Kohn-Sham calculation               UKS
 DFT| Multiplicity                                                             1
 DFT| Number of spin states                                                    2
 DFT| Charge                                                                   0
 DFT| Self-interaction correction (SIC)                                       NO
 DFT| Cutoffs: density                                              1.000000E-10
 DFT|          gradient                                             1.000000E-10
 DFT|          tau                                                  1.000000E-10
 DFT|          cutoff_smoothing_range                               0.000000E+00
 DFT| XC density smoothing                                                  NONE
 DFT| XC derivatives                                                          PW
 FUNCTIONAL| ROUTINE=NEW
 FUNCTIONAL| PBE:
 FUNCTIONAL| J.P.Perdew, K.Burke, M.Ernzerhof, Phys. Rev. Letter, vol. 77, n 18,
 FUNCTIONAL|  pp. 3865-3868, (1996){spin polarized}                             
 vdW POTENTIAL|                                                   Pair Potential
 vdW POTENTIAL|          DFT-D3 (Version 3.1)
 vdW POTENTIAL|          Potential Form: S. Grimme et al, JCP 132: 154104 (2010)
 vdW POTENTIAL|          Zero Damping
 vdW POTENTIAL|          Cutoff Radius [Bohr]:                             18.90
 vdW POTENTIAL|          s6 Scaling Factor:                               1.0000
 vdW POTENTIAL|          sr6 Scaling Factor:                              1.2170
 vdW POTENTIAL|          s8 Scaling Factor:                               0.7220
 vdW POTENTIAL|          Cutoff for CN calculation:                   0.1000E-05

 QS| Method:                                                                 GPW
 QS| Density plane wave grid type                        NON-SPHERICAL FULLSPACE
 QS| Number of grid levels:                                                    5
 QS| Density cutoff [a.u.]:                                                600.0
 QS| Multi grid cutoff [a.u.]: 1) grid level                               600.0
 QS|                           2) grid level                               200.0
 QS|                           3) grid level                                66.7
 QS|                           4) grid level                                22.2
 QS|                           5) grid level                                 7.4
 QS| Grid level progression factor:                                          3.0
 QS| Relative density cutoff [a.u.]:                                        20.0
 QS| Consistent realspace mapping and integration 
 QS| Interaction thresholds: eps_pgf_orb:                                1.0E-07
 QS|                         eps_filter_matrix:                          0.0E+00
 QS|                         eps_core_charge:                            1.0E-16
 QS|                         eps_rho_gspace:                             1.0E-14
 QS|                         eps_rho_rspace:                             1.0E-14
 QS|                         eps_gvg_rspace:                             1.0E-07
 QS|                         eps_ppl:                                    1.0E-02
 QS|                         eps_ppnl:                                   1.0E-09


 ATOMIC KIND INFORMATION

  1. Atomic kind: N                                     Number of atoms:     100

     Orbital Basis Set                                        DZVP-MOLOPT-SR-GTH

       Number of orbital shell sets:                                           1
       Number of orbital shells:                                               5
       Number of primitive Cartesian functions:                                5
       Number of Cartesian basis functions:                                   14
       Number of spherical basis functions:                                   13
       Norm type:                                                              2

       Normalised Cartesian orbitals:

                        Set   Shell   Orbital            Exponent    Coefficient

                          1       1    2s                7.341988       0.360561
                                                         2.542637       0.139177
                                                         0.888575      -0.289383
                                                         0.333802      -0.182244
                                                         0.112012      -0.019197

                          1       2    3s                7.341988       0.282000
                                                         2.542637       0.177875
                                                         0.888575      -0.278381
                                                         0.333802       0.008577
                                                         0.112012       0.154176

                          1       3    3px               7.341988      -1.188719
                                                         2.542637      -0.973969
                                                         0.888575      -0.501079
                                                         0.333802      -0.144894
                                                         0.112012      -0.013986
                          1       3    3py               7.341988      -1.188719
                                                         2.542637      -0.973969
                                                         0.888575      -0.501079
                                                         0.333802      -0.144894
                                                         0.112012      -0.013986
                          1       3    3pz               7.341988      -1.188719
                                                         2.542637      -0.973969
                                                         0.888575      -0.501079
                                                         0.333802      -0.144894
                                                         0.112012      -0.013986

                          1       4    4px               7.341988      -0.094798
                                                         2.542637       0.050069
                                                         0.888575      -0.114797
                                                         0.333802       0.144793
                                                         0.112012       0.066710
                          1       4    4py               7.341988      -0.094798
                                                         2.542637       0.050069
                                                         0.888575      -0.114797
                                                         0.333802       0.144793
                                                         0.112012       0.066710
                          1       4    4pz               7.341988      -0.094798
                                                         2.542637       0.050069
                                                         0.888575      -0.114797
                                                         0.333802       0.144793
                                                         0.112012       0.066710

                          1       5    4dx2              7.341988       1.354688
                                                         2.542637       0.690378
                                                         0.888575       0.855359
                                                         0.333802       0.091746
                                                         0.112012       0.001253
                          1       5    4dxy              7.341988       2.346389
                                                         2.542637       1.195770
                                                         0.888575       1.481524
                                                         0.333802       0.158910
                                                         0.112012       0.002169
                          1       5    4dxz              7.341988       2.346389
                                                         2.542637       1.195770
                                                         0.888575       1.481524
                                                         0.333802       0.158910
                                                         0.112012       0.002169
                          1       5    4dy2              7.341988       1.354688
                                                         2.542637       0.690378
                                                         0.888575       0.855359
                                                         0.333802       0.091746
                                                         0.112012       0.001253
                          1       5    4dyz              7.341988       2.346389
                                                         2.542637       1.195770
                                                         0.888575       1.481524
                                                         0.333802       0.158910
                                                         0.112012       0.002169
                          1       5    4dz2              7.341988       1.354688
                                                         2.542637       0.690378
                                                         0.888575       0.855359
                                                         0.333802       0.091746
                                                         0.112012       0.001253

     GTH Potential information for                                    GTH-PBE-q5

       Description:                       Goedecker-Teter-Hutter pseudopotential
                                           Goedecker et al., PRB 54, 1703 (1996)
                                          Hartwigsen et al., PRB 58, 3641 (1998)
                                                      Krack, TCA 114, 145 (2005)

       Gaussian exponent of the core charge distribution:               6.208322
       Electronic configuration (s p d ...):                               2   3

       Parameters of the local part of the GTH pseudopotential:

                          rloc        C1          C2          C3          C4
                        0.283791  -12.415226    1.868096

       Parameters of the non-local part of the GTH pseudopotential:

                   l      r(l)      h(i,j,l)

                   0    0.255405   13.630263
                   1    0.245495

  2. Atomic kind: Ga                                    Number of atoms:     100

     Orbital Basis Set                                        DZVP-MOLOPT-SR-GTH

       Number of orbital shell sets:                                           1
       Number of orbital shells:                                               7
       Number of primitive Cartesian functions:                                6
       Number of Cartesian basis functions:                                   30
       Number of spherical basis functions:                                   25
       Norm type:                                                              2

       Normalised Cartesian orbitals:

                        Set   Shell   Orbital            Exponent    Coefficient

                          1       1    2s                7.066654       0.013136
                                                         3.428369      -0.094392
                                                         1.430064       0.265435
                                                         0.571611       0.056465
                                                         0.232197      -0.192187
                                                         0.076562      -0.044987

                          1       2    3s                7.066654      -0.098564
                                                         3.428369       0.010390
                                                         1.430064       0.351249
                                                         0.571611       0.182615
                                                         0.232197      -0.425358
                                                         0.076562       0.190349

                          1       3    3px               7.066654       0.002364
                                                         3.428369       0.019222
                                                         1.430064       0.250132
                                                         0.571611      -0.058486
                                                         0.232197      -0.159451
                                                         0.076562      -0.020696
                          1       3    3py               7.066654       0.002364
                                                         3.428369       0.019222
                                                         1.430064       0.250132
                                                         0.571611      -0.058486
                                                         0.232197      -0.159451
                                                         0.076562      -0.020696
                          1       3    3pz               7.066654       0.002364
                                                         3.428369       0.019222
                                                         1.430064       0.250132
                                                         0.571611      -0.058486
                                                         0.232197      -0.159451
                                                         0.076562      -0.020696

                          1       4    4px               7.066654       0.492448
                                                         3.428369      -0.614736
                                                         1.430064      -0.191654
                                                         0.571611       0.037801
                                                         0.232197       0.302315
                                                         0.076562      -0.071336
                          1       4    4py               7.066654       0.492448
                                                         3.428369      -0.614736
                                                         1.430064      -0.191654
                                                         0.571611       0.037801
                                                         0.232197       0.302315
                                                         0.076562      -0.071336
                          1       4    4pz               7.066654       0.492448
                                                         3.428369      -0.614736
                                                         1.430064      -0.191654
                                                         0.571611       0.037801
                                                         0.232197       0.302315
                                                         0.076562      -0.071336

                          1       5    4dx2              7.066654     -15.264855
                                                         3.428369      -5.345726
                                                         1.430064      -1.022732
                                                         0.571611      -0.123148
                                                         0.232197      -0.006983
                                                         0.076562      -0.000022
                          1       5    4dxy              7.066654     -26.439504
                                                         3.428369      -9.259069
                                                         1.430064      -1.771423
                                                         0.571611      -0.213299
                                                         0.232197      -0.012094
                                                         0.076562      -0.000037
                          1       5    4dxz              7.066654     -26.439504
                                                         3.428369      -9.259069
                                                         1.430064      -1.771423
                                                         0.571611      -0.213299
                                                         0.232197      -0.012094
                                                         0.076562      -0.000037
                          1       5    4dy2              7.066654     -15.264855
                                                         3.428369      -5.345726
                                                         1.430064      -1.022732
                                                         0.571611      -0.123148
                                                         0.232197      -0.006983
                                                         0.076562      -0.000022
                          1       5    4dyz              7.066654     -26.439504
                                                         3.428369      -9.259069
                                                         1.430064      -1.771423
                                                         0.571611      -0.213299
                                                         0.232197      -0.012094
                                                         0.076562      -0.000037
                          1       5    4dz2              7.066654     -15.264855
                                                         3.428369      -5.345726
                                                         1.430064      -1.022732
                                                         0.571611      -0.123148
                                                         0.232197      -0.006983
                                                         0.076562      -0.000022

                          1       6    5dx2              7.066654      -5.739265
                                                         3.428369      -2.129289
                                                         1.430064      -0.700423
                                                         0.571611       0.161606
                                                         0.232197       0.043513
                                                         0.076562       0.011205
                          1       6    5dxy              7.066654      -9.940698
                                                         3.428369      -3.688037
                                                         1.430064      -1.213168
                                                         0.571611       0.279909
                                                         0.232197       0.075368
                                                         0.076562       0.019407
                          1       6    5dxz              7.066654      -9.940698
                                                         3.428369      -3.688037
                                                         1.430064      -1.213168
                                                         0.571611       0.279909
                                                         0.232197       0.075368
                                                         0.076562       0.019407
                          1       6    5dy2              7.066654      -5.739265
                                                         3.428369      -2.129289
                                                         1.430064      -0.700423
                                                         0.571611       0.161606
                                                         0.232197       0.043513
                                                         0.076562       0.011205
                          1       6    5dyz              7.066654      -9.940698
                                                         3.428369      -3.688037
                                                         1.430064      -1.213168
                                                         0.571611       0.279909
                                                         0.232197       0.075368
                                                         0.076562       0.019407
                          1       6    5dz2              7.066654      -5.739265
                                                         3.428369      -2.129289
                                                         1.430064      -0.700423
                                                         0.571611       0.161606
                                                         0.232197       0.043513
                                                         0.076562       0.011205

                          1       7    5fx3              7.066654       0.705879
                                                         3.428369      -0.273976
                                                         1.430064       0.113667
                                                         0.571611       0.132480
                                                         0.232197       0.012437
                                                         0.076562       0.003241
                          1       7    5fx2y             7.066654       1.578393
                                                         3.428369      -0.612629
                                                         1.430064       0.254167
                                                         0.571611       0.296234
                                                         0.232197       0.027811
                                                         0.076562       0.007246
                          1       7    5fx2z             7.066654       1.578393
                                                         3.428369      -0.612629
                                                         1.430064       0.254167
                                                         0.571611       0.296234
                                                         0.232197       0.027811
                                                         0.076562       0.007246
                          1       7    5fxy2             7.066654       1.578393
                                                         3.428369      -0.612629
                                                         1.430064       0.254167
                                                         0.571611       0.296234
                                                         0.232197       0.027811
                                                         0.076562       0.007246
                          1       7    5fxyz             7.066654       2.733856
                                                         3.428369      -1.061105
                                                         1.430064       0.440230
                                                         0.571611       0.513092
                                                         0.232197       0.048170
                                                         0.076562       0.012551
                          1       7    5fxz2             7.066654       1.578393
                                                         3.428369      -0.612629
                                                         1.430064       0.254167
                                                         0.571611       0.296234
                                                         0.232197       0.027811
                                                         0.076562       0.007246
                          1       7    5fy3              7.066654       0.705879
                                                         3.428369      -0.273976
                                                         1.430064       0.113667
                                                         0.571611       0.132480
                                                         0.232197       0.012437
                                                         0.076562       0.003241
                          1       7    5fy2z             7.066654       1.578393
                                                         3.428369      -0.612629
                                                         1.430064       0.254167
                                                         0.571611       0.296234
                                                         0.232197       0.027811
                                                         0.076562       0.007246
                          1       7    5fyz2             7.066654       1.578393
                                                         3.428369      -0.612629
                                                         1.430064       0.254167
                                                         0.571611       0.296234
                                                         0.232197       0.027811
                                                         0.076562       0.007246
                          1       7    5fz3              7.066654       0.705879
                                                         3.428369      -0.273976
                                                         1.430064       0.113667
                                                         0.571611       0.132480
                                                         0.232197       0.012437
                                                         0.076562       0.003241

     GTH Potential information for                                   GTH-PBE-q13

       Description:                       Goedecker-Teter-Hutter pseudopotential
                                           Goedecker et al., PRB 54, 1703 (1996)
                                          Hartwigsen et al., PRB 58, 3641 (1998)
                                                      Krack, TCA 114, 145 (2005)

       Gaussian exponent of the core charge distribution:               2.082466
       Electronic configuration (s p d ...):                           2   1  10

       Parameters of the local part of the GTH pseudopotential:

                          rloc        C1          C2          C3          C4
                        0.490000

       Parameters of the non-local part of the GTH pseudopotential:

                   l      r(l)      h(i,j,l)

                   0    0.416777   10.475690   -4.921768    0.870706
                                   -4.921768    7.770178   -2.248152
                                    0.870706   -2.248152    1.784415
                   1    0.569627    1.777985    0.195860
                                    0.195860   -0.231744
                   2    0.238126  -16.248680

  3. Atomic kind: O                                     Number of atoms:       2

     Orbital Basis Set                                     DZVP-MOLOPT-SR-GTH-q6

       Number of orbital shell sets:                                           1
       Number of orbital shells:                                               5
       Number of primitive Cartesian functions:                                5
       Number of Cartesian basis functions:                                   14
       Number of spherical basis functions:                                   13
       Norm type:                                                              2

       Normalised Cartesian orbitals:

                        Set   Shell   Orbital            Exponent    Coefficient

                          1       1    2s               10.389228       0.396646
                                                         3.849621       0.208811
                                                         1.388401      -0.301641
                                                         0.496955      -0.274061
                                                         0.162492      -0.033677

                          1       2    3s               10.389228       0.303673
                                                         3.849621       0.240943
                                                         1.388401      -0.313066
                                                         0.496955      -0.043055
                                                         0.162492       0.213991

                          1       3    3px              10.389228      -1.530415
                                                         3.849621      -1.371928
                                                         1.388401      -0.761951
                                                         0.496955      -0.253695
                                                         0.162492      -0.035541
                          1       3    3py              10.389228      -1.530415
                                                         3.849621      -1.371928
                                                         1.388401      -0.761951
                                                         0.496955      -0.253695
                                                         0.162492      -0.035541
                          1       3    3pz              10.389228      -1.530415
                                                         3.849621      -1.371928
                                                         1.388401      -0.761951
                                                         0.496955      -0.253695
                                                         0.162492      -0.035541

                          1       4    4px              10.389228      -0.565392
                                                         3.849621      -0.038231
                                                         1.388401      -0.382373
                                                         0.496955       0.179070
                                                         0.162492       0.122714
                          1       4    4py              10.389228      -0.565392
                                                         3.849621      -0.038231
                                                         1.388401      -0.382373
                                                         0.496955       0.179070
                                                         0.162492       0.122714
                          1       4    4pz              10.389228      -0.565392
                                                         3.849621      -0.038231
                                                         1.388401      -0.382373
                                                         0.496955       0.179070
                                                         0.162492       0.122714

                          1       5    4dx2             10.389228       1.867377
                                                         3.849621       0.670994
                                                         1.388401       1.353441
                                                         0.496955       0.273538
                                                         0.162492       0.006620
                          1       5    4dxy             10.389228       3.234392
                                                         3.849621       1.162195
                                                         1.388401       2.344229
                                                         0.496955       0.473781
                                                         0.162492       0.011466
                          1       5    4dxz             10.389228       3.234392
                                                         3.849621       1.162195
                                                         1.388401       2.344229
                                                         0.496955       0.473781
                                                         0.162492       0.011466
                          1       5    4dy2             10.389228       1.867377
                                                         3.849621       0.670994
                                                         1.388401       1.353441
                                                         0.496955       0.273538
                                                         0.162492       0.006620
                          1       5    4dyz             10.389228       3.234392
                                                         3.849621       1.162195
                                                         1.388401       2.344229
                                                         0.496955       0.473781
                                                         0.162492       0.011466
                          1       5    4dz2             10.389228       1.867377
                                                         3.849621       0.670994
                                                         1.388401       1.353441
                                                         0.496955       0.273538
                                                         0.162492       0.006620

     GTH Potential information for                                    GTH-PBE-q6

       Description:                       Goedecker-Teter-Hutter pseudopotential
                                           Goedecker et al., PRB 54, 1703 (1996)
                                          Hartwigsen et al., PRB 58, 3641 (1998)
                                                      Krack, TCA 114, 145 (2005)

       Gaussian exponent of the core charge distribution:               8.360253
       Electronic configuration (s p d ...):                               2   4

       Parameters of the local part of the GTH pseudopotential:

                          rloc        C1          C2          C3          C4
                        0.244554  -16.667215    2.487311

       Parameters of the non-local part of the GTH pseudopotential:

                   l      r(l)      h(i,j,l)

                   0    0.220956   18.337458
                   1    0.211332

  4. Atomic kind: H                                     Number of atoms:       8

     Orbital Basis Set                                     DZVP-MOLOPT-SR-GTH-q1

       Number of orbital shell sets:                                           1
       Number of orbital shells:                                               3
       Number of primitive Cartesian functions:                                5
       Number of Cartesian basis functions:                                    5
       Number of spherical basis functions:                                    5
       Norm type:                                                              2

       Normalised Cartesian orbitals:

                        Set   Shell   Orbital            Exponent    Coefficient

                          1       1    2s               10.068468      -0.133023
                                                         2.680223      -0.177618
                                                         0.791502      -0.258419
                                                         0.239116      -0.107525
                                                         0.082193      -0.014019

                          1       2    3s               10.068468       0.344673
                                                         2.680223       1.819821
                                                         0.791502      -0.999069
                                                         0.239116       0.017430
                                                         0.082193       0.082660

                          1       3    3px              10.068468       0.155326
                                                         2.680223       0.367157
                                                         0.791502       0.311480
                                                         0.239116       0.080105
                                                         0.082193       0.033440
                          1       3    3py              10.068468       0.155326
                                                         2.680223       0.367157
                                                         0.791502       0.311480
                                                         0.239116       0.080105
                                                         0.082193       0.033440
                          1       3    3pz              10.068468       0.155326
                                                         2.680223       0.367157
                                                         0.791502       0.311480
                                                         0.239116       0.080105
                                                         0.082193       0.033440

     GTH Potential information for                                    GTH-PBE-q1

       Description:                       Goedecker-Teter-Hutter pseudopotential
                                           Goedecker et al., PRB 54, 1703 (1996)
                                          Hartwigsen et al., PRB 58, 3641 (1998)
                                                      Krack, TCA 114, 145 (2005)

       Gaussian exponent of the core charge distribution:              12.500000
       Electronic configuration (s p d ...):                                   1

       Parameters of the local part of the GTH pseudopotential:

                          rloc        C1          C2          C3          C4
                        0.200000   -4.178900    0.724463

  5. Atomic kind: C                                     Number of atoms:       2

     Orbital Basis Set                                     DZVP-MOLOPT-SR-GTH-q4

       Number of orbital shell sets:                                           1
       Number of orbital shells:                                               5
       Number of primitive Cartesian functions:                                5
       Number of Cartesian basis functions:                                   14
       Number of spherical basis functions:                                   13
       Norm type:                                                              2

       Normalised Cartesian orbitals:

                        Set   Shell   Orbital            Exponent    Coefficient

                          1       1    2s                5.605331       0.322515
                                                         2.113016       0.213043
                                                         0.769911      -0.209686
                                                         0.348157      -0.219794
                                                         0.128212      -0.022789

                          1       2    3s                5.605331       0.552234
                                                         2.113016       0.082072
                                                         0.769911       0.007843
                                                         0.348157       0.136893
                                                         0.128212       0.074283

                          1       3    3px               5.605331      -0.703879
                                                         2.113016      -0.642521
                                                         0.769911      -0.374851
                                                         0.348157      -0.139743
                                                         0.128212      -0.027849
                          1       3    3py               5.605331      -0.703879
                                                         2.113016      -0.642521
                                                         0.769911      -0.374851
                                                         0.348157      -0.139743
                                                         0.128212      -0.027849
                          1       3    3pz               5.605331      -0.703879
                                                         2.113016      -0.642521
                                                         0.769911      -0.374851
                                                         0.348157      -0.139743
                                                         0.128212      -0.027849

                          1       4    4px               5.605331      -0.480376
                                                         2.113016      -0.552894
                                                         0.769911      -0.316145
                                                         0.348157       0.210505
                                                         0.128212       0.076095
                          1       4    4py               5.605331      -0.480376
                                                         2.113016      -0.552894
                                                         0.769911      -0.316145
                                                         0.348157       0.210505
                                                         0.128212       0.076095
                          1       4    4pz               5.605331      -0.480376
                                                         2.113016      -0.552894
                                                         0.769911      -0.316145
                                                         0.348157       0.210505
                                                         0.128212       0.076095

                          1       5    4dx2              5.605331       0.640026
                                                         2.113016       0.274300
                                                         0.769911       0.446711
                                                         0.348157       0.028674
                                                         0.128212       0.029790
                          1       5    4dxy              5.605331       1.108557
                                                         2.113016       0.475102
                                                         0.769911       0.773726
                                                         0.348157       0.049666
                                                         0.128212       0.051599
                          1       5    4dxz              5.605331       1.108557
                                                         2.113016       0.475102
                                                         0.769911       0.773726
                                                         0.348157       0.049666
                                                         0.128212       0.051599
                          1       5    4dy2              5.605331       0.640026
                                                         2.113016       0.274300
                                                         0.769911       0.446711
                                                         0.348157       0.028674
                                                         0.128212       0.029790
                          1       5    4dyz              5.605331       1.108557
                                                         2.113016       0.475102
                                                         0.769911       0.773726
                                                         0.348157       0.049666
                                                         0.128212       0.051599
                          1       5    4dz2              5.605331       0.640026
                                                         2.113016       0.274300
                                                         0.769911       0.446711
                                                         0.348157       0.028674
                                                         0.128212       0.029790

     GTH Potential information for                                    GTH-PBE-q4

       Description:                       Goedecker-Teter-Hutter pseudopotential
                                           Goedecker et al., PRB 54, 1703 (1996)
                                          Hartwigsen et al., PRB 58, 3641 (1998)
                                                      Krack, TCA 114, 145 (2005)

       Gaussian exponent of the core charge distribution:               4.364419
       Electronic configuration (s p d ...):                               2   2

       Parameters of the local part of the GTH pseudopotential:

                          rloc        C1          C2          C3          C4
                        0.338471   -8.803674    1.339211

       Parameters of the non-local part of the GTH pseudopotential:

                   l      r(l)      h(i,j,l)

                   0    0.302576    9.622487
                   1    0.291507


 MOLECULE KIND INFORMATION


 All atoms are their own molecule, skipping detailed information


 TOTAL NUMBERS AND MAXIMUM NUMBERS

  Total number of            - Atomic kinds:                                   5
                             - Atoms:                                        212
                             - Shell sets:                                   212
                             - Shells:                                      1244
                             - Primitive Cartesian functions:               1160
                             - Cartesian basis functions:                   4496
                             - Spherical basis functions:                   3892

  Maximum angular momentum of- Orbital basis functions:                        3
                             - Local part of the GTH pseudopotential:          2
                             - Non-local part of the GTH pseudopotential:      4


 MODULE QUICKSTEP:  ATOMIC COORDINATES IN angstrom

  Atom  Kind  Element       X           Y           Z          Z(eff)       Mass

       1     1 N    7    0.091729    2.110453    2.571545      5.00      14.0067
       2     2 Ga  31    0.088252    0.160574    3.017564     13.00      69.7230
       3     1 N    7    0.091009    0.131532    5.113559      5.00      14.0067
       4     2 Ga  31    0.063898    1.952416    5.875416     13.00      69.7230
       5     1 N    7    0.072988    1.970933    7.857069      5.00      14.0067
       6     2 Ga  31    0.066093    0.116695    8.492353     13.00      69.7230
       7     1 N    7    0.071172    0.120003   10.461653      5.00      14.0067
       8     2 Ga  31    0.069181    1.958501   11.123369     13.00      69.7230
       9     1 N    7    0.071814    1.940688   13.109284      5.00      14.0067
      10     2 Ga  31    0.073479    0.121792   13.925708     13.00      69.7230
      11     1 N    7    0.072883    0.122342   16.112410      5.00      14.0067
      12     2 Ga  31    0.072666    2.174205   16.535518     13.00      69.7230
      13     2 Ga  31    0.108350    3.826755    1.435209     13.00      69.7230
      14     1 N    7   -1.395120    4.692613    2.528117      5.00      14.0067
      15     2 Ga  31   -1.606858    2.839192    3.312823     13.00      69.7230
      16     1 N    7   -1.534494    2.906504    5.287884      5.00      14.0067
      17     2 Ga  31   -1.568065    4.771749    5.852294     13.00      69.7230
      18     1 N    7   -1.545020    4.769679    7.840681      5.00      14.0067
      19     2 Ga  31   -1.532491    2.911818    8.490076     13.00      69.7230
      20     1 N    7   -1.525449    2.914019   10.476003      5.00      14.0067
      21     2 Ga  31   -1.552336    4.772838   11.121358     13.00      69.7230
      22     1 N    7   -1.567752    4.782639   13.108220      5.00      14.0067
      23     2 Ga  31   -1.525498    2.912723   13.670007     13.00      69.7230
      24     1 N    7   -1.550741    2.896700   15.625363      5.00      14.0067
      25     2 Ga  31   -1.370660    4.668547   16.535560     13.00      69.7230
      26     1 N    7    0.066842    3.838193   17.681190      5.00      14.0067
      27     1 N    7   -3.134614    7.663538    2.559042      5.00      14.0067
      28     2 Ga  31   -3.121508    5.675296    2.882070     13.00      69.7230
      29     1 N    7   -3.138327    5.687282    5.047951      5.00      14.0067
      30     2 Ga  31   -3.148809    7.511584    5.839399     13.00      69.7230
      31     1 N    7   -3.142671    7.536381    7.829879      5.00      14.0067
      32     2 Ga  31   -3.144971    5.691146    8.490361     13.00      69.7230
      33     1 N    7   -3.144102    5.692267   10.458949      5.00      14.0067
      34     2 Ga  31   -3.145200    7.529979   11.120482     13.00      69.7230
      35     1 N    7   -3.143938    7.512054   13.107276      5.00      14.0067
      36     2 Ga  31   -3.143930    5.692482   13.926376     13.00      69.7230
      37     1 N    7   -3.143720    5.692244   16.111561      5.00      14.0067
      38     2 Ga  31   -3.143862    7.740660   16.537184     13.00      69.7230
      39     2 Ga  31   -3.177443    9.397167    1.424639     13.00      69.7230
      40     1 N    7   -4.640586   10.291881    2.586615      5.00      14.0067
      41     2 Ga  31   -4.855865    8.432750    3.306112     13.00      69.7230
      42     1 N    7   -4.749265    8.479775    5.277607      5.00      14.0067
      43     2 Ga  31   -4.779273   10.340701    5.870964     13.00      69.7230
      44     1 N    7   -4.756587   10.337973    7.851736      5.00      14.0067
      45     2 Ga  31   -4.746716    8.476304    8.479671     13.00      69.7230
      46     1 N    7   -4.740977    8.481018   10.468010      5.00      14.0067
      47     2 Ga  31   -4.770724   10.338893   11.122200     13.00      69.7230
      48     1 N    7   -4.784648   10.351364   13.108252      5.00      14.0067
      49     2 Ga  31   -4.741647    8.482849   13.671067     13.00      69.7230
      50     1 N    7   -4.768523    8.469620   15.625952      5.00      14.0067
      51     2 Ga  31   -4.581806   10.236736   16.537006     13.00      69.7230
      52     1 N    7   -3.144090    9.400331   17.682823      5.00      14.0067
      53     1 N    7    3.277897    1.972071    2.659726      5.00      14.0067
      54     2 Ga  31    3.289827    0.137387    3.390996     13.00      69.7230
      55     1 N    7    3.289810    0.135930    5.315855      5.00      14.0067
      56     2 Ga  31    3.286782    1.974859    5.981620     13.00      69.7230
      57     1 N    7    3.289908    1.976384    7.927802      5.00      14.0067
      58     2 Ga  31    3.287315    0.103334    8.512267     13.00      69.7230
      59     1 N    7    3.288420    0.107373   10.489951      5.00      14.0067
      60     2 Ga  31    3.289216    1.978466   11.087004     13.00      69.7230
      61     1 N    7    3.288792    1.978373   13.049068      5.00      14.0067
      62     2 Ga  31    3.288545    0.106479   13.671821     13.00      69.7230
      63     1 N    7    3.288546    0.140390   15.625992      5.00      14.0067
      64     2 Ga  31    3.289012    1.978906   15.900791     13.00      69.7230
      65     1 N    7    1.565081    4.693623    2.617749      5.00      14.0067
      66     2 Ga  31    1.689025    2.886267    3.390221     13.00      69.7230
      67     1 N    7    1.700195    2.894995    5.321833      5.00      14.0067
      68     2 Ga  31    1.704394    4.777044    5.881111     13.00      69.7230
      69     1 N    7    1.687504    4.766933    7.856234      5.00      14.0067
      70     2 Ga  31    1.666232    2.912927    8.511165     13.00      69.7230
      71     1 N    7    1.669501    2.913494   10.489367      5.00      14.0067
      72     2 Ga  31    1.696397    4.776155   11.123044     13.00      69.7230
      73     1 N    7    1.713190    4.783577   13.108751      5.00      14.0067
      74     2 Ga  31    1.667846    2.914328   13.671697     13.00      69.7230
      75     1 N    7    1.696555    2.898135   15.625948      5.00      14.0067
      76     2 Ga  31    1.511261    4.665703   16.536215     13.00      69.7230
      77     1 N    7    0.078898    7.548814    2.702236      5.00      14.0067
      78     2 Ga  31    0.075435    5.711438    3.381419     13.00      69.7230
      79     1 N    7    0.071334    5.706733    5.310708      5.00      14.0067
      80     2 Ga  31    0.098347    7.562710    5.922315     13.00      69.7230
      81     1 N    7    0.077634    7.553333    7.886325      5.00      14.0067
      82     2 Ga  31    0.068508    5.684773    8.490858     13.00      69.7230
      83     1 N    7    0.071483    5.680422   10.474945      5.00      14.0067
      84     2 Ga  31    0.073718    7.549276   11.076509     13.00      69.7230
      85     1 N    7    0.072927    7.549128   13.039921      5.00      14.0067
      86     2 Ga  31    0.072680    5.679817   13.671350     13.00      69.7230
      87     1 N    7    0.074276    5.711004   15.626420      5.00      14.0067
      88     2 Ga  31    0.069809    7.547948   15.907787     13.00      69.7230
      89     1 N    7   -1.648972   10.282894    2.570504      5.00      14.0067
      90     2 Ga  31   -1.510033    8.472883    3.356432     13.00      69.7230
      91     1 N    7   -1.522706    8.474669    5.289636      5.00      14.0067
      92     2 Ga  31   -1.504226   10.351534    5.879275     13.00      69.7230
      93     1 N    7   -1.531857   10.335741    7.856515      5.00      14.0067
      94     2 Ga  31   -1.545515    8.477025    8.491097     13.00      69.7230
      95     1 N    7   -1.546857    8.481104   10.474849      5.00      14.0067
      96     2 Ga  31   -1.516897   10.340565   11.123698     13.00      69.7230
      97     1 N    7   -1.502190   10.351998   13.109209      5.00      14.0067
      98     2 Ga  31   -1.546407    8.483266   13.671523     13.00      69.7230
      99     1 N    7   -1.518937    8.469598   15.626405      5.00      14.0067
     100     2 Ga  31   -1.705861   10.236715   16.537313     13.00      69.7230
     101     1 N    7    6.482254    2.109590    2.561906      5.00      14.0067
     102     2 Ga  31    6.521893    0.112739    2.957378     13.00      69.7230
     103     1 N    7    6.480513    0.134460    5.112737      5.00      14.0067
     104     2 Ga  31    6.515017    1.948413    5.869472     13.00      69.7230
     105     1 N    7    6.505192    1.972747    7.852605      5.00      14.0067
     106     2 Ga  31    6.511552    0.117845    8.491188     13.00      69.7230
     107     1 N    7    6.505992    0.120547   10.460689      5.00      14.0067
     108     2 Ga  31    6.508653    1.959199   11.122921     13.00      69.7230
     109     1 N    7    6.505770    1.940631   13.108807      5.00      14.0067
     110     2 Ga  31    6.504029    0.122339   13.926894     13.00      69.7230
     111     1 N    7    6.504149    0.122481   16.112818      5.00      14.0067
     112     2 Ga  31    6.504484    2.174649   16.535526     13.00      69.7230
     113     2 Ga  31    6.478324    3.859293    1.566950     13.00      69.7230
     114     1 N    7    5.010269    4.699454    2.641408      5.00      14.0067
     115     2 Ga  31    4.857943    2.869572    3.391648     13.00      69.7230
     116     1 N    7    4.878464    2.893593    5.314057      5.00      14.0067
     117     2 Ga  31    4.882057    4.780269    5.871022     13.00      69.7230
     118     1 N    7    4.889614    4.765317    7.849769      5.00      14.0067
     119     2 Ga  31    4.912633    2.914268    8.510050     13.00      69.7230
     120     1 N    7    4.908704    2.913795   10.488303      5.00      14.0067
     121     2 Ga  31    4.883847    4.777394   11.120035     13.00      69.7230
     122     1 N    7    4.865276    4.783800   13.106644      5.00      14.0067
     123     2 Ga  31    4.909806    2.914709   13.670819     13.00      69.7230
     124     1 N    7    4.881027    2.898503   15.625112      5.00      14.0067
     125     2 Ga  31    5.066130    4.665782   16.536060     13.00      69.7230
     126     1 N    7    6.510181    3.838547   17.681049      5.00      14.0067
     127     1 N    7    3.283508    7.526422    2.582801      5.00      14.0067
     128     1 N    7    3.290198    5.672591    5.112410      5.00      14.0067
     129     2 Ga  31    3.293081    7.541641    5.814300     13.00      69.7230
     130     1 N    7    3.288132    7.541946    7.815306      5.00      14.0067
     131     2 Ga  31    3.290414    5.701000    8.490509     13.00      69.7230
     132     1 N    7    3.289192    5.694475   10.458970      5.00      14.0067
     133     2 Ga  31    3.290170    7.532198   11.120792     13.00      69.7230
     134     1 N    7    3.289028    7.511568   13.108811      5.00      14.0067
     135     2 Ga  31    3.289498    5.690798   13.926358     13.00      69.7230
     136     1 N    7    3.288716    5.691451   16.112784      5.00      14.0067
     137     2 Ga  31    3.288695    7.732865   16.521453     13.00      69.7230
     138     2 Ga  31    4.144156   10.891881    0.673726     13.00      69.7230
     139     1 N    7    1.714522   10.346661    2.560103      5.00      14.0067
     140     2 Ga  31    1.702091    8.565343    3.207669     13.00      69.7230
     141     1 N    7    1.677008    8.466002    5.202913      5.00      14.0067
     142     2 Ga  31    1.656117   10.338648    5.816786     13.00      69.7230
     143     1 N    7    1.668639   10.331847    7.822647      5.00      14.0067
     144     2 Ga  31    1.696024    8.485711    8.485959     13.00      69.7230
     145     1 N    7    1.693264    8.482920   10.472686      5.00      14.0067
     146     2 Ga  31    1.667806   10.343311   11.118375     13.00      69.7230
     147     1 N    7    1.648702   10.352859   13.107715      5.00      14.0067
     148     2 Ga  31    1.691255    8.483626   13.668538     13.00      69.7230
     149     1 N    7    1.661223    8.466598   15.626114      5.00      14.0067
     150     2 Ga  31    1.839280   10.243014   16.521751     13.00      69.7230
     151     1 N    7    3.288774    9.406143   17.641438      5.00      14.0067
     152     1 N    7    9.746572    1.937918    2.638634      5.00      14.0067
     153     2 Ga  31    9.668295    0.145194    3.295373     13.00      69.7230
     154     1 N    7    9.718327    0.120023    5.281623      5.00      14.0067
     155     2 Ga  31    9.723792    1.967349    5.905546     13.00      69.7230
     156     1 N    7    9.719434    1.977902    7.883008      5.00      14.0067
     157     2 Ga  31    9.719547    0.106060    8.469134     13.00      69.7230
     158     1 N    7    9.720331    0.107950   10.464206      5.00      14.0067
     159     2 Ga  31    9.720673    1.976305   11.072734     13.00      69.7230
     160     1 N    7    9.720709    1.977509   13.037941      5.00      14.0067
     161     2 Ga  31    9.721103    0.109616   13.668426     13.00      69.7230
     162     1 N    7    9.720845    0.144634   15.626197      5.00      14.0067
     163     2 Ga  31    9.720810    1.982244   15.907254     13.00      69.7230
     164     1 N    7    8.002096    4.704062    2.562219      5.00      14.0067
     165     2 Ga  31    8.229454    2.827672    3.299713     13.00      69.7230
     166     1 N    7    8.113040    2.901876    5.269097      5.00      14.0067
     167     2 Ga  31    8.141115    4.773728    5.833996     13.00      69.7230
     168     1 N    7    8.124250    4.768370    7.829069      5.00      14.0067
     169     2 Ga  31    8.108977    2.914545    8.488462     13.00      69.7230
     170     1 N    7    8.102650    2.914709   10.474584      5.00      14.0067
     171     2 Ga  31    8.127440    4.773773   11.119093     13.00      69.7230
     172     1 N    7    8.144608    4.782861   13.106610      5.00      14.0067
     173     2 Ga  31    8.102623    2.913310   13.669671     13.00      69.7230
     174     1 N    7    8.128032    2.896951   15.625066      5.00      14.0067
     175     2 Ga  31    7.947712    4.668723   16.535508     13.00      69.7230
     176     1 N    7    6.495148    7.567560    2.622095      5.00      14.0067
     177     2 Ga  31    6.502417    5.840927    3.343415     13.00      69.7230
     178     1 N    7    6.506429    5.698356    5.297632      5.00      14.0067
     179     2 Ga  31    6.478650    7.572027    5.882604     13.00      69.7230
     180     1 N    7    6.497882    7.554895    7.864711      5.00      14.0067
     181     2 Ga  31    6.509907    5.688811    8.475251     13.00      69.7230
     182     1 N    7    6.506536    5.681426   10.465191      5.00      14.0067
     183     2 Ga  31    6.504279    7.548866   11.071934     13.00      69.7230
     184     1 N    7    6.504410    7.548947   13.036678      5.00      14.0067
     185     2 Ga  31    6.504970    5.680429   13.670591     13.00      69.7230
     186     1 N    7    6.503031    5.711150   15.625712      5.00      14.0067
     187     2 Ga  31    6.507510    7.547885   15.908177     13.00      69.7230
     188     1 N    7    4.864183   10.379680    2.529731      5.00      14.0067
     189     2 Ga  31    4.949542    8.511808    3.155419     13.00      69.7230
     190     1 N    7    4.883605    8.486575    5.189281      5.00      14.0067
     191     2 Ga  31    4.910766   10.337699    5.820493     13.00      69.7230
     192     1 N    7    4.906865   10.335196    7.824087      5.00      14.0067
     193     2 Ga  31    4.884912    8.484781    8.477923     13.00      69.7230
     194     1 N    7    4.885000    8.482589   10.467876      5.00      14.0067
     195     2 Ga  31    4.909147   10.341985   11.116571     13.00      69.7230
     196     1 N    7    4.928432   10.352595   13.106581      5.00      14.0067
     197     2 Ga  31    4.886956    8.483575   13.667781     13.00      69.7230
     198     1 N    7    4.916211    8.466570   15.625579      5.00      14.0067
     199     2 Ga  31    4.737876   10.242935   16.521526     13.00      69.7230
     200     3 O    8    0.046394    3.815300   -0.404532      6.00      15.9994
     201     4 H    1    7.233348    3.493445   -0.600294      1.00       1.0079
     202     5 C    6   -1.073990    3.185609   -1.050101      4.00      12.0107
     203     4 H    1   -1.321434    2.207936   -0.600664      1.00       1.0079
     204     4 H    1   -1.970827    3.822005   -1.009405      1.00       1.0079
     205     4 H    1   -0.806771    3.023984   -2.104041      1.00       1.0079
     206     2 Ga  31    3.270499    5.604290    3.046359     13.00      69.7230
     207     3 O    8    6.424817    3.876886   -0.252658      6.00      15.9994
     208     4 H    1    0.013333    7.507318    1.678399      1.00       1.0079
     209     5 C    6    3.284902    1.843321    1.165187      4.00      12.0107
     210     4 H    1    6.530771    7.647850    1.551214      1.00       1.0079
     211     4 H    1    4.214038    1.797775    0.636478      1.00       1.0079
     212     4 H    1    2.360764    1.797032    0.627856      1.00       1.0079




 SCF PARAMETERS         Density guess:                                    ATOMIC
                        --------------------------------------------------------
                        max_scf:                                              80
                        max_scf_history:                                       0
                        max_diis:                                              4
                        --------------------------------------------------------
                        eps_scf:                                        5.00E-06
                        eps_scf_history:                                0.00E+00
                        eps_diis:                                       1.00E-01
                        eps_eigval:                                     1.00E-05
                        --------------------------------------------------------
                        level_shift [a.u.]:                                 0.00
                        --------------------------------------------------------
                        Outer loop SCF in use 
                        No variables optimised in outer loop
                        eps_scf                                         5.00E-06
                        max_scf                                                4
                        No outer loop optimization
                        step_size                                       5.00E-01

 PW_GRID| Information for grid number                                          1
 PW_GRID| Grid distributed over                                    80 processors
 PW_GRID| Real space group dimensions                                    80    1
 PW_GRID| the grid is blocked:                                                NO
 PW_GRID| Cutoff [a.u.]                                                    600.0
 PW_GRID| spherical cutoff:                                                   NO
 PW_GRID|   Bounds   1           -144     143                Points:         288
 PW_GRID|   Bounds   2           -144     143                Points:         288
 PW_GRID|   Bounds   3           -337     337                Points:         675
 PW_GRID| Volume element (a.u.^3)  0.5630E-03     Volume (a.u.^3)     31519.8467
 PW_GRID| Grid span                                                    FULLSPACE
 PW_GRID|   Distribution                         Average         Max         Min
 PW_GRID|   G-Vectors                           699840.0      699840      699840
 PW_GRID|   G-Rays                                2430.0        2430        2430
 PW_GRID|   Real Space Points                   699840.0      777600      583200

 PW_GRID| Information for grid number                                          2
 PW_GRID| Grid distributed over                                    80 processors
 PW_GRID| Real space group dimensions                                    80    1
 PW_GRID| the grid is blocked:                                                NO
 PW_GRID| Cutoff [a.u.]                                                    200.0
 PW_GRID| spherical cutoff:                                                   NO
 PW_GRID|   Bounds   1            -80      79                Points:         160
 PW_GRID|   Bounds   2            -80      79                Points:         160
 PW_GRID|   Bounds   3           -200     199                Points:         400
 PW_GRID| Volume element (a.u.^3)  0.3078E-02     Volume (a.u.^3)     31519.8467
 PW_GRID| Grid span                                                    FULLSPACE
 PW_GRID|   Distribution                         Average         Max         Min
 PW_GRID|   G-Vectors                           128000.0      128160      127840
 PW_GRID|   G-Rays                                 800.0         801         799
 PW_GRID|   Real Space Points                   128000.0      128000      128000

 PW_GRID| Information for grid number                                          3
 PW_GRID| Grid distributed over                                    80 processors
 PW_GRID| Real space group dimensions                                    80    1
 PW_GRID| the grid is blocked:                                                NO
 PW_GRID| Cutoff [a.u.]                                                     66.7
 PW_GRID| spherical cutoff:                                                   NO
 PW_GRID|   Bounds   1            -48      47                Points:          96
 PW_GRID|   Bounds   2            -48      47                Points:          96
 PW_GRID|   Bounds   3           -112     112                Points:         225
 PW_GRID| Volume element (a.u.^3)  0.1520E-01     Volume (a.u.^3)     31519.8467
 PW_GRID| Grid span                                                    FULLSPACE
 PW_GRID|   Distribution                         Average         Max         Min
 PW_GRID|   G-Vectors                            25920.0       26688       24864
 PW_GRID|   G-Rays                                 270.0         278         259
 PW_GRID|   Real Space Points                    25920.0       43200       21600

 PW_GRID| Information for grid number                                          4
[...]
 flops   991 x    64 x    50         536820736000     100.0%      0.0%      0.0%
 flops    13 x    25 x    50         542542325000     100.0%      0.0%      0.0%
 flops    25 x    13 x    50         543630880000     100.0%      0.0%      0.0%
 flops   242 x    64 x   178         690054086656     100.0%      0.0%      0.0%
 flops   242 x    64 x   183         709437628416     100.0%      0.0%      0.0%
 flops   973 x    32 x    50         724721536000     100.0%      0.0%      0.0%
 flops   973 x    50 x    32         724721536000     100.0%      0.0%      0.0%
 flops   242 x    32 x    32         725871263744     100.0%      0.0%      0.0%
 flops   242 x    64 x   195         755958128640     100.0%      0.0%      0.0%
 flops    25 x    18 x    13         780832365300     100.0%      0.0%      0.0%
 flops    13 x    18 x    25         780832365300     100.0%      0.0%      0.0%
 flops   955 x    32 x   178         837710720000     100.0%      0.0%      0.0%
 flops   955 x    32 x   183         861241920000     100.0%      0.0%      0.0%
 flops   991 x    32 x   178         869289344000     100.0%      0.0%      0.0%
 flops   991 x    32 x   183         893707584000     100.0%      0.0%      0.0%
 flops   955 x    32 x   195         917716800000     100.0%      0.0%      0.0%
 flops   991 x    32 x   195         952311360000     100.0%      0.0%      0.0%
 flops    25 x    25 x    50        1044718750000     100.0%      0.0%      0.0%
 flops   973 x    64 x    50        1054140416000     100.0%      0.0%      0.0%
 flops   973 x    50 x    64        1054140416000     100.0%      0.0%      0.0%
 flops   242 x    64 x    32        1055812747264     100.0%      0.0%      0.0%
 flops   242 x    32 x    64        1055812747264     100.0%      0.0%      0.0%
 flops     5 x    32 x    25        1104180224000     100.0%      0.0%      0.0%
 flops    25 x    32 x     5        1104180224000     100.0%      0.0%      0.0%
 flops   955 x    64 x   178        1218488320000     100.0%      0.0%      0.0%
 flops   955 x    64 x   183        1252715520000     100.0%      0.0%      0.0%
 flops   991 x    64 x   178        1264420864000     100.0%      0.0%      0.0%
 flops   991 x    64 x   183        1299938304000     100.0%      0.0%      0.0%
 flops   224 x    32 x   178        1317375983616     100.0%      0.0%      0.0%
 flops   955 x    64 x   195        1334860800000     100.0%      0.0%      0.0%
 flops   224 x    32 x   183        1354380926976     100.0%      0.0%      0.0%
 flops   991 x    64 x   195        1385180160000     100.0%      0.0%      0.0%
 flops   224 x    32 x   195        1443192791040     100.0%      0.0%      0.0%
 flops    25 x    18 x    25        1487250000000     100.0%      0.0%      0.0%
 flops   242 x    64 x    64        1535727632384     100.0%      0.0%      0.0%
 flops   973 x    32 x   178        1707000064000     100.0%      0.0%      0.0%
 flops   973 x    32 x   183        1754949504000     100.0%      0.0%      0.0%
 flops   973 x    32 x   195        1870028160000     100.0%      0.0%      0.0%
 flops   224 x    64 x   178        1916183248896     100.0%      0.0%      0.0%
 flops    13 x    13 x    32        1936077173888     100.0%      0.0%      0.0%
 flops   224 x    64 x   183        1970008621056     100.0%      0.0%      0.0%
 flops   224 x    32 x    32        2015642517504     100.0%      0.0%      0.0%
 flops   224 x    64 x   195        2099189514240     100.0%      0.0%      0.0%
 flops   973 x    64 x   178        2482909184000     100.0%      0.0%      0.0%
 flops   955 x    32 x    32        2503827251200     100.0%      0.0%      0.0%
 flops   973 x    64 x   183        2552653824000     100.0%      0.0%      0.0%
 flops   991 x    32 x    32        2598212362240     100.0%      0.0%      0.0%
 flops   973 x    64 x   195        2720040960000     100.0%      0.0%      0.0%
 flops    13 x    13 x    64        2816112252928     100.0%      0.0%      0.0%
 flops   224 x    32 x    64        2931843661824     100.0%      0.0%      0.0%
 flops   224 x    64 x    32        2931843661824     100.0%      0.0%      0.0%
 flops   955 x    32 x    64        3641930547200     100.0%      0.0%      0.0%
 flops   955 x    64 x    32        3641930547200     100.0%      0.0%      0.0%
 flops   991 x    32 x    64        3779217981440     100.0%      0.0%      0.0%
 flops   991 x    64 x    32        3779217981440     100.0%      0.0%      0.0%
 flops    13 x    25 x    32        3819497968000     100.0%      0.0%      0.0%
 flops    25 x    13 x    32        3827161395200     100.0%      0.0%      0.0%
 flops   224 x    64 x    64        4264499871744     100.0%      0.0%      0.0%
 flops   973 x    32 x    32        5102039613440     100.0%      0.0%      0.0%
 flops   955 x    64 x    64        5297353523200     100.0%      0.0%      0.0%
 flops   991 x    64 x    64        5497044336640     100.0%      0.0%      0.0%
 flops    13 x    25 x    64        5555633408000     100.0%      0.0%      0.0%
 flops    25 x    13 x    64        5566780211200     100.0%      0.0%      0.0%
 flops    25 x    25 x    32        7354820000000     100.0%      0.0%      0.0%
 flops   973 x    64 x    32        7421148528640     100.0%      0.0%      0.0%
 flops   973 x    32 x    64        7421148528640     100.0%      0.0%      0.0%
 flops    25 x    25 x    64       10697920000000     100.0%      0.0%      0.0%
 flops   973 x    64 x    64       10794397859840     100.0%      0.0%      0.0%
 flops    13 x    32 x    13       19474745425408     100.0%      0.0%      0.0%
 flops    25 x    32 x    13       38868099961600     100.0%      0.0%      0.0%
 flops    13 x    32 x    25       38868099961600     100.0%      0.0%      0.0%
 flops    25 x    32 x    25       74032000000000     100.0%      0.0%      0.0%
 flops inhomo. stacks             127047456126304     100.0%      0.0%      0.0%
 flops total                       479.277275E+12     100.0%      0.0%      0.0%
 flops max/rank                      8.321315E+12     100.0%      0.0%      0.0%
 matmuls inhomo. stacks                  12680640     100.0%      0.0%      0.0%
 matmuls total                         9655831202     100.0%      0.0%      0.0%
 number of processed stacks             171880232     100.0%      0.0%      0.0%
 average stack size                                    56.2       0.0       0.0
 marketing flops                   512.044458E+12
 -------------------------------------------------------------------------------
 # multiplications                          44298
 max memory usage/rank               1.514959E+09
 # max total images/rank                        5
 # max 3D layers                                1
 # MPI messages exchanged               403997760
 MPI messages size (bytes):
  total size                        50.637568E+12
  min size                           0.000000E+00
  max size                           1.894792E+06
  average size                     125.341211E+03
 MPI breakdown and total messages size (bytes):
             size <=      128             3039240                        0
       128 < size <=     8192            52189390             427535482880
      8192 < size <=    32768           120279690            2453702967360
     32768 < size <=   131072           179837280           13022682821760
    131072 < size <=  4194304            48652160           34691308459696
   4194304 < size <= 16777216                   0                        0
  16777216 < size                               0                        0
 -------------------------------------------------------------------------------

 *** WARNING in dbcsr/mm/dbcsr_mm.F:268 :: Using a non-square number of ***
 *** MPI ranks might lead to poor performance.                          ***
 *** Used ranks: 80                                                     ***
 *** Suggested: 81 169                                                  ***

 -------------------------------------------------------------------------------
 
 MEMORY| Estimated peak process memory [MiB]                                1468

 -------------------------------------------------------------------------------
 ----                             MULTIGRID INFO                            ----
 -------------------------------------------------------------------------------
 count for grid        1:        1256954          cutoff [a.u.]          600.00
 count for grid        2:       10404546          cutoff [a.u.]          200.00
 count for grid        3:        9610776          cutoff [a.u.]           66.67
 count for grid        4:       14545931          cutoff [a.u.]           22.22
 count for grid        5:       13396152          cutoff [a.u.]            7.41
 total gridlevel count  :       49214359

 -------------------------------------------------------------------------------
 -                                                                             -
 -                         MESSAGE PASSING PERFORMANCE                         -
 -                                                                             -
 -------------------------------------------------------------------------------

 ROUTINE             CALLS      AVE VOLUME [Bytes]
 MP_Group             3999
 MP_Bcast            31131                  31692.
 MP_Allreduce       318278                    207.
 MP_Sync              1431
 MP_Alltoall        243958                5551890.
 MP_SendRecv         28756                   5901.
 MP_ISendRecv      1155138                 133520.
 MP_Wait           9900837
 MP_comm_split        1426
 MP_ISend         11358640                 118695.
 MP_IRecv         11362140                 118601.
 MP_Recv              1710                 162816.
 MP_Memory         4924200
 -------------------------------------------------------------------------------


 -------------------------------------------------------------------------------
 -                                                                             -
 -                           R E F E R E N C E S                               -
 -                                                                             -
 -------------------------------------------------------------------------------
 
 CP2K version 7.0 (Development Version), the CP2K developers group (2018).
 CP2K is freely available from https://www.cp2k.org/ .

 Schuett, Ole; Messmer, Peter; Hutter, Juerg; VandeVondele, Joost. 
 Electronic Structure Calculations on Graphics Processing Units, John Wiley & Sons, Ltd, 173-190 (2016). 
 GPU-Accelerated Sparse Matrix-Matrix Multiplication for Linear Scaling Density Functional Theory.
 http://dx.doi.org/10.1002/9781118670712.ch8


 Borstnik, U; VandeVondele, J; Weber, V; Hutter, J. 
 PARALLEL COMPUTING, 40 (5-6), 47-58 (2014). 
 Sparse matrix multiplication: The distributed block-compressed sparse
 row library.
 http://dx.doi.org/10.1016/j.parco.2014.03.012


 Hutter, J; Iannuzzi, M; Schiffmann, F; VandeVondele, J. 
 WILEY INTERDISCIPLINARY REVIEWS-COMPUTATIONAL MOLECULAR SCIENCE, 4 (1), 15-25 (2014). 
 CP2K: atomistic simulations of condensed matter systems.
 http://dx.doi.org/10.1002/wcms.1159


 Grimme, S; Ehrlich, S; Goerigk, L. 
 JOURNAL OF COMPUTATIONAL CHEMISTRY, 32, 1456 (2011). 
 Effect of the damping function in dispersion corrected density functional theory.
 http://dx.doi.org/10.1002/jcc.21759


 Grimme, S; Antony, J; Ehrlich, S; Krieg, H. 
 JOURNAL OF CHEMICAL PHYSICS, 132 (15), 154104 (2010). 
 A consistent and accurate ab initio parametrization of density
 functional dispersion correction (DFT-D) for the 94 elements H-Pu.
 http://dx.doi.org/10.1063/1.3382344


 VandeVondele, J; Hutter, J. 
 JOURNAL OF CHEMICAL PHYSICS, 127 (11), 114105 (2007). 
 Gaussian basis sets for accurate calculations on molecular systems in
 gas and condensed phases.
 http://dx.doi.org/10.1063/1.2770708


 Krack, M. 
 THEORETICAL CHEMISTRY ACCOUNTS, 114 (1-3), 145-152 (2005). 
 Pseudopotentials for H to Kr optimized for gradient-corrected
 exchange-correlation functionals.
 http://dx.doi.org/10.1007/s00214-005-0655-y


 VandeVondele, J; Krack, M; Mohamed, F; Parrinello, M; Chassaing, T;
 Hutter, J. COMPUTER PHYSICS COMMUNICATIONS, 167 (2), 103-128 (2005). 
 QUICKSTEP: Fast and accurate density functional calculations using a
 mixed Gaussian and plane waves approach.
 http://dx.doi.org/10.1016/j.cpc.2004.12.014


 Frigo, M; Johnson, SG. 
 PROCEEDINGS OF THE IEEE, 93 (2), 216-231 (2005). 
 The design and implementation of FFTW3.
 http://dx.doi.org/10.1109/JPROC.2004.840301


 Kolafa, J. 
 JOURNAL OF COMPUTATIONAL CHEMISTRY, 25 (3), 335-342 (2004). 
 Time-reversible always stable predictor-corrector method for molecular dynamics of polarizable molecules.
 http://dx.doi.org/10.1002/jcc.10385


 VandeVondele, J; Hutter, J. 
 JOURNAL OF CHEMICAL PHYSICS, 118 (10), 4365-4369 (2003). 
 An efficient orbital transformation method for electronic structure
 calculations.
 http://dx.doi.org/10.1063/1.1543154


 Hartwigsen, C; Goedecker, S; Hutter, J. 
 PHYSICAL REVIEW B, 58 (7), 3641-3662 (1998). 
 Relativistic separable dual-space Gaussian pseudopotentials from H to Rn.
 http://dx.doi.org/10.1103/PhysRevB.58.3641


 Lippert, G; Hutter, J; Parrinello, M. 
 MOLECULAR PHYSICS, 92 (3), 477-487 (1997). 
 A hybrid Gaussian and plane wave density functional scheme.
 http://dx.doi.org/10.1080/002689797170220


 Perdew, JP; Burke, K; Ernzerhof, M. 
 PHYSICAL REVIEW LETTERS, 77 (18), 3865-3868 (1996). 
 Generalized gradient approximation made simple.
 http://dx.doi.org/10.1103/PhysRevLett.77.3865


 Goedecker, S; Teter, M; Hutter, J. 
 PHYSICAL REVIEW B, 54 (3), 1703-1710 (1996). 
 Separable dual-space Gaussian pseudopotentials.
 http://dx.doi.org/10.1103/PhysRevB.54.1703


 -------------------------------------------------------------------------------
 -                                                                             -
 -                                T I M I N G                                  -
 -                                                                             -
 -------------------------------------------------------------------------------
 SUBROUTINE                       CALLS  ASD         SELF TIME        TOTAL TIME
                                MAXIMUM       AVERAGE  MAXIMUM  AVERAGE  MAXIMUM
 CP2K                                 1  1.0     0.27     0.28 23067.53 23067.57
 cp_geo_opt                           1  2.0     0.07     0.07 23066.12 23066.14
 geoopt_bfgs                          1  3.0     0.14     0.23 23066.05 23066.14
 cp_eval_at                          92  4.0     0.05     0.08 23025.22 23025.25
 qs_forces                           91  5.0     0.08     0.11 22859.64 22859.65
 qs_energies                         92  6.0     0.16     0.20 21159.95 21160.10
 scf_env_do_scf                      92  7.0     0.04     0.15 19950.52 19950.57
 scf_env_do_scf_inner_loop         1472  8.0     0.11     0.20 17889.73 17889.81
 rebuild_ks_matrix                 1563  9.8     0.01     0.01 10089.15 10090.93
 qs_ks_build_kohn_sham_matrix      1563 10.8     0.52     1.04 10089.14 10090.92
 qs_ks_update_qs_env               1565  9.0     0.01     0.03  8433.23  8434.80
 qs_rho_update_rho                 1564  9.1     0.04     0.05  8133.89  8138.35
 calculate_rho_elec                3128 10.1  4061.37  4131.43  8133.85  8138.31
 sum_up_and_integrate               873 11.7    12.98    14.46  5523.75  5525.64
 integrate_v_rspace                1746 12.7  3093.69  3196.31  5510.76  5514.53
 pw_transfer                      49514 13.3     5.33     6.14  5061.31  5083.55
 fft_wrap_pw1pw2                  46388 14.4     0.55     0.63  5036.67  5058.84
 fft_wrap_pw1pw2_600              26892 15.6   297.57   331.61  4673.34  4692.36
 fft3d_ps                         46388 16.4  1383.39  1526.54  4339.47  4387.80
 rs_pw_transfer                   24829 12.9     0.33     0.37  4008.04  4072.13
 density_rs2pw                     3128 11.1     0.23     0.25  3648.69  3736.10
 qs_vxc_create                     1563 11.8     0.05     0.07  3549.95  3550.78
 dbcsr_multiply_generic           44298 13.7     2.98     4.30  3149.85  3156.96
 mp_waitall_1                   9002621 16.7  2801.47  2911.70  2801.47  2911.70
 mp_alltoall_z22v                 46388 18.4  2565.88  2850.80  2565.88  2850.80
 qs_scf_new_mos                    1472  9.0     0.01     0.03  2684.71  2686.87
 qs_scf_loop_do_ot                 1472 10.0     0.06     0.15  2684.70  2686.85
 xc_vxc_pw_create                   873 12.7   182.59   206.02  2656.65  2657.07
 multiply_cannon                  44298 14.7    14.19    15.08  2443.54  2492.86
 ot_scf_mini                       1472 11.0     0.25     0.53  2459.68  2461.19
 init_scf_loop                       93  8.0     0.01     0.03  2057.82  2057.86
 xc_rho_set_and_dset_create        1563 13.8    27.36    29.32  1913.33  1942.70
 mp_waitany                      898216 14.9  1772.32  1924.32  1772.32  1924.32
 potential_pw2rs                   1746 13.7     1.37     1.52  1898.28  1902.40
 x_to_yz                          20180 18.0   217.72   250.21  1664.39  1769.06
 rs_pw_transfer_RS2PW_600          3312 13.0   651.57   724.65  1660.62  1724.47
 qs_ks_update_qs_env_forces          91  6.0     0.00     0.00  1670.94  1671.23
 multiply_cannon_metrocomm3      885960 15.7     2.38     2.58  1427.62  1596.68
 yz_to_x                          16460 16.8   136.17   142.41  1253.06  1395.00
 ot_mini                           1472 12.0     0.02     0.04  1321.41  1322.91
 rs_pw_transfer_PW2RS_600          2021 15.1   450.33   484.15  1139.42  1164.06
 prepare_preconditioner              93  9.0     0.00     0.00  1131.13  1131.37
 make_preconditioner                186 10.0     0.01     0.04  1045.64  1045.76
 make_full_all                      186 11.0     0.08     0.13   957.77   958.15
 xc_exc_calc                        690 13.0     3.36     3.77   893.25   893.67
 qs_ot_get_derivative              1564 13.0     0.02     0.03   839.44   840.76
 mp_alltoall_d11v                 48258 14.9   665.72   769.27   665.72   769.27
 multiply_cannon_metrocomm1      885960 15.7     2.74     2.96   589.87   760.03
 init_scf_run                        92  7.0     0.01     0.01   756.09   756.12
 scf_env_initial_rho_setup           92  8.0     0.01     0.02   756.08   756.11
 wfi_extrapolate                     92  9.0     0.06     0.11   747.99   748.05
 rs_distribute_matrix              5056 12.0     6.09    13.56   618.95   720.61
 cp_fm_syevd                       1426 13.3     0.01     0.03   668.38   669.88
 cp_fm_redistribute_end            1426 14.3   182.72   649.19   186.78   652.95
 cp_fm_syevd_base                  1426 14.0   462.94   629.28   462.94   629.28
 apply_preconditioner_dbcsr        1750 14.0     0.00     0.02   520.12   521.15
 apply_all                         1750 15.0     0.21     0.30   520.12   521.14
 mp_sum_d                         45105 14.3   378.54   484.46   378.54   484.46
 ot_new_cg_direction                782 13.0     0.02     0.04   471.36   471.43
 -------------------------------------------------------------------------------

 The number of warnings for this run is : 1
 
 -------------------------------------------------------------------------------
  **** **** ******  **  PROGRAM ENDED AT                 2019-07-15 17:35:29.887
 ***** ** ***  *** **   PROGRAM RAN ON            blg9243.int.ets1.calculquebec.
 **    ****   ******    PROGRAM RAN BY                                       rzk
 ***** **    ** ** **   PROGRAM PROCESS ID                                 92604
  **** **  *******  **  PROGRAM STOPPED IN /lustre04/scratch/rzk/rzk/GaN-carbene
                                           /443-adatoms-both-2x2/11-CH3O-HO-H2C-
                                           H-H/01-UseFinal-0902
