     212
 i =        1, E =     -8504.7952373534
  N         0.0942459149        2.1166219076        2.5635839495
 Ga         0.0839564471        0.1799542589        3.0234105916
  N         0.0927883030        0.1304433231        5.1150011344
 Ga         0.0605512362        1.9522618660        5.8752628494
  N         0.0743018303        1.9700625040        7.8574691423
 Ga         0.0663727113        0.1162707458        8.4905757027
  N         0.0719819125        0.1194302702       10.4610004573
 Ga         0.0692117871        1.9582183066       11.1225903554
  N         0.0719487285        1.9401446948       13.1100561454
 Ga         0.0726733061        0.1213097880       13.9248436134
  N         0.0725663040        0.1214728125       16.1128022441
 Ga         0.0694831217        2.1702636331       16.5344310062
 Ga         0.0822482827        3.8374546247        1.4110325708
  N        -1.3957394909        4.6973852602        2.5532527956
 Ga        -1.6093419675        2.8449140672        3.3104127346
  N        -1.5343303760        2.9044061494        5.2887374574
 Ga        -1.5684468227        4.7714328820        5.8475932931
  N        -1.5457693293        4.7696531002        7.8398965340
 Ga        -1.5320003168        2.9120565579        8.4884943789
  N        -1.5248520512        2.9139766362       10.4765444271
 Ga        -1.5525593357        4.7729127122       11.1203600524
  N        -1.5679778026        4.7828624206       13.1087848256
 Ga        -1.5251935562        2.9131345528       13.6690118312
  N        -1.5525205466        2.8992699829       15.6255667912
 Ga        -1.3707755699        4.6686397987       16.5351259429
  N         0.0714312499        3.8354820287       17.6733706893
  N        -3.1424845210        7.6649963657        2.5408005556
 Ga        -3.1267503435        5.6543663838        2.8838344308
  N        -3.1381913360        5.6949579573        5.0540625740
 Ga        -3.1481846416        7.5081778634        5.8426706340
  N        -3.1458010069        7.5394704792        7.8305509185
 Ga        -3.1461631322        5.6913206585        8.4872291700
  N        -3.1441757003        5.6930538189       10.4581691654
 Ga        -3.1456184029        7.5300642850       11.1201018263
  N        -3.1440633937        7.5120258015       13.1082351494
 Ga        -3.1436912227        5.6923760831       13.9254540186
  N        -3.1425328719        5.6917124662       16.1132607890
 Ga        -3.1452253328        7.7366032488       16.5352246194
 Ga        -3.1572297363        9.4305897393        1.4207150473
  N        -4.6587865489       10.2885021275        2.5840181640
 Ga        -4.8103307906        8.4558220378        3.3306811391
  N        -4.7639013164        8.4700509970        5.2806876424
 Ga        -4.7833766248       10.3404494467        5.8692334555
  N        -4.7547814804       10.3355078248        7.8483954970
 Ga        -4.7448727590        8.4771890957        8.4847429039
  N        -4.7412193161        8.4815774219       10.4703780935
 Ga        -4.7709524050       10.3386074022       11.1225361934
  N        -4.7850381851       10.3514763412       13.1093136590
 Ga        -4.7413284269        8.4831763728       13.6704835575
  N        -4.7682966526        8.4693960470       15.6270911869
 Ga        -4.5857747776       10.2373748705       16.5354094428
  N        -3.1416814356        9.4011072581       17.6718042639
  N         3.2859480311        1.9803248253        2.6179156910
 Ga         3.2909756948        0.1171749084        3.3847375227
  N         3.2870296515        0.1413983129        5.3087989965
 Ga         3.2873177407        1.9782735246        5.9940093834
  N         3.2883781800        1.9745430700        7.9366161089
 Ga         3.2866534104        0.1027697679        8.5151541853
  N         3.2874656443        0.1068876286       10.4919653275
 Ga         3.2892900753        1.9783195844       11.0866835560
  N         3.2887104163        1.9781564001       13.0506446286
 Ga         3.2882158799        0.1057362488       13.6717445087
  N         3.2874543047        0.1395581720       15.6287546571
 Ga         3.2889150062        1.9789480674       15.9035925627
  N         1.5716418847        4.6713198973        2.6008689822
 Ga         1.6741629640        2.8840767669        3.3956821113
  N         1.7024621845        2.8894059249        5.3250473550
 Ga         1.7027688268        4.7773232880        5.8843504148
  N         1.6860821682        4.7649434025        7.8612363531
 Ga         1.6651284769        2.9126230142        8.5129540539
  N         1.6695852380        2.9128971516       10.4913457053
 Ga         1.6964134532        4.7759910497       11.1220775315
  N         1.7136099152        4.7837314954       13.1095851970
 Ga         1.6671106660        2.9147797961       13.6721790715
  N         1.6957421697        2.8985453408       15.6301799881
 Ga         1.5130002656        4.6704265334       16.5351418612
  N         0.0770105579        7.5541037472        2.7080834701
 Ga         0.0850284799        5.7112950863        3.3744457276
  N         0.0715776023        5.7063513696        5.3090682655
 Ga         0.0989276201        7.5631993554        5.9209239724
  N         0.0756433276        7.5524219515        7.8884707379
 Ga         0.0672119546        5.6840600694        8.4906138242
  N         0.0714344027        5.6802850338       10.4766589638
 Ga         0.0736940213        7.5491330064       11.0758940408
  N         0.0723060699        7.5491862798       13.0414005795
 Ga         0.0725173986        5.6794273884       13.6702807015
  N         0.0710922427        5.7113558229       15.6264764490
 Ga         0.0705505894        7.5482905208       15.9082232219
  N        -1.6378764696       10.2817322678        2.5827896524
 Ga        -1.5094125916        8.4694148145        3.3576717533
  N        -1.5290654020        8.4753953566        5.2915791800
 Ga        -1.4994149931       10.3519885266        5.8791829263
  N        -1.5355796684       10.3356801165        7.8570790507
 Ga        -1.5462155198        8.4765666471        8.4907474328
  N        -1.5474742820        8.4811290657       10.4759250387
 Ga        -1.5172630144       10.3404753610       11.1233429438
  N        -1.5021441663       10.3520540829       13.1105265203
 Ga        -1.5470145178        8.4833950277       13.6717093534
  N        -1.5202494683        8.4686637722       15.6295537963
 Ga        -1.7009302907       10.2394203552       16.5352577204
  N         6.4843163678        2.1161955976        2.5754808956
 Ga         6.5299403924        0.1373326958        2.9552868456
  N         6.4775911930        0.1317131814        5.1152776840
 Ga         6.5186149658        1.9480076639        5.8608027741
  N         6.5041855427        1.9730440106        7.8493902115
 Ga         6.5113655143        0.1189582226        8.4884300610
  N         6.5052409131        0.1200474713       10.4607138596
 Ga         6.5085743190        1.9593888422       11.1214346927
  N         6.5057017931        1.9403338964       13.1097938370
 Ga         6.5050143059        0.1216970669       13.9259994024
  N         6.5060554693        0.1211635432       16.1136752128
 Ga         6.5047072858        2.1691247342       16.5336539912
 Ga         6.4908543089        3.8493036860        1.5065668021
  N         5.0002662010        4.6780152863        2.6211215977
 Ga         4.8919606579        2.8706932945        3.4039033030
  N         4.8716455944        2.8880253858        5.3270585689
 Ga         4.8854746553        4.7809600999        5.8631237565
  N         4.8936403601        4.7657456642        7.8471584276
 Ga         4.9138983598        2.9145033629        8.5083907615
  N         4.9079656548        2.9139256445       10.4886958261
 Ga         4.8840450939        4.7775596068       11.1190407561
  N         4.8648562083        4.7841395086       13.1074385762
 Ga         4.9101680850        2.9153386787       13.6705325563
  N         4.8811804582        2.8998190174       15.6278617222
 Ga         5.0635685701        4.6689606801       16.5347126960
  N         6.5105697407        3.8359903865       17.6705122097
  N         3.2879063613        7.5223441716        2.5963546364
  N         3.2878653613        5.6604055393        5.1168045375
 Ga         3.2932319166        7.5438567429        5.7817059006
  N         3.2912846821        7.5440271922        7.8003011824
 Ga         3.2917297710        5.7022480596        8.4856894479
  N         3.2892782447        5.6944384633       10.4581464622
 Ga         3.2906165622        7.5322343051       11.1198770793
  N         3.2891919271        7.5116717719       13.1090069226
 Ga         3.2894507689        5.6917153028       13.9254530614
  N         3.2890760727        5.6921633708       16.1128471142
 Ga         3.2869831318        7.7338995402       16.5224219282
 Ga         4.1279416308       10.8809313504        0.6774682937
  N         1.7048411739       10.3435052489        2.5749104984
 Ga         1.7409430536        8.5421635878        3.1829099756
  N         1.6674941276        8.4752272975        5.2000918081
 Ga         1.6546487748       10.3412807282        5.8142587739
  N         1.6699377014       10.3331663555        7.8243367444
 Ga         1.6971919600        8.4851029019        8.4821760304
  N         1.6933977796        8.4825372145       10.4728912027
 Ga         1.6679917894       10.3433117510       11.1170606286
  N         1.6486729168       10.3527702058       13.1076806985
 Ga         1.6914548179        8.4838028126       13.6668454676
  N         1.6606449027        8.4682289009       15.6241607267
 Ga         1.8422520817       10.2413907565       16.5232437267
  N         3.2914371454        9.4043986296       17.6484040350
  N         9.7424138388        1.9367104456        2.6515750973
 Ga         9.6656293271        0.1373516183        3.2908039419
  N         9.7212080937        0.1198903952        5.2811235702
 Ga         9.7235809386        1.9673307437        5.9060107282
  N         9.7209754902        1.9777333335        7.8855034058
 Ga         9.7200446450        0.1067987372        8.4685417746
  N         9.7212181915        0.1075862290       10.4655182972
 Ga         9.7209214646        1.9762340555       11.0718288988
  N         9.7205361188        1.9779069736       13.0392942034
 Ga         9.7210808327        0.1092122863       13.6666368871
  N         9.7192467606        0.1443343234       15.6241363878
 Ga         9.7209048148        1.9814579800       15.9077149931
  N         7.9956987139        4.7121031715        2.5749053524
 Ga         8.2174123511        2.8368927233        3.3006366492
  N         8.1187663607        2.8999909689        5.2768732958
 Ga         8.1396330390        4.7727948882        5.8219029374
  N         8.1223489255        4.7706143715        7.8231264928
 Ga         8.1085480496        2.9151163738        8.4838673543
  N         8.1029522700        2.9152117193       10.4740737255
 Ga         8.1274627831        4.7741732757       11.1181300520
  N         8.1447627989        4.7831460785       13.1075379940
 Ga         8.1022582004        2.9137664694       13.6697555036
  N         8.1282747378        2.8984966015       15.6281567968
 Ga         7.9504665735        4.6717670993       16.5337349510
  N         6.4896515315        7.5903617289        2.6488189546
 Ga         6.4911474279        5.7860046921        3.3361283757
  N         6.5076196443        5.7264406645        5.2891086202
 Ga         6.4773013449        7.5720716906        5.9243308841
  N         6.5000429598        7.5555410995        7.8881903403
 Ga         6.5110609106        5.6864672564        8.4780109708
  N         6.5065828190        5.6824213860       10.4675706708
 Ga         6.5046922045        7.5489316361       11.0720931602
  N         6.5048656283        7.5490460663       13.0381869337
 Ga         6.5048017701        5.6801582828       13.6696660927
  N         6.5034099548        5.7109349084       15.6266165730
 Ga         6.5067381840        7.5482240193       15.9087344313
  N         4.8848359101       10.3790419278        2.5297514332
 Ga         4.8508023753        8.5129084400        3.1522961729
  N         4.9160789666        8.4851759313        5.1837099265
 Ga         4.9110330902       10.3390972338        5.8191996766
  N         4.9075060666       10.3339793412        7.8236019455
 Ga         4.8826875346        8.4853326239        8.4796294386
  N         4.8861521951        8.4825553474       10.4697199328
 Ga         4.9095316636       10.3418569899       11.1159215046
  N         4.9286627324       10.3524172324       13.1066668235
 Ga         4.8866254758        8.4837884714       13.6670317950
  N         4.9154840872        8.4671181233       15.6259696446
 Ga         4.7359418468       10.2439024173       16.5225009472
  O         0.0719029744        3.8116793698       -0.4189523977
  H         7.2393731066        3.4897144219       -0.6059426757
  C        -1.0673480914        3.1913715786       -1.0383069811
  H        -1.3267413091        2.2074083766       -0.6062796285
  H        -1.9728065525        3.8184260017       -1.0056099040
  H        -0.8048049697        3.0254506543       -2.0941212967
 Ga         3.2757825674        5.6411466061        3.0194190119
  O         6.4056703631        3.8834533794       -0.3066185354
  H         0.0206022564        7.5062226483        1.6828960000
  C         3.2854002868        1.8360818786        1.1924027483
  H         6.5329874866        7.6028230883        1.5985522132
  H         4.2326093907        1.8078490234        0.6614290588
  H         2.3429906132        1.8039233627        0.6529448544
     212
 i =        2, E =     -8504.8127832911
  N         0.0949950047        2.1078036358        2.5564958101
 Ga         0.0676655784        0.1725234962        3.0273251781
  N         0.0938889366        0.1385703199        5.1171458283
 Ga         0.0599347620        1.9554602263        5.8797312111
  N         0.0752173428        1.9707344520        7.8611482799
 Ga         0.0653027150        0.1169053466        8.4890878708
  N         0.0728643767        0.1193943379       10.4607673147
 Ga         0.0686130847        1.9581534633       11.1217594326
  N         0.0716603653        1.9399930043       13.1115253811
 Ga         0.0719186291        0.1209460161       13.9223506208
  N         0.0718017085        0.1211082912       16.1120566307
 Ga         0.0692033548        2.1662607366       16.5337094986
 Ga         0.0630736664        3.8530595910        1.3975828942
  N        -1.4072935042        4.7026881633        2.5736106245
 Ga        -1.6116818607        2.8500163799        3.3112881445
  N        -1.5317709055        2.9048033196        5.2928804276
 Ga        -1.5642228164        4.7746307817        5.8434119196
  N        -1.5451642979        4.7696460950        7.8392902148
 Ga        -1.5332175155        2.9129739869        8.4871256788
  N        -1.5245919869        2.9137321676       10.4775917839
 Ga        -1.5530952677        4.7727658719       11.1178587891
  N        -1.5685280119        4.7827976564       13.1085207128
 Ga        -1.5258423696        2.9135216984       13.6673348832
  N        -1.5535546395        2.9008817630       15.6266127508
 Ga        -1.3714591074        4.6689996986       16.5347266145
  N         0.0754530277        3.8334900839       17.6669070596
  N        -3.1518317842        7.6854573667        2.5361671589
 Ga        -3.1414996936        5.6452533818        2.8875029634
  N        -3.1363030490        5.6971505488        5.0592874964
 Ga        -3.1443084195        7.5005980103        5.8494313843
  N        -3.1465385842        7.5403215195        7.8355784668
 Ga        -3.1469845311        5.6882640847        8.4835065188
  N        -3.1447830213        5.6932162318       10.4570463211
 Ga        -3.1434471061        7.5287981892       11.1200039252
  N        -3.1443012749        7.5120134500       13.1099202754
 Ga        -3.1433194463        5.6919733334       13.9221459913
  N        -3.1430115070        5.6921844413       16.1140663425
 Ga        -3.1453187639        7.7335610671       16.5333404426
 Ga        -3.1370150170        9.4590124793        1.4014643257
  N        -4.6555723334       10.2906475233        2.5921461470
 Ga        -4.7869710007        8.4739101725        3.3537895686
  N        -4.7628277626        8.4698040818        5.2829655926
 Ga        -4.7912469185       10.3454995742        5.8698874426
  N        -4.7530995422       10.3358177789        7.8468436130
 Ga        -4.7427273093        8.4784073022        8.4919847217
  N        -4.7394629097        8.4830881978       10.4775325083
 Ga        -4.7712491320       10.3405514768       11.1241657978
  N        -4.7847994660       10.3515199529       13.1119312187
 Ga        -4.7411191016        8.4832807328       13.6695829817
  N        -4.7682940416        8.4690489574       15.6286265165
 Ga        -4.5887782066       10.2388493161       16.5333610729
  N        -3.1398706600        9.4017247799       17.6663220798
  N         3.2892428590        1.9872602920        2.5679135756
 Ga         3.2967457792        0.0886489386        3.4028945427
  N         3.2853198218        0.1501799999        5.3127237028
 Ga         3.2890752474        1.9884070273        6.0011953626
  N         3.2873670365        1.9735470854        7.9410200112
 Ga         3.2880459565        0.1025520128        8.5181070562
  N         3.2874956593        0.1062357497       10.4949391640
 Ga         3.2901097722        1.9787153556       11.0865709368
  N         3.2888415229        1.9778088934       13.0524502440
 Ga         3.2881071145        0.1061962063       13.6709639362
  N         3.2864905451        0.1397667133       15.6305969684
 Ga         3.2882937238        1.9793515270       15.9105848191
  N         1.5833678802        4.6621738409        2.5767936701
 Ga         1.6465251849        2.8982756353        3.3957241431
  N         1.7042799228        2.8855217088        5.3198432311
 Ga         1.7098793283        4.7799037478        5.8856000731
  N         1.6839107774        4.7619373473        7.8639283829
 Ga         1.6643719969        2.9137978707        8.5164060101
  N         1.6694282542        2.9119047797       10.4954902182
 Ga         1.6974763465        4.7771109819       11.1191856453
  N         1.7133107291        4.7834828758       13.1104187804
 Ga         1.6671560789        2.9145027775       13.6710732883
  N         1.6956423388        2.8985107547       15.6322976281
 Ga         1.5164362097        4.6727075402       16.5343164061
  N         0.0776295936        7.5439800578        2.7065328432
 Ga         0.0926382114        5.7038101487        3.3716037891
  N         0.0781383933        5.7043877701        5.3099723631
 Ga         0.1043113960        7.5653272750        5.9148395822
  N         0.0738956690        7.5516413484        7.8876124301
 Ga         0.0671296078        5.6842920967        8.4894839746
  N         0.0706336060        5.6801286107       10.4785928850
 Ga         0.0748633476        7.5495837040       11.0732090846
  N         0.0714432349        7.5493050817       13.0418980240
 Ga         0.0716685532        5.6795245277       13.6684928062
  N         0.0690885447        5.7114408134       15.6275886529
 Ga         0.0715419769        7.5492130137       15.9115568380
  N        -1.6371205240       10.2871039040        2.5924731203
 Ga        -1.4945474582        8.4652698900        3.3554716822
  N        -1.5360122323        8.4753126198        5.2911074323
 Ga        -1.4920857273       10.3508085248        5.8775839774
  N        -1.5374079367       10.3370620554        7.8556185301
 Ga        -1.5441687488        8.4773790491        8.4897859686
  N        -1.5477237025        8.4819106319       10.4771811721
 Ga        -1.5160703300       10.3405067403       11.1228223756
  N        -1.5029375321       10.3520193858       13.1121808663
 Ga        -1.5473439091        8.4834021918       13.6702876423
  N        -1.5211631681        8.4678558001       15.6311750589
 Ga        -1.6971976211       10.2415498882       16.5330152256
  N         6.4881596576        2.1152104315        2.5855306624
 Ga         6.5486217947        0.1472397247        2.9621883869
  N         6.4761656493        0.1362428781        5.1251670684
 Ga         6.5203713480        1.9481748367        5.8651476027
  N         6.5037216585        1.9723717376        7.8549125437
 Ga         6.5126100865        0.1194576224        8.4861599622
  N         6.5041629708        0.1206184295       10.4605812366
 Ga         6.5093831319        1.9595419995       11.1189850731
  N         6.5056161148        1.9408427112       13.1103003043
 Ga         6.5061562859        0.1212804326       13.9215696918
  N         6.5061903611        0.1208187392       16.1130523924
 Ga         6.5046471261        2.1646417492       16.5315265011
 Ga         6.4937402509        3.8416383011        1.4371549093
  N         4.9946366584        4.6637994137        2.6019503145
 Ga         4.9322947248        2.8847092655        3.4091945793
  N         4.8704518466        2.8859337420        5.3298909822
 Ga         4.8724676935        4.7841033331        5.8617594081
  N         4.8967780492        4.7646490702        7.8478193401
 Ga         4.9161845959        2.9155839711        8.5069228243
  N         4.9084589740        2.9131731702       10.4892956771
 Ga         4.8820160021        4.7769969536       11.1168057656
  N         4.8651908977        4.7836867621       13.1083105132
 Ga         4.9099228244        2.9150865951       13.6693020862
  N         4.8805405269        2.9004823124       15.6296646052
 Ga         5.0604790117        4.6708270997       16.5326001213
  N         6.5106948131        3.8341484088       17.6649981209
  N         3.2909519950        7.5311588978        2.6092088143
  N         3.2841560791        5.6486932843        5.1196142730
 Ga         3.2885814536        7.5345132616        5.7560894633
  N         3.2924941521        7.5449237395        7.7901881476
 Ga         3.2924812308        5.7050377154        8.4736408605
  N         3.2897918654        5.6946072452       10.4519147557
 Ga         3.2887606265        7.5313003873       11.1165286499
  N         3.2891215261        7.5118247549       13.1083092839
 Ga         3.2895895324        5.6923878028       13.9224631813
  N         3.2887725886        5.6931707331       16.1127494838
 Ga         3.2868509963        7.7351189993       16.5270264053
 Ga         4.1020368778       10.8610901048        0.6798918279
  N         1.7106147570       10.3408944035        2.5829891642
 Ga         1.7723392329        8.5167322825        3.1556087504
  N         1.6649824204        8.4790047239        5.2012581684
 Ga         1.6525827246       10.3351872400        5.8080137740
  N         1.6693266323       10.3354899399        7.8242889912
 Ga         1.7000369370        8.4846254089        8.4715932302
  N         1.6934407643        8.4824744595       10.4682919684
 Ga         1.6675592143       10.3425866917       11.1122006656
  N         1.6485962818       10.3530153343       13.1051334912
 Ga         1.6911248624        8.4844531873       13.6645393262
  N         1.6616109232        8.4696999328       15.6231422854
 Ga         1.8451263101       10.2396674945       16.5280263560
  N         3.2937515048        9.4027782395       17.6593022342
  N         9.7376739540        1.9472984895        2.6558348487
 Ga         9.6578914583        0.1478906795        3.2917687871
  N         9.7235620711        0.1168520694        5.2856195138
 Ga         9.7224271519        1.9671784350        5.9027311725
  N         9.7221796550        1.9770518008        7.8863129127
 Ga         9.7185086839        0.1064423156        8.4670604225
  N         9.7214138664        0.1082983547       10.4669296969
 Ga         9.7203756325        1.9768653265       11.0692366640
  N         9.7202200395        1.9786276542       13.0394335261
 Ga         9.7205424196        0.1094496908       13.6641389943
  N         9.7184930768        0.1426254700       15.6229076983
 Ga         9.7205659669        1.9801007897       15.9109134256
  N         7.9846710488        4.7143320100        2.5832523730
 Ga         8.2056338116        2.8468372934        3.3032532386
  N         8.1177829772        2.9029295386        5.2865939400
 Ga         8.1402937779        4.7767793409        5.8161580037
  N         8.1205399742        4.7719492802        7.8210718900
 Ga         8.1086833708        2.9155003933        8.4782261164
  N         8.1027700923        2.9151192363       10.4722935249
 Ga         8.1290570871        4.7721130821       11.1169887829
  N         8.1450654734        4.7831622711       13.1086649128
 Ga         8.1021783436        2.9139082223       13.6679666793
  N         8.1284649794        2.8997812443       15.6297118103
 Ga         7.9530329976        4.6734728876       16.5319483260
  N         6.4860379693        7.5807457041        2.6709934568
 Ga         6.4836239987        5.7233437110        3.3487238141
  N         6.5007893999        5.7306680305        5.2918296661
 Ga         6.4722217275        7.5710034645        5.9286625090
  N         6.5015760569        7.5556085646        7.8914194087
 Ga         6.5110609283        5.6820769202        8.4820498354
  N         6.5075645794        5.6807561501       10.4733011688
 Ga         6.5038565344        7.5487411773       11.0714076850
  N         6.5056285445        7.5490544845       13.0402235434
 Ga         6.5049642682        5.6798816216       13.6681164420
  N         6.5036503628        5.7108915729       15.6279419932
 Ga         6.5046741043        7.5492630009       15.9120994979
  N         4.8776788297       10.3723870632        2.5317421923
 Ga         4.7747035446        8.5018615738        3.1515488414
  N         4.9234754572        8.4872438037        5.1853012796
 Ga         4.9138723433       10.3378710702        5.8168647807
  N         4.9083270159       10.3346197106        7.8241169689
 Ga         4.8757592080        8.4850402328        8.4785631564
  N         4.8852700443        8.4832671932       10.4719490235
 Ga         4.9091146242       10.3428381999       11.1140341637
  N         4.9289701126       10.3529273672       13.1063452026
 Ga         4.8862098781        8.4842929257       13.6654053561
  N         4.9138406832        8.4680806187       15.6256230854
 Ga         4.7347270749       10.2432908829       16.5271670860
  O         0.0738558153        3.7962158958       -0.4180522497
  H         7.2464080880        3.4848597462       -0.6507576664
  C        -1.0617951884        3.1870872692       -1.0511208080
  H        -1.3201746145        2.2122411294       -0.5978013924
  H        -1.9581789736        3.8267263354       -0.9867760831
  H        -0.8046015199        3.0255569225       -2.1054196130
 Ga         3.2869697962        5.6919976297        2.9895053651
  O         6.4000956248        3.8772014457       -0.3695533628
  H         0.0253740141        7.5062682216        1.6827155861
  C         3.2919710767        1.8657629056        1.2545067747
  H         6.5391777580        7.5628385214        1.6535525274
  H         4.2301411593        1.8138218878        0.6861345599
  H         2.3509865929        1.8077357676        0.6890048178
     212
 i =        3, E =     -8504.8166304268
  N         0.0896040948        2.1055302916        2.5544201199
 Ga         0.0635614801        0.1673219147        3.0297634249
  N         0.0910525903        0.1383806986        5.1197379091
 Ga         0.0589025447        1.9543862679        5.8818074702
  N         0.0758484604        1.9712145939        7.8621523122
 Ga         0.0640284246        0.1168716802        8.4898421812
  N         0.0727116638        0.1196465159       10.4613983065
 Ga         0.0685252761        1.9585934868       11.1223968836
  N         0.0715771755        1.9405793478       13.1123940474
 Ga         0.0711946606        0.1209986932       13.9226218299
  N         0.0714547223        0.1215288124       16.1140383986
 Ga         0.0701589203        2.1675605108       16.5321070927
 Ga         0.0549339798        3.8536115492        1.3905687321
  N        -1.4114717708        4.7017589542        2.5729598906
 Ga        -1.6147424875        2.8502479988        3.3132451866
  N        -1.5310569919        2.9057668618        5.2936321096
 Ga        -1.5635715719        4.7752528868        5.8443518316
  N        -1.5447588640        4.7699748521        7.8398457320
 Ga        -1.5336731484        2.9130156633        8.4865270115
  N        -1.5247292184        2.9139526703       10.4771252099
 Ga        -1.5522166092        4.7729062028       11.1179988327
  N        -1.5682046159        4.7827309549       13.1089016885
 Ga        -1.5266117812        2.9133890554       13.6681229715
  N        -1.5544632430        2.9000658859       15.6271612812
 Ga        -1.3698299387        4.6681274264       16.5330744620
  N         0.0755591089        3.8332407487       17.6670148245
  N        -3.1487901176        7.6864612952        2.5391671330
 Ga        -3.1432680061        5.6504945349        2.8904835699
  N        -3.1379839065        5.6955604981        5.0611130886
 Ga        -3.1428442404        7.5026491158        5.8496903958
  N        -3.1455845502        7.5396859028        7.8363643287
 Ga        -3.1465813246        5.6881901267        8.4842756579
  N        -3.1447690137        5.6924451453       10.4578151024
 Ga        -3.1431376267        7.5288379107       11.1199707134
  N        -3.1439606799        7.5121594073       13.1103809537