     156
 i =        1, E =     -6135.5578293770
 Ga        -0.0031984905       -0.0157154788       -0.5329606156
  N        -0.0002946723        1.8585947636        0.6061407381
 Ga        -0.0003479680        1.8277905112        2.6379150056
  N        -0.0034375846       -0.0156367074        3.2694306548
 Ga        -0.0022048864       -0.0150494978        5.2602305501
  N         0.0008024222        1.8595546060        5.8482761252
 Ga         0.0021935618        1.8581598713        7.8481711627
  N         0.0007828158       -0.0150994333        8.4504119998
 Ga         0.0039433189       -0.0151444258       10.4496856883
  N         0.0041027281        1.8599219603       11.0450084256
 Ga         0.0091726269        1.8631915568       13.0372046068
  N         0.0160315334       -0.0106590572       13.6271492852
 Ga         0.0281109508       -0.0050925199       15.6170785410
  N         0.0113303552        1.8566400365       16.2264609876
 Ga         0.0441295704        1.8427252089       18.2895073138
  N         0.0529927107       -0.0343081250       18.7089150660
 Ga        -1.6232592891        2.7902180948        0.3243617671
  N        -1.6246562964        4.6598386405        0.6070336637
 Ga        -1.5957705728        4.6757300225        2.6367739582
  N        -1.6228662999        2.7898938332        3.2282006963
 Ga        -1.6217242937        2.7906117982        5.2398371194
  N        -1.6212948681        4.6609317949        5.8465860893
 Ga        -1.6191594575        4.6613493363        7.8452023054
  N        -1.6203705141        2.7917860951        8.4509160649
 Ga        -1.6188848712        2.7951679934       10.4470124365
  N        -1.6173577236        4.6667921156       11.0552769122
 Ga        -1.6177876187        4.6712931767       13.0522365014
  N        -1.6101521292        2.8011062648       13.6528906007
 Ga        -1.5934854287        2.8145290900       15.6549190530
  N        -1.5865971066        4.6814793575       16.3072625285
 Ga        -1.5132820357        4.6788113448       18.3832994775
  N        -1.4633018953        2.8271388789       19.0172612122
 Ga        -3.2435474118        5.5952032364        0.3242953777
  N        -3.2373153981        7.4660966088        0.6063437772
 Ga        -3.2644434549        7.4808531086        2.6380130944
  N        -3.2426884730        5.5953790366        3.2285257550
 Ga        -3.2418932533        5.5960236681        5.2399912763
  N        -3.2358628386        7.4662943778        5.8470250083
 Ga        -3.2359123894        7.4670491999        7.8460953985
  N        -3.2399024275        5.5961526768        8.4492238594
 Ga        -3.2385980454        5.5972082993       10.4445142205
  N        -3.2307632130        7.4657285805       11.0552666849
 Ga        -3.2221237137        7.4628809165       13.0528412526
  N        -3.2325292157        5.5993429624       13.6956097054
 Ga        -3.2216035135        5.5932499114       15.7314222877
  N        -3.2157134077        7.4822618748       16.2598368065
 Ga        -3.1802996406        7.4516626589       18.3191845028
  N        -3.1604532176        5.5894232571       18.8545681493
 Ga         3.2429279747       -0.0154062168        0.3246266438
  N         3.2410202326        1.8545767911        0.6064112896
 Ga         3.2694780190        1.8704051423        2.6370741329
  N         3.2425199872       -0.0154931437        3.2281740234
 Ga         3.2439663007       -0.0146825701        5.2398564180
  N         3.2445682915        1.8554785594        5.8475351542
 Ga         3.2469363493        1.8562115829        7.8469314870
  N         3.2449200181       -0.0147978974        8.4495427251
 Ga         3.2477638168       -0.0140496922       10.4449646512
  N         3.2511597571        1.8568012227       11.0509711655
 Ga         3.2575226426        1.8537338829       13.0479899318
  N         3.2564853147       -0.0169538237       13.6607575269
 Ga         3.2751965934       -0.0169410740       15.6664057261
  N         3.2808274316        1.8626222142       16.2189620049
 Ga         3.3153023446        1.8599829418       18.2440801304
  N         3.3143632752       -0.0294670540       18.7004830233
 Ga         1.6222957543        2.7909177556        0.3242592344
  N         1.6291099117        4.6604803837        0.6073077621
 Ga         1.6011693285        4.6758509862        2.6370843286
  N         1.6226062331        2.7900512906        3.2289367732
 Ga         1.6241724860        2.7909338048        5.2408264414
  N         1.6297003009        4.6611669095        5.8484627031
 Ga         1.6300143054        4.6614103852        7.8482088867
  N         1.6259927786        2.7902648849        8.4493543520
 Ga         1.6290250654        2.7914337938       10.4448273956
  N         1.6275779843        4.6622827135       11.0484161158
 Ga         1.6288263192        4.6628177656       13.0428336802
  N         1.6329720403        2.7879348014       13.6460813593
 Ga         1.6428119011        2.7768950846       15.6406236312
  N         1.6338481675        4.6647489931       16.1836704983
 Ga         1.6766659832        4.6405106125       18.1836230365
  N         1.6835627974        2.7769962358       18.6482486240
 Ga         0.0030967988        5.5957609801       -0.5479474616
  N         0.0059354348        7.4705882071        0.6070017810
 Ga         0.0060403611        7.4383482908        2.6368672698
  N         0.0029928337        5.5951907819        3.2695190417
 Ga         0.0046569309        5.5961865992        5.2596954730
  N         0.0074418727        7.4706940350        5.8477530968
 Ga         0.0087895965        7.4692811629        7.8471371112
  N         0.0049176283        5.5957443927        8.4470296051
 Ga         0.0063654016        5.5971388352       10.4440157082
  N         0.0116756361        7.4691719473       11.0461979645
 Ga         0.0138879327        7.4711214171       13.0388445518
  N         0.0069059911        5.6016827090       13.6478862125
 Ga         0.0033782672        5.6025835906       15.6429820544
  N         0.0338148501        7.4600351336       16.2783565317
 Ga         0.0840361657        7.4279527957       18.3620042747
  N         0.1402708314        5.5761689688       18.9086699211
 Ga         6.4868970998       -0.0149697027        0.3238540582
  N         6.4937388898        1.8550290493        0.6060526411
 Ga         6.4661746956        1.8702241515        2.6368536388
  N         6.4882825848       -0.0154417989        3.2287483942
 Ga         6.4897318557       -0.0147062634        5.2406797786
  N         6.4945114573        1.8558330917        5.8479549449
 Ga         6.4945425773        1.8569398223        7.8474820598
  N         6.4909295128       -0.0136900424        8.4509838982
 Ga         6.4942856107       -0.0113074556       10.4473597784
  N         6.4968242325        1.8609184129       11.0528366672
 Ga         6.5000059989        1.8660778825       13.0498182691
  N         6.4898893199       -0.0079909378       13.6404591587
 Ga         6.5035529335        0.0012339607       15.6436864823
  N         6.5235007950        1.8784282748       16.2344118274
 Ga         6.6565180839        1.9249218393       18.2959491788
  N         6.5634615681       -0.0011084510       18.6479357171
 Ga         4.8675493725        2.7916347816       -0.5419054401
  N         4.8709559915        4.6648724188        0.6069373609
 Ga         4.8707938737        4.6334061242        2.6373195049
  N         4.8682727930        2.7899440714        3.2691371451
 Ga         4.8695359811        2.7911052491        5.2594345695
  N         4.8721286405        4.6652260415        5.8481204619
 Ga         4.8728417566        4.6639377580        7.8477129944
  N         4.8708821388        2.7913797687        8.4503071874
 Ga         4.8736979109        2.7952042827       10.4497257471
  N         4.8797733415        4.6661550455       11.0584851708
 Ga         4.8836732505        4.6702949663       13.0610535727
  N         4.8745220200        2.7952222348       13.6512968773
 Ga         4.8858143926        2.8002984242       15.6636210809
  N         4.8668894399        4.6722909563       16.1755461513
 Ga         4.9287309673        4.6591223009       19.0947317442
  N         4.9544292644        2.7695365491       18.7384674209
 Ga         3.2486683657        5.5947064185        0.3238230117
  N         3.2479303987        7.4655040044        0.6057974278
 Ga         3.2756727515        7.4807174130        2.6375305636
  N         3.2485713923        5.5956205143        3.2289190454
 Ga         3.2499375674        5.5963784694        5.2405385992
  N         3.2504601685        7.4661614963        5.8493765716
 Ga         3.2531843740        7.4666949773        7.8496033766
  N         3.2513961480        5.5959666931        8.4547012187
 Ga         3.2549243078        5.5974381453       10.4535266794
  N         3.2566421467        7.4713002560       11.0517580030
 Ga         3.2587048770        7.4716979238       13.0488657795
  N         3.2487266795        5.5955682151       13.6327971065
 Ga         3.2608644140        5.6062849333       15.6391215102
  N         3.2811460020        7.4902265524       16.1552266474
 Ga         3.3270440612        7.4961603025       18.1708611776
  N         3.3563779317        5.5738055984       18.4714351378
  O         1.5525001248        5.0317331031       21.2541653101
  H         0.9929251945        5.3934530963       20.4865648521
  C         0.7597244466        3.9397029511       21.7966194964
  H         0.0322861557        3.5236328121       21.0076519123
  H         1.5321681248        3.2341011200       22.1792762607
  H         0.3367953581        4.3639013442       22.7401441647
  O         4.2312451088        4.7164041905       21.0756954638
  H         3.2214954618        4.8673624441       21.0752964858
  C         4.5517011656        3.5969010176       21.9428153974
  H         4.1180070118        2.6626062471       21.5597849589
  H         5.6437624811        3.5041385919       21.9649001303
  H         4.1788063942        3.8120641604       22.9522828379
     156
 i =        2, E =     -6136.0395810951
 Ga        -0.0031897426       -0.0156845581       -0.5334463910
  N        -0.0002792566        1.8586805532        0.6065885796
 Ga        -0.0003109963        1.8277988439        2.6379306975
  N        -0.0034206464       -0.0155995428        3.2694856072
 Ga        -0.0021679973       -0.0150543319        5.2600460281
  N         0.0008321261        1.8595940730        5.8483869781
 Ga         0.0021175625        1.8582145144        7.8482817943
  N         0.0008700629       -0.0151520467        8.4511131337
 Ga         0.0040221345       -0.0150690277       10.4506336338
  N         0.0041161585        1.8600550941       11.0449811963
 Ga         0.0096567411        1.8627823916       13.0369299680
  N         0.0162094871       -0.0103732536       13.6253840388
 Ga         0.0277461240       -0.0041921055       15.6151822699
  N         0.0110029765        1.8571110115       16.2371447425
 Ga         0.0699848079        1.8407898077       18.3020021979
  N         0.0513916882       -0.0400407579       18.7013183171
 Ga        -1.6231433899        2.7902378016        0.3238616401
  N        -1.6247704875        4.6597476626        0.6073655498
 Ga        -1.5958230239        4.6756995872        2.6368115234
  N        -1.6228548072        2.7897688945        3.2282162096
 Ga        -1.6217422933        2.7906069447        5.2396267555
  N        -1.6212967942        4.6608946783        5.8465452111
 Ga        -1.6192009222        4.6613905466        7.8450982926
  N        -1.6204242817        2.7919212711        8.4517397470
 Ga        -1.6187451175        2.7954257305       10.4478845557
  N        -1.6175952797        4.6670734372       11.0553019514
 Ga        -1.6166755610        4.6711801418       13.0515892865
  N        -1.6102702838        2.8008272252       13.6475971929
 Ga        -1.5872508676        2.8170305272       15.6457591335
  N        -1.5878921434        4.6780821281       16.3110318637
 Ga        -1.5034022483        4.6996455890       18.3817854524
  N        -1.3005841701        2.9092215053       19.2672612122
 Ga        -3.2434416910        5.5952532093        0.3238222756
  N        -3.2372089404        7.4660511887        0.6068090438
 Ga        -3.2644333873        7.4808247783        2.6381070603
  N        -3.2427634162        5.5953966150        3.2286203506
 Ga        -3.2419198649        5.5960285330        5.2398716635
  N        -3.2358103434        7.4663432624        5.8469967087
 Ga        -3.2358486640        7.4669609195        7.8459827612
  N        -3.2399064300        5.5961303865        8.4494108138
 Ga        -3.2383220929        5.5971013773       10.4442971825
  N        -3.2307098904        7.4651329315       11.0551946786
 Ga        -3.2222535664        7.4634448010       13.0528719713
  N        -3.2327698646        5.5977924744       13.6919551105
 Ga        -3.2175036619        5.5941608937       15.7276316088
  N        -3.2168904521        7.4824257838       16.2622159648
 Ga        -3.1768075632        7.4509783254       18.3187050717
  N        -3.1652974316        5.5871326597       18.8437740381
 Ga         3.2429471310       -0.0154820023        0.3241232099
  N         3.2409656908        1.8545555079        0.6066201423
 Ga         3.2694822025        1.8704122877        2.6371108837
  N         3.2424580893       -0.0154122470        3.2281750156
 Ga         3.2439707239       -0.0146292380        5.2396020067
  N         3.2445724096        1.8554959031        5.8474725608
 Ga         3.2471032127        1.8562448050        7.8467442283
  N         3.2448858193       -0.0147170428        8.4501703515
 Ga         3.2478276192       -0.0142577174       10.4457944096
  N         3.2517985707        1.8571139584       11.0508002042
 Ga         3.2576331294        1.8538894980       13.0480065258
  N         3.2561426076       -0.0164427465       13.6601728939
 Ga         3.2758276821       -0.0199596024       15.6671549743
  N         3.2760465438        1.8617314664       16.2202703312
 Ga         3.3377399131        1.8545838990       18.2462934098
  N         3.3124464218       -0.0286265647       18.7097557147
 Ga         1.6222065292        2.7909455835        0.3237987662
  N         1.6292368091        4.6603908700        0.6076324485
 Ga         1.6012563723        4.6757819735        2.6370808614
  N         1.6226362769        2.7899463104        3.2289569236
 Ga         1.6242209902        2.7908950117        5.2405652518
  N         1.6297695078        4.6611386248        5.8483507070
 Ga         1.6300974080        4.6615564257        7.8480807473
  N         1.6261360767        2.7903299852        8.4500787011
 Ga         1.6289526480        2.7916611607       10.4457943280
  N         1.6273867676        4.6627032074       11.0489328517
 Ga         1.6295677316        4.6630762181       13.0439984717
  N         1.6332361867        2.7878488226       13.6436516975
 Ga         1.6386320996        2.7798806439       15.6378767185
  N         1.6306380928        4.6640914223       16.1877835989
 Ga         1.6764283245        4.6447016877       18.1863573151
  N         1.7069397602        2.7813395761       18.6371482381
 Ga         0.0031513500        5.5957390181       -0.5487851980
  N         0.0059416804        7.4707263265        0.6073674320
 Ga         0.0060552942        7.4384227112        2.6369434293
  N         0.0030356840        5.5951764971        3.2695201807
 Ga         0.0046450597        5.5962031586        5.2595011393
  N         0.0074235898        7.4707543048        5.8477174525
 Ga         0.0088250199        7.4692891997        7.8471172212
  N         0.0048912982        5.5956750765        8.4474449316
 Ga         0.0060698810        5.5970859972       10.4444977152
  N         0.0119096377        7.4690106560       11.0462234043
 Ga         0.0139831761        7.4710101473       13.0394348228
  N         0.0063983312        5.6011691488       13.6457616867
 Ga         0.0013920417        5.6007493531       15.6413767647
  N         0.0364576719        7.4566113074       16.2815579737
 Ga         0.0901150442        7.4447980560       18.3643944156
  N         0.1473297904        5.5920015124       18.9016493936
 Ga         6.4869006404       -0.0150498017        0.3233680036
  N         6.4937980921        1.8550096368        0.6062498059
 Ga         6.4661802513        1.8702122675        2.6368910267
  N         6.4883724689       -0.0153798051        3.2288241050
 Ga         6.4897536424       -0.0146234765        5.2405462914
  N         6.4945528353        1.8558930286        5.8479968172
 Ga         6.4945562900        1.8569976847        7.8474513951
  N         6.4909495987       -0.0136111756        8.4512062721
 Ga         6.4941369616       -0.0111913626       10.4475126079
  N         6.4966266899        1.8610586530       11.0515283335
 Ga         6.5008247589        1.8655095135       13.0477631032
  N         6.4899286573       -0.0065647201       13.6429718095
 Ga         6.5033231365        0.0074602724       15.6501485715
  N         6.5390570890        1.8866973716       16.2684377694
 Ga         6.7795919057        1.9950439652       18.3611779986
  N         6.5723900968        0.0294670608       18.6438546783
 Ga         4.8675602291        2.7915768890       -0.5413118993
  N         4.8709723471        4.6648969563        0.6071520618
 Ga         4.8708026315        4.6334202648        2.6373956382
  N         4.8682754903        2.7899389068        3.2691470412
 Ga         4.8695744636        2.7911210137        5.2593017335
  N         4.8721487107        4.6652106524        5.8480790455
 Ga         4.8729130763        4.6639438338        7.8475301294
  N         4.8709132084        2.7914650406        8.4503051342
 Ga         4.8739954529        2.7953017565       10.4491828188
  N         4.8803362920        4.6658618661       11.0576421676
 Ga         4.8819420360        4.6708402193       13.0596837876
  N         4.8767861091        2.7957512569       13.6562882355
 Ga         4.8929366191        2.7963299138       15.6739994869
  N         4.8703184427        4.6740779590       16.1708900411
 Ga         4.9275073617        4.6565542045       19.1007838229
  N         4.9875004442        2.7684049352       18.7285923319
 Ga         3.2485879345        5.5947386724        0.3233604568
  N         3.2478428934        7.4654526775        0.6062793220
 Ga         3.2756930188        7.4806981988        2.6376335871
  N         3.2486483642        5.5956231406        3.2289700152
 Ga         3.2500536159        5.5963762067        5.2403408045
  N         3.2504941745        7.4661526965        5.8493483079
 Ga         3.2531549141        7.4666627623        7.8495541018
  N         3.2515483240        5.5959157100        8.4554349053
 Ga         3.2550268896        5.5974461118       10.4545246551
  N         3.2562875303        7.4715053110       11.0515314763
 Ga         3.2591180846        7.4718038402       13.0492336759
  N         3.2494979880        5.5963006347       13.6344212774
 Ga         3.2570578524        5.6071224467       15.6416582458
  N         3.2818404359        7.4909955511       16.1539441390
 Ga         3.3222815802        7.4943975909       18.1679693610
  N         3.3581632538        5.5729085772       18.4769172706
  O         1.5301673530        5.0135922646       21.2208052751
  H         0.9858233093        5.4152402110       20.4711495254
  C         0.6893674903        3.8994592226       21.6964838614
  H        -0.1451096855        3.4285152334       20.9614292678
  H         1.4487427550        3.1941022196       22.1107384202
  H         0.2654849682        4.3042951794       22.6492591661
  O         4.2289615569        4.7186587704       21.0755897212
  H         3.2183048959        4.8598781731       21.0789503383
  C         4.5511805056        3.5985014063       21.9421887144
  H         4.1178109589        2.6636318317       21.5603944319
  H         5.6430439844        3.5039374787       21.9649359799
  H         4.1787057096        3.8109402302       22.9521881031
     156
 i =        3, E =     -6136.3202672653
 Ga        -0.0031795885       -0.0156561202       -0.5305298328
  N        -0.0002756315        1.8587986052        0.6062071194
 Ga        -0.0002962070        1.8276315543        2.6376917405
  N        -0.0033891349       -0.0156824103        3.2695236001
 Ga        -0.0021431115       -0.0148920617        5.2599563042
  N         0.0008698794        1.8595273382        5.8487621942
 Ga         0.0022132304        1.8583388169        7.8482816494
  N         0.0008450911       -0.0148824292        8.4507941860
 Ga         0.0036560536       -0.0145303581       10.4494417986
  N         0.0042178820        1.8600849308       11.0435677382
 Ga         0.0107227375        1.8631989923       13.0338031857
  N         0.0164554664       -0.0082158566       13.6269273040
 Ga         0.0209617547        0.0014704881       15.6183647705
  N         0.0067006430        1.8636350221       16.2484915833
 Ga         0.0877712019        1.8563652421       18.3262717096
  N         0.0526085417       -0.0346054694       18.7044516722
 Ga        -1.6233001991        2.7905304140        0.3235888093
  N        -1.6245879218        4.6598336049        0.6077836957
 Ga        -1.5958202521        4.6756760597        2.6367238243
  N        -1.6225507872        2.7898042139        3.2284572679
 Ga        -1.6215252356        2.7905871834        5.2396657293
  N        -1.6212717174        4.6609776939        5.8469151919
 Ga        -1.6187475460        4.6610703318        7.8452650352
  N        -1.6201384582        2.7917934084        8.4512021768
 Ga        -1.6181265328        2.7948131192       10.4461714257
  N        -1.6167653512        4.6656691414       11.0528247763
 Ga        -1.6158580144        4.6715339039       13.0479614987
  N        -1.6110223967        2.7993701506       13.6411697074
 Ga        -1.5812864141        2.8194206197       15.6326853765
  N        -1.5874126388        4.6698662286       16.3250668819
 Ga        -1.4880136782        4.6795017374       18.4035577069
  N        -1.2185069156        2.9288736534       19.5172612122
 Ga        -3.2432343755        5.5949191062        0.3235590702
  N        -3.2370624456        7.4659332190        0.6063122643
 Ga        -3.2645429204        7.4808906997        2.6377041446
  N        -3.2426214645        5.5956516816        3.2286545857
 Ga        -3.2416692709        5.5961862554        5.2395533458
  N        -3.2358646787        7.4663665120        5.8473592749
 Ga        -3.2358957672        7.4674564258        7.8461376415
  N        -3.2396491782        5.5962624714        8.4499004322
 Ga        -3.2378358202        5.5971807311       10.4450734994
  N        -3.2310407979        7.4662913551       11.0542395443
 Ga        -3.2225053896        7.4631727800       13.0520738899
  N        -3.2303997418        5.5969656197       13.6943776525
 Ga        -3.2154395839        5.5923435578       15.7322527827
  N        -3.2231153594        7.4876069063       16.2555282513
 Ga        -3.1723951305        7.4581684805       18.3152927848
  N        -3.1571024678        5.5866001630       18.8275612793
 Ga         3.2433213142       -0.0155038053        0.3238678246
  N         3.2406573344        1.8543446808        0.6069045093
 Ga         3.2692710968        1.8702719643        2.6370521896
  N         3.2422891472       -0.0157011454        3.2283453429
 Ga         3.2440011977       -0.0146994312        5.2395197968
  N         3.2445793078        1.8554884276        5.8477633469
 Ga         3.2466635100        1.8562282820        7.8468905052
  N         3.2451431445       -0.0147623329        8.4500064938
 Ga         3.2481275031       -0.0140019872       10.4450061398
  N         3.2512233087        1.8571771739       11.0505276115
 Ga         3.2597829407        1.8558683191       13.0474324530
  N         3.2560897756       -0.0153607738       13.6615158147
 Ga         3.2791102181       -0.0255377350       15.6701638011
  N         3.2703067473        1.8595812075       16.2184853193
 Ga         3.3650970668        1.8466601249       18.2483016019
  N         3.3202458252       -0.0287936883       18.7104167577
 Ga         1.6223918314        2.7912193926        0.3235144347
  N         1.6291017586        4.6604588010        0.6080636134
 Ga         1.6013115182        4.6757632974        2.6370120749
  N         1.6223775753        2.7899726196        3.2291973475
 Ga         1.6240711636        2.7908941424        5.2406245590
  N         1.6297997785        4.6612263478        5.8488023294
 Ga         1.6298516848        4.6612716918        7.8483804318
  N         1.6259661218        2.7902279951        8.4500497995
 Ga         1.6287659511        2.7915800479       10.4450118152
  N         1.6270571255        4.6618362476       11.0490813233
 Ga         1.6299956556        4.6629161540       13.0449147731
  N         1.6335856163        2.7862213394       13.6433385765
 Ga         1.6336624842        2.7850014404       15.6396082118
  N         1.6300453720        4.6669236289       16.1904279227
 Ga         1.6772949513        4.6460067361       18.1906681207
  N         1.7424506264        2.7854095976       18.6402272623
 Ga         0.0031841557        5.5957440956       -0.5501875544
  N         0.0059675357        7.4705333879        0.6078435951
 Ga         0.0060947152        7.4384546607        2.6369315701
  N         0.0030488598        5.5951520000        3.2695522102
 Ga         0.0046911985        5.5962532625        5.2592930688
  N         0.0074686971        7.4707605217        5.8478666530
 Ga         0.0088370479        7.4692914379        7.8468974867
  N         0.0049250203        5.5960009972        8.4476614196
 Ga         0.0064904995        5.5972724299       10.4444944877
  N         0.0118378149        7.4693914448       11.0472867723
 Ga         0.0159479985        7.4718853807       13.0415723569
  N         0.0052019600        5.6013006024       13.6459777541
 Ga         0.0001852775        5.6036434235       15.6443432779
  N         0.0409223656        7.4577405968       16.2843975113
 Ga         0.1040855398        7.4743288998       18.3588865923
  N         0.1539797721        5.6212906202       18.8762452062
 Ga         6.4865713486       -0.0150638153        0.3231160200
  N         6.4941376217        1.8548017435        0.6065201997
 Ga         6.4664637151        1.8700698221        2.6368089787
  N         6.4885762017       -0.0156303064        3.2289907140
 Ga         6.4898020215       -0.0146955771        5.2404353803
  N         6.4946375671        1.8558588526        5.8482966548
 Ga         6.4950589610        1.8569434123        7.8476181712
  N         6.4907434964       -0.0137066762        8.4511224528
 Ga         6.4941453477       -0.0111760396       10.4469891043
  N         6.4978001627        1.8610920494       11.0497106952
 Ga         6.4990144612        1.8646973123       13.0444592031
  N         6.4888735661       -0.0024777577       13.6542724275
 Ga         6.5053583914        0.0185914347       15.6662388286
  N         6.5641528871        1.8980569757       16.3122394312
 Ga         6.8323283625        2.0269373353       18.4271128439
  N         6.5962089679        0.0445731182       18.6385284652
 Ga         4.8676000138        2.7915716423       -0.5432974001
  N         4.8710000678        4.6652474446        0.6073982253
 Ga         4.8708334338        4.6336653948        2.6372427077
  N         4.8683239433        2.7899717013        3.2690812040
 Ga         4.8696292039        2.7909944597        5.2590700848
  N         4.8722116472        4.6653657978        5.8481465866
 Ga         4.8728754553        4.6639531256        7.8475332159
  N         4.8709725906        2.7912204751        8.4503056270
 Ga         4.8741793032        2.7942939458       10.4490801928
  N         4.8801503921        4.6650821341       11.0593995413
 Ga         4.8814697733        4.6668900379       13.0639339615
  N         4.8797658761        2.7899737843       13.6727578454
 Ga         4.9082277715        2.7903492548       15.6975221976
  N         4.8698401006        4.6737543035       16.1814887991
 Ga         4.9285109365        4.6662992125       19.1053299181
  N         5.0117406409        2.7838100577       18.7236933191
 Ga         3.2484317674        5.5943923640        0.3231139696
  N         3.2477307774        7.4653259668        0.6058221048
 Ga         3.2758342549        7.4807857396        2.6372703538
  N         3.2485871470        5.5958886429        3.2290489070
 Ga         3.2498728858        5.5965289922        5.2401015784
  N         3.2506052709        7.4661829308        5.8497021230
 Ga         3.2532513916        7.4670354216        7.8496955949
  N         3.2514403901        5.5960947992        8.4558352414
 Ga         3.2543673755        5.5979187973       10.4552931284
  N         3.2564239267        7.4725461307       11.0529741553
 Ga         3.2569896443        7.4731557215       13.0519855166
  N         3.2500554064        5.5972929377       13.6354189301
 Ga         3.2558968808        5.6083650932       15.6441124816
  N         3.2795256438        7.4903681341       16.1548632463
 Ga         3.3309198775        7.4929011218       18.1646810668
  N         3.3593042381        5.5750042715       18.4751222619
  O         1.4791670450        4.9520037784       21.1713487132
  H         0.9703572127        5.4448899175       20.4428824678
  C         0.6201545464        3.8507211919       21.6606425614