     156
 i =        1, E =     -6136.5387778360
 Ga        -0.0031972782       -0.0158329557       -0.5375912841
  N        -0.0002729711        1.8584779566        0.6070051794
 Ga        -0.0003340867        1.8280291747        2.6383739779
  N        -0.0033776403       -0.0156159288        3.2696655656
 Ga        -0.0021652034       -0.0150505492        5.2603836902
  N         0.0008175838        1.8596742089        5.8482874206
 Ga         0.0022933370        1.8581496214        7.8482618065
  N         0.0008336071       -0.0150046020        8.4506001335
 Ga         0.0037473071       -0.0157253272       10.4498051144
  N         0.0042754703        1.8600703128       11.0415433667
 Ga         0.0095644866        1.8622510509       13.0320177951
  N         0.0153341379       -0.0087491924       13.6325023023
 Ga         0.0304221506       -0.0177890354       15.6248617609
  N         0.0199027237        1.8575300386       16.2217243629
 Ga         0.0448559532        1.8472418402       18.2879005373
  N         0.0484307215       -0.0267913301       18.6984064165
 Ga        -1.6230535171        2.7898790376        0.3238587558
  N        -1.6248092908        4.6597398918        0.6067062597
 Ga        -1.5956879034        4.6757302438        2.6367595734
  N        -1.6231060880        2.7899846955        3.2283043837
 Ga        -1.6217675171        2.7906188128        5.2398517849
  N        -1.6212821456        4.6608904097        5.8464785568
 Ga        -1.6191122415        4.6615345023        7.8452229647
  N        -1.6203688422        2.7918379176        8.4512037206
 Ga        -1.6194715764        2.7953510238       10.4471983396
  N        -1.6174690197        4.6668745831       11.0551890974
 Ga        -1.6181889204        4.6714164637       13.0527508175
  N        -1.6072591480        2.7998428388       13.6584108708
 Ga        -1.6007444353        2.8164324769       15.6629698825
  N        -1.5864087947        4.6838669209       16.3117060439
 Ga        -1.5145819048        4.6808862499       18.3864618410
  N        -1.5542766209        2.7885851828       18.7557280532
 Ga        -3.2437385481        5.5955550206        0.3237772986
  N        -3.2373752129        7.4661486078        0.6072631456
 Ga        -3.2641809018        7.4807090867        2.6385130679
  N        -3.2426867347        5.5950414641        3.2286430928
 Ga        -3.2419166493        5.5960175260        5.2401000614
  N        -3.2357829891        7.4663006752        5.8469786351
 Ga        -3.2358772013        7.4670837692        7.8461572947
  N        -3.2398784986        5.5961818210        8.4495238189
 Ga        -3.2389547863        5.5972418704       10.4449860642
  N        -3.2308423782        7.4658238021       11.0556311248
 Ga        -3.2219166705        7.4629444368       13.0544320411
  N        -3.2355801536        5.5972822880       13.6928752454
 Ga        -3.2226677540        5.5919504145       15.7299504315
  N        -3.2086151603        7.4742584597       16.2705194650
 Ga        -3.1858877118        7.4478335686       18.3277893223
  N        -3.1588219537        5.5862418741       18.8507315242
 Ga         3.2425511544       -0.0154445132        0.3241644366
  N         3.2414640691        1.8548065761        0.6064068276
 Ga         3.2696599569        1.8704491918        2.6372727470
  N         3.2428080532       -0.0153018487        3.2283055262
 Ga         3.2440036813       -0.0146003673        5.2399776127
  N         3.2446612997        1.8555404052        5.8474800641
 Ga         3.2471218087        1.8563013443        7.8469031690
  N         3.2448897895       -0.0146528916        8.4498553855
 Ga         3.2477498431       -0.0140948810       10.4454104873
  N         3.2516261754        1.8569300535       11.0512251157
 Ga         3.2584327156        1.8539942224       13.0485868716
  N         3.2578003699       -0.0166563832       13.6599111478
 Ga         3.2697877465       -0.0187845787       15.6658003896
  N         3.2837278141        1.8547221606       16.2308528547
 Ga         3.3197567855        1.8603293975       18.2552874472
  N         3.3063445279       -0.0256801060       18.7099362970
 Ga         1.6221356398        2.7905838979        0.3237609277
  N         1.6293375345        4.6603703554        0.6070270512
 Ga         1.6011639773        4.6758749966        2.6371234378
  N         1.6229363957        2.7900954633        3.2290399581
 Ga         1.6243016878        2.7909481648        5.2409022994
  N         1.6297316087        4.6611464358        5.8483962407
 Ga         1.6302394942        4.6616194578        7.8483652341
  N         1.6261117137        2.7902915416        8.4496245231
 Ga         1.6296900023        2.7921066544       10.4450802393
  N         1.6277769221        4.6624129720       11.0490843858
 Ga         1.6291515249        4.6647110034       13.0447482119
  N         1.6312526885        2.7873647502       13.6464273608
 Ga         1.6546428311        2.7849700732       15.6411231595
  N         1.6291772155        4.6650184889       16.1844118687
 Ga         1.6783987901        4.6402379624       18.1815089695
  N         1.6849086699        2.7776194896       18.6346641793
 Ga         0.0031267612        5.5957809189       -0.5460642106
  N         0.0059631067        7.4707668934        0.6066930124
 Ga         0.0060797904        7.4382904776        2.6368399771
  N         0.0030123520        5.5951899684        3.2695541707
 Ga         0.0046920851        5.5962069711        5.2597938451
  N         0.0074732533        7.4707308022        5.8477472929
 Ga         0.0089324011        7.4693599384        7.8473842587
  N         0.0049614128        5.5956919333        8.4475049633
 Ga         0.0067209118        5.5972398526       10.4447831732
  N         0.0116956905        7.4694089323       11.0449569397
 Ga         0.0151580578        7.4714137009       13.0370560955
  N         0.0057036583        5.6027636229       13.6456519115
 Ga         0.0064378088        5.6014666100       15.6418741651
  N         0.0373072818        7.4659246312       16.2692626085
 Ga         0.0724417084        7.4323595163       18.3565127347
  N         0.1386029485        5.5810248269       18.8979676170
 Ga         6.4873194332       -0.0150112739        0.3233788522
  N         6.4933547118        1.8552431809        0.6060790483
 Ga         6.4660948512        1.8703007489        2.6370722521
  N         6.4880555466       -0.0152152344        3.2289189966
 Ga         6.4897976590       -0.0146100511        5.2408739649
  N         6.4945650470        1.8559331622        5.8479447651
 Ga         6.4944340760        1.8568657372        7.8475077511
  N         6.4910153645       -0.0135251663        8.4515890732
 Ga         6.4945765041       -0.0112821799       10.4481907476
  N         6.4964390326        1.8611465874       11.0529155933
 Ga         6.5008890538        1.8654485571       13.0501047444
  N         6.4899579646       -0.0070135993       13.6381409656
 Ga         6.5089547039       -0.0000948151       15.6390316129
  N         6.5164006764        1.8736483545       16.2291422550
 Ga         6.5725099810        1.8765764745       18.2703550164
  N         6.5609097403       -0.0215369444       18.6559987371
 Ga         4.8675978404        2.7916177130       -0.5407198475
  N         4.8709926214        4.6643843241        0.6069524648
 Ga         4.8708433997        4.6332337815        2.6375489895
  N         4.8683123859        2.7899033753        3.2692953827
 Ga         4.8696074687        2.7911736102        5.2595366350
  N         4.8722550302        4.6651828074        5.8481350626
 Ga         4.8727500171        4.6640323549        7.8478275727
  N         4.8709692326        2.7914543360        8.4504724190
 Ga         4.8737841035        2.7956388261       10.4497176967
  N         4.8796232094        4.6660298995       11.0584001471
 Ga         4.8809983088        4.6697928655       13.0608864904
  N         4.8759918814        2.7957771440       13.6539430081
 Ga         4.8829491867        2.8016749213       15.6676664262
  N         4.8620547318        4.6739458323       16.1684281427
 Ga         4.9331481675        4.6623454772       19.0914324445
  N         4.9399621874        2.7836086573       18.7399141760
 Ga         3.2489114425        5.5950410656        0.3233219195
  N         3.2480356323        7.4655301250        0.6067738218
 Ga         3.2754808504        7.4805716678        2.6380902655
  N         3.2486685847        5.5952812450        3.2290940415
 Ga         3.2500911190        5.5963525033        5.2407689995
  N         3.2504882123        7.4661953692        5.8494262540
 Ga         3.2531339159        7.4666192678        7.8498742750
  N         3.2515173132        5.5959996380        8.4552013962
 Ga         3.2549088016        5.5976517622       10.4543270753
  N         3.2566803478        7.4714398584       11.0506641021
 Ga         3.2573429744        7.4729097138       13.0478796757
  N         3.2491317225        5.5986988493       13.6294712805
 Ga         3.2565006840        5.6058822667       15.6353025061
  N         3.2799411622        7.4864952678       16.1587932359
 Ga         3.3269212213        7.4923980147       18.1721173213
  N         3.3626366911        5.5701762069       18.4641221297
  O         1.6360651783        5.1895550924       21.1919246843
  H         0.9793892277        5.4212047770       20.4479540320
  C         0.7904295763        3.9013112864       21.9361658657
  H         0.0907301517        3.5203983537       21.1727763915
  H         1.5672637418        3.1713136795       22.2057476061
  H         0.2940864794        4.3735464399       22.7998520835
  O         4.2522229568        4.7162099420       21.0736471963
  H         3.2453602235        4.8650253223       21.0705132657
  C         4.5520476398        3.5950149303       21.9443865149
  H         4.1176051790        2.6618615117       21.5597212057
  H         5.6438362830        3.5048080947       21.9645913408
  H         4.1782573561        3.8119744436       22.9531811217
     156
 i =        2, E =     -6136.5778831949
 Ga        -0.0031846202       -0.0158357568       -0.5430363924
  N        -0.0002241199        1.8587841392        0.6074123343
 Ga        -0.0002083721        1.8276128244        2.6378357443
  N        -0.0033097863       -0.0156371317        3.2702775757
 Ga        -0.0021252584       -0.0150336443        5.2604092669
  N         0.0009598237        1.8597859710        5.8486950978
 Ga         0.0025709634        1.8583544782        7.8485748696
  N         0.0010667720       -0.0151262521        8.4496526667
 Ga         0.0043590281       -0.0153546062       10.4484675649
  N         0.0043399414        1.8598701381       11.0464862690
 Ga         0.0110248747        1.8616287094       13.0385135091
  N         0.0171016213       -0.0093932906       13.6398839923
 Ga         0.0336539135       -0.0270237354       15.6331555293
  N         0.0266610619        1.8557881985       16.2166373669
 Ga         0.0469578408        1.8520356815       18.2785742801
  N         0.0425649039       -0.0189972651       18.6883562293
 Ga        -1.6226176044        2.7897231501        0.3242983423
  N        -1.6246596213        4.6597564106        0.6063990911
 Ga        -1.5959040509        4.6756039662        2.6366050645
  N        -1.6228829333        2.7898305334        3.2283457513
 Ga        -1.6216945913        2.7907570705        5.2398109281
  N        -1.6211008853        4.6610508837        5.8468788677
 Ga        -1.6190061729        4.6619794293        7.8455191370
  N        -1.6204056235        2.7920754278        8.4509429813
 Ga        -1.6191186195        2.7955758926       10.4467329135
  N        -1.6176742962        4.6666290283       11.0564339720
 Ga        -1.6190237285        4.6701983357       13.0544496470
  N        -1.6057113938        2.7992763359       13.6643870035
 Ga        -1.6017953954        2.8144434081       15.6689586374
  N        -1.5899109048        4.6787670867       16.3097404951
 Ga        -1.5190015996        4.6805429456       18.3840286873
  N        -1.5510706405        2.7866381143       18.7418154553
 Ga        -3.2435849221        5.5959260262        0.3242443822
  N        -3.2369935834        7.4659805725        0.6076750339
 Ga        -3.2644426985        7.4808464040        2.6380141058
  N        -3.2426753865        5.5951949051        3.2286893070
 Ga        -3.2418190035        5.5960084048        5.2400018144
  N        -3.2356144643        7.4663683339        5.8471482708
 Ga        -3.2355351514        7.4670161872        7.8461205328
  N        -3.2398396189        5.5963769702        8.4501632017
 Ga        -3.2390732581        5.5972926199       10.4458803870
  N        -3.2310128274        7.4661765152       11.0554603854
 Ga        -3.2227780425        7.4621153897       13.0542362219
  N        -3.2366234086        5.5968243925       13.6925838070
 Ga        -3.2244798072        5.5900483616       15.7302052653
  N        -3.2034246213        7.4645541311       16.2759487051
 Ga        -3.1930726619        7.4443472401       18.3319913098
  N        -3.1556305329        5.5865221250       18.8578175870
 Ga         3.2423533800       -0.0156941995        0.3245876690
  N         3.2416647527        1.8548796949        0.6060425589
 Ga         3.2695824791        1.8703528908        2.6372312131
  N         3.2426939738       -0.0153885568        3.2283347085
 Ga         3.2442519307       -0.0145799709        5.2398612605
  N         3.2447155546        1.8555522078        5.8477479056
 Ga         3.2473046977        1.8562675997        7.8469289710
  N         3.2448560790       -0.0145190720        8.4499617036
 Ga         3.2475313798       -0.0138663123       10.4453299490
  N         3.2520819246        1.8571375270       11.0515222414
 Ga         3.2595197578        1.8529471580       13.0485155797
  N         3.2554575838       -0.0166023798       13.6612349415
 Ga         3.2634279677       -0.0183222061       15.6675401765
  N         3.2841837717        1.8509325033       16.2377288858
 Ga         3.3233511811        1.8608178631       18.2642923571
  N         3.2978286019       -0.0227149454       18.7297907887
 Ga         1.6218214662        2.7904494218        0.3242960160
  N         1.6292867759        4.6603987909        0.6067821700
 Ga         1.6015858775        4.6756839125        2.6369934197
  N         1.6228783725        2.7899578543        3.2290937500
 Ga         1.6244435480        2.7911200826        5.2407804893
  N         1.6297777734        4.6612570555        5.8486940597
 Ga         1.6303212609        4.6619016939        7.8484626966
  N         1.6265609874        2.7905947153        8.4496659612
 Ga         1.6296799877        2.7921652733       10.4450829202
  N         1.6277948465        4.6626725876       11.0473809548
 Ga         1.6262423528        4.6654600813       13.0429397599
  N         1.6343787892        2.7886777221       13.6472665298
 Ga         1.6593011159        2.7881667450       15.6408310606
  N         1.6263821410        4.6632613963       16.1785980947
 Ga         1.6796212690        4.6433639975       18.1778427972
  N         1.6844760308        2.7815011262       18.6244033634
 Ga         0.0032439875        5.5956996921       -0.5451277584
  N         0.0060224864        7.4706265651        0.6064636226
 Ga         0.0061590295        7.4386061603        2.6367630526
  N         0.0031305487        5.5951697220        3.2690276643
 Ga         0.0048485776        5.5963068614        5.2594983682
  N         0.0075731908        7.4707068387        5.8483324548
 Ga         0.0088817827        7.4693800275        7.8478458951
  N         0.0051397366        5.5957432247        8.4475819287
 Ga         0.0063442001        5.5969976136       10.4447897368
  N         0.0116938772        7.4695511708       11.0441802701
 Ga         0.0142808598        7.4728499849       13.0363650557
  N         0.0039069561        5.6043758509       13.6453949559
 Ga         0.0065606329        5.5980973410       15.6435097988
  N         0.0404341765        7.4723464887       16.2582306090
 Ga         0.0598081540        7.4394868359       18.3479576320
  N         0.1326642206        5.5851468926       18.8813784632
 Ga         6.4876546158       -0.0152702887        0.3238392651
  N         6.4932699748        1.8553212932        0.6057047847
 Ga         6.4662773070        1.8701529454        2.6370078330
  N         6.4883044217       -0.0153084418        3.2289968220
 Ga         6.4897953288       -0.0146554853        5.2407837805
  N         6.4946825057        1.8558858784        5.8482258821
 Ga         6.4943632731        1.8568928447        7.8476064694
  N         6.4910238376       -0.0134382533        8.4511214804
 Ga         6.4945567664       -0.0104601901       10.4476204804
  N         6.4967149230        1.8619089396       11.0547850337
 Ga         6.5017083022        1.8675273368       13.0525015034
  N         6.4916922788       -0.0057309932       13.6334220332
 Ga         6.5114787303        0.0017131620       15.6328185841
  N         6.5166696382        1.8711202119       16.2350252434
 Ga         6.5721387996        1.8732056692       18.2775069419
  N         6.5571272773       -0.0252091088       18.6636555120
 Ga         4.8676693851        2.7915071880       -0.5387901954
  N         4.8710645427        4.6641712465        0.6065573257
 Ga         4.8708809374        4.6334128504        2.6374815436
  N         4.8683883529        2.7899187166        3.2690699344
 Ga         4.8697006157        2.7912518178        5.2594441498
  N         4.8723410120        4.6652911088        5.8484500174
 Ga         4.8728449423        4.6642880885        7.8480125981
  N         4.8709811476        2.7916177041        8.4502903390
 Ga         4.8740240686        2.7956613290       10.4492470760
  N         4.8790074933        4.6657460766       11.0582243708
 Ga         4.8805361253        4.6701606664       13.0614122201
  N         4.8751894008        2.7967655218       13.6584068418
 Ga         4.8826393741        2.7989218690       15.6748340328
  N         4.8544468833        4.6743180773       16.1576106181
 Ga         4.9410640527        4.6585940173       19.0970681117
  N         4.9424123261        2.7832036885       18.7441758966
 Ga         3.2488699610        5.5953768252        0.3238442263
  N         3.2477825504        7.4653337828        0.6072934043
 Ga         3.2758629492        7.4806829622        2.6376765663
  N         3.2487848468        5.5954326330        3.2292221375
 Ga         3.2501435924        5.5963644159        5.2407202116
  N         3.2505091435        7.4662162521        5.8496860127
 Ga         3.2530889271        7.4665615138        7.8499825136
  N         3.2515391958        5.5960580343        8.4548170465
 Ga         3.2548619774        5.5980115518       10.4538985990
  N         3.2571086125        7.4723628139       11.0489596984
 Ga         3.2589946002        7.4749136724       13.0461570486
  N         3.2464312948        5.6006990060       13.6225980843
 Ga         3.2542655806        5.6083545852       15.6280698285
  N         3.2773365884        7.4853901327       16.1601916918
 Ga         3.3228404896        7.4900241809       18.1741298084
  N         3.3778852298        5.5635069481       18.4448460358
  O         1.6792276892        5.3153808318       21.1835971366
  H         0.9959798825        5.4479597583       20.4211035088
  C         0.7441836648        3.8179740691       21.9758601094
  H         0.0697588181        3.4955349897       21.1703136447
  H         1.5703851117        3.1428711939       22.2215500942
  H         0.2832144674        4.3509768331       22.8158695541
  O         4.2483520775        4.7104573721       21.0734027693
  H         3.2437585650        4.8948447107       21.0495988517
  C         4.5665921302        3.5956748822       21.9425334369
  H         4.1203916857        2.6663066288       21.5600032925
  H         5.6553081193        3.4864528389       21.9780275735
  H         4.1802108860        3.8114691094       22.9477133738
     156
 i =        3, E =     -6136.5846642739
 Ga        -0.0031428542       -0.0158351390       -0.5452791080
  N        -0.0001675836        1.8589364706        0.6074154855
 Ga        -0.0001705997        1.8273515294        2.6376521956
  N        -0.0032049882       -0.0156517835        3.2705679044
 Ga        -0.0019525428       -0.0148920735        5.2606687891
  N         0.0010375613        1.8599052189        5.8483231118
 Ga         0.0026595568        1.8586727131        7.8479496924
  N         0.0013937424       -0.0144691457        8.4498197598
 Ga         0.0050084825       -0.0141565599       10.4484447540
  N         0.0046106470        1.8598177799       11.0499278317
 Ga         0.0120687306        1.8602347500       13.0432895922
  N         0.0180951157       -0.0115201765       13.6428753824
 Ga         0.0349706449       -0.0311673891       15.6365852359
  N         0.0307790495        1.8543801560       16.2132684727
 Ga         0.0475887063        1.8551601796       18.2715759251
  N         0.0384654769       -0.0155840163       18.6819273111
 Ga        -1.6223592381        2.7899132738        0.3246200265
  N        -1.6242688834        4.6599370713        0.6066267840
 Ga        -1.5957801282        4.6755752958        2.6368950970
  N        -1.6226966161        2.7897990754        3.2284473192
 Ga        -1.6214594671        2.7908180335        5.2400351946
  N        -1.6211128359        4.6610869010        5.8466719545
 Ga        -1.6190801538        4.6617532160        7.8454762429
  N        -1.6199413082        2.7919768298        8.4523389198
 Ga        -1.6183880484        2.7953232211       10.4482601843
  N        -1.6179458551        4.6660535804       11.0574419649
 Ga        -1.6196610432        4.6695535441       13.0558025205
  N        -1.6046863853        2.7988572192       13.6674423241
 Ga        -1.6016779033        2.8121567237       15.6721105976
  N        -1.5926050962        4.6749514094       16.3078501450
 Ga        -1.5197671823        4.6826886305       18.3819040512
  N        -1.5486254043        2.7874612159       18.7355010296
 Ga        -3.2432352540        5.5959873050        0.3244922175
  N        -3.2367498553        7.4658711247        0.6076034491
 Ga        -3.2645843180        7.4809671880        2.6377488905
  N        -3.2425425182        5.5953067426        3.2286394903
 Ga        -3.2416585505        5.5961409776        5.2400835090
  N        -3.2355273718        7.4663425565        5.8469761811
 Ga        -3.2355402408        7.4670443291        7.8459746048
  N        -3.2395990924        5.5965138747        8.4507323591
 Ga        -3.2389485276        5.5970062685       10.4468379172
  N        -3.2314766624        7.4661223148       11.0551463400
 Ga        -3.2228360890        7.4618359836       13.0538042423
  N        -3.2381952267        5.5962659828       13.6903603343
 Ga        -3.2246024349        5.5888042519       15.7277455830
  N        -3.2016842313        7.4589173175       16.2796747533
 Ga        -3.1974072364        7.4425126746       18.3363213946
  N        -3.1519591253        5.5868035884       18.8661275336
 Ga         3.2425145270       -0.0159909698        0.3248453254
  N         3.2416737469        1.8548166797        0.6059702645
 Ga         3.2696251021        1.8703011462        2.6375585764
  N         3.2427147831       -0.0154913585        3.2283400153
 Ga         3.2442012097       -0.0145883407        5.2400203302
  N         3.2448370370        1.8556068331        5.8474390651
 Ga         3.2472457461        1.8565664504        7.8468081407
  N         3.2447532369       -0.0142895610        8.4501359191
 Ga         3.2471778401       -0.0137395866       10.4457238404
  N         3.2527610507        1.8571488405       11.0517351627
 Ga         3.2600165164        1.8538412038       13.0486432077
  N         3.2540421782       -0.0154301273       13.6602761230
 Ga         3.2610681177       -0.0184702124       15.6668098194
  N         3.2846770711        1.8483174835       16.2432323949
 Ga         3.3227855042        1.8631798234       18.2716437320
  N         3.2943482830       -0.0209657118       18.7400547243
 Ga         1.6216825601        2.7906185214        0.3245911488
  N         1.6290540779        4.6605523239        0.6070516328
 Ga         1.6016089051        4.6756791830        2.6373303749
  N         1.6228690781        2.7898768248        3.2291117377
 Ga         1.6244227269        2.7910825815        5.2409591428
  N         1.6298563087        4.6612635287        5.8484607904
 Ga         1.6303502861        4.6617458668        7.8486196338
  N         1.6263697093        2.7903351532        8.4507923361
 Ga         1.6295931505        2.7917305713       10.4465818941
  N         1.6271003458        4.6627194957       11.0456297809
 Ga         1.6248076438        4.6662958455       13.0407069243
  N         1.6357401849        2.7900704155       13.6467129891
 Ga         1.6626361297        2.7884953879       15.6398180924
  N         1.6237677785        4.6631686161       16.1722518047
 Ga         1.6813033574        4.6455898985       18.1711646695
  N         1.6826809656        2.7866147518       18.6220989943
 Ga         0.0033260280        5.5956324743       -0.5458520313
  N         0.0060935635        7.4702080587        0.6066546065
 Ga         0.0062372513        7.4385390952        2.6370099289
  N         0.0031778181        5.5951859450        3.2692126410
 Ga         0.0048595451        5.5962977671        5.2597213627
  N         0.0076351038        7.4707911127        5.8480481939
 Ga         0.0089772585        7.4695173930        7.8478915476
  N         0.0049006604        5.5957329177        8.4478152242
 Ga         0.0055444498        5.5971761163       10.4453767788
  N         0.0114955767        7.4700400331       11.0444184066
 Ga         0.0134548404        7.4731149927       13.0370740128
  N         0.0029015006        5.6043789992       13.6445224135
 Ga         0.0049506733        5.5981716173       15.6433572342
  N         0.0402748916        7.4757396702       16.2565707039
 Ga         0.0512386805        7.4418980286       18.3444751156
  N         0.1341029434        5.5849492448       18.8707964485
 Ga         6.4876402352       -0.0155778372        0.3240895985
  N         6.4933919767        1.8552398838        0.6056430778
 Ga         6.4664507279        1.8701400341        2.6373515803
  N         6.4884177178       -0.0153812319        3.2290358208
 Ga         6.4899807190       -0.0146007768        5.2410073885
  N         6.4948355049        1.8560168435        5.8478091638
 Ga         6.4948090820        1.8572913671        7.8472780464
  N         6.4910763505       -0.0128938238        8.4517868417
 Ga         6.4947580307       -0.0094602428       10.4488032378
  N         6.4967791385        1.8632384058       11.0553017560
 Ga         6.5025674539        1.8691951676       13.0530650066
  N         6.4923724014       -0.0040116455       13.6309444724
 Ga         6.5099114828        0.0024244528       15.6294211012
  N         6.5173653272        1.8693345608       16.2387717520
 Ga         6.5737818299        1.8695072013       18.2829979631
  N         6.5543233746       -0.0300876106       18.6671120335
 Ga         4.8677594837        2.7914500660       -0.5378556877
  N         4.8711272560        4.6642272550        0.6064552992
 Ga         4.8710099735        4.6334430892        2.6377768073
  N         4.8684789934        2.7898991654        3.2691887349
 Ga         4.8698278583        2.7913339752        5.2597307897
  N         4.8725742759        4.6653745014        5.8482266599
 Ga         4.8730583190        4.6643732799        7.8480822195
  N         4.8712361646        2.7914999060        8.4505672549
 Ga         4.8741620845        2.7960274392       10.4496443517
  N         4.8788106969        4.6657782095       11.0579666805
 Ga         4.8792458701        4.6689964510       13.0613905649
  N         4.8755960619        2.7964047304       13.6613707604
 Ga         4.8823151496        2.7956209462       15.6796979675
  N         4.8493613776        4.6756812698       16.1499858253
 Ga         4.9483852277        4.6526751603       19.0967085897
  N         4.9455726284        2.7771312343       18.7523618845
 Ga         3.2486598226        5.5954396563        0.3240833639
  N         3.2476787906        7.4652134547        0.6072859969
 Ga         3.2761655227        7.4808354093        2.6374547332
  N         3.2488807124        5.5955309360        3.2292295928
 Ga         3.2502734709        5.5964775783        5.2409632890
  N         3.2506751371        7.4663294580        5.8494537808
 Ga         3.2532856956        7.4669284814        7.8499486975
  N         3.2516295821        5.5962937875        8.4548084350
 Ga         3.2547227582        5.5980887317       10.4543676574
  N         3.2581957210        7.4731901533       11.0468022266
 Ga         3.2590817682        7.4770089008       13.0433798610
  N         3.2447974123        5.6030208433       13.6170316600
 Ga         3.2520095174        5.6104579794       15.6216050360
  N         3.2741891505        7.4855337266       16.1602449467
 Ga         3.3193928822        7.4878781764       18.1748792859
  N         3.3899823451        5.5573378127       18.4275411001
  O         1.7043365033        5.3775329856       21.1766756427
  H         1.0287109223        5.4899888543       20.4149800471
  C         0.7148265375        3.7692463463       22.0018759092