     156
 i =        1, E =     -6136.6007942188
 Ga        -0.0031980037       -0.0157470024       -0.5343438055
  N        -0.0002886623        1.8585522027        0.6064061301
 Ga        -0.0003441845        1.8278571713        2.6380916269
  N        -0.0034216425       -0.0156307757        3.2695677629
 Ga        -0.0021971182       -0.0150479941        5.2603250403
  N         0.0008063057        1.8595880478        5.8482008352
 Ga         0.0022111997        1.8581612115        7.8480978576
  N         0.0007868465       -0.0150686215        8.4504127542
 Ga         0.0038090972       -0.0152564502       10.4497079420
  N         0.0041164997        1.8599824512       11.0442749362
 Ga         0.0090103156        1.8630728360       13.0360173173
  N         0.0156056617       -0.0100117689       13.6287890901
 Ga         0.0280098219       -0.0079000288       15.6194282060
  N         0.0135345892        1.8569602218       16.2262692512
 Ga         0.0439511652        1.8436391871       18.2885652104
  N         0.0515729118       -0.0314893805       18.7046982413
 Ga        -1.6232031915        2.7901256843        0.3241467417
  N        -1.6246906645        4.6598161448        0.6069763348
 Ga        -1.5957506953        4.6757277623        2.6368232166
  N        -1.6229311272        2.7899171662        3.2283029924
 Ga        -1.6217385865        2.7906072888        5.2398895999
  N        -1.6212929666        4.6609171263        5.8464684056
 Ga        -1.6191540606        4.6613718216        7.8451041890
  N        -1.6203800952        2.7917815254        8.4509744411
 Ga        -1.6191390703        2.7950802392       10.4470782946
  N        -1.6174080475        4.6667297577       11.0552706402
 Ga        -1.6180160720        4.6707157733       13.0524795196
  N        -1.6096628345        2.8003608042       13.6549141209
 Ga        -1.5955687612        2.8135943475       15.6568818425
  N        -1.5868439134        4.6811140937       16.3073322096
 Ga        -1.5167845360        4.6828021676       18.3844785675
  N        -1.5540100715        2.7890777329       18.7659356053
 Ga        -3.2435998618        5.5952989433        0.3240759674
  N        -3.2373407703        7.4661159890        0.6066237887
 Ga        -3.2643708462        7.4808137940        2.6382006885
  N        -3.2426887004        5.5952881018        3.2286294170
 Ga        -3.2419028513        5.5960213102        5.2400675333
  N        -3.2358415181        7.4662975479        5.8469250707
 Ga        -3.2359099098        7.4670683215        7.8460077740
  N        -3.2399054157        5.5961573339        8.4492247678
 Ga        -3.2387591566        5.5971707691       10.4446124883
  N        -3.2308023957        7.4657779752       11.0553482230
 Ga        -3.2222220682        7.4630727229       13.0533598120
  N        -3.2335288920        5.5986564736       13.6945155471
 Ga        -3.2225600193        5.5928607469       15.7310120151
  N        -3.2141374773        7.4805579246       16.2629343505
 Ga        -3.1825573244        7.4491300615       18.3228619540
  N        -3.1686630061        5.5852191320       18.8537993630
 Ga         3.2428256181       -0.0154166592        0.3244225756
  N         3.2411483843        1.8546436626        0.6064419022
 Ga         3.2695256206        1.8704164589        2.6371810336
  N         3.2425976626       -0.0154408765        3.2282826016
 Ga         3.2439765325       -0.0146564404        5.2399365362
  N         3.2445942620        1.8554969664        5.8474433132
 Ga         3.2470047215        1.8562531245        7.8468269968
  N         3.2449130622       -0.0147475192        8.4495589237
 Ga         3.2477854247       -0.0139745065       10.4450626929
  N         3.2513460301        1.8568917471       11.0512581465
 Ga         3.2581927455        1.8542030487       13.0483693520
  N         3.2569129145       -0.0166376818       13.6603409919
 Ga         3.2736272409       -0.0163899339       15.6663128602
  N         3.2823248658        1.8612980042       16.2229008279
 Ga         3.3166517623        1.8610161091       18.2467987778
  N         3.3107564220       -0.0267778219       18.7028771843
 Ga         1.6222520813        2.7908271222        0.3240455228
  N         1.6291640131        4.6604551249        0.6072631217
 Ga         1.6011710048        4.6758554810        2.6371479042
  N         1.6226954231        2.7900624213        3.2290384481
 Ga         1.6242078089        2.7909334852        5.2408947378
  N         1.6297117586        4.6611589764        5.8483573532
 Ga         1.6300916816        4.6614554795        7.8481471098
  N         1.6260259365        2.7902594445        8.4493754422
 Ga         1.6292139446        2.7915195093       10.4448845523
  N         1.6276761906        4.6622857951       11.0485796167
 Ga         1.6292119411        4.6631251880       13.0434318707
  N         1.6325161455        2.7875024301       13.6463489733
 Ga         1.6460126322        2.7779930480       15.6410117982
  N         1.6331788068        4.6642258999       16.1836281003
 Ga         1.6800973966        4.6397146659       18.1835727606
  N         1.6838139219        2.7757583986       18.6432518861
 Ga         0.0031055650        5.5957669680       -0.5475714588
  N         0.0059429482        7.4706273263        0.6069494207
 Ga         0.0060516033        7.4383364048        2.6369127376
  N         0.0029984796        5.5951908591        3.2695997525
 Ga         0.0046672147        5.5961929800        5.2597742196
  N         0.0074521152        7.4707080882        5.8476659836
 Ga         0.0088465149        7.4693271384        7.8471018518
  N         0.0049301473        5.5957333765        8.4470594697
 Ga         0.0064538170        5.5971901273       10.4441833922
  N         0.0117406908        7.4693064370       11.0459198867
 Ga         0.0146837943        7.4716851562       13.0384858382
  N         0.0065478898        5.6020459655       13.6466783752
 Ga         0.0043946304        5.6023764470       15.6425732536
  N         0.0356228376        7.4626955640       16.2747375198
 Ga         0.0793483267        7.4294766825       18.3607260925
  N         0.1441711871        5.5765624626       18.9138905448
 Ga         6.4870118106       -0.0149809664        0.3236467506
  N         6.4936265589        1.8550917934        0.6060916204
 Ga         6.4661547719        1.8702436947        2.6369659786
  N         6.4882219082       -0.0153799693        3.2288692848
 Ga         6.4897524491       -0.0146755658        5.2407811112
  N         6.4945255327        1.8558599529        5.8478833504
 Ga         6.4945041586        1.8569211851        7.8473994262
  N         6.4909611710       -0.0136294884        8.4511360213
 Ga         6.4944206523       -0.0111586499       10.4476040354
  N         6.4966940806        1.8609874941       11.0533164811
 Ga         6.5000777511        1.8659290554       13.0502433742
  N         6.4900773555       -0.0073224644       13.6405427092
 Ga         6.5057902526        0.0018812534       15.6423497097
  N         6.5208448412        1.8770718740       16.2252997844
 Ga         6.5723510786        1.8793290022       18.2661980656
  N         6.5646605158       -0.0192567096       18.6536876443
 Ga         4.8675626105        2.7916310545       -0.5417156097
  N         4.8709658473        4.6647300617        0.6069727736
 Ga         4.8708067622        4.6333608985        2.6374342396
  N         4.8682837231        2.7899328431        3.2692549798
 Ga         4.8695574627        2.7911208697        5.2595169236
  N         4.8721615466        4.6652119504        5.8480448531
 Ga         4.8728075025        4.6639350221        7.8476459924
  N         4.8709146537        2.7913916297        8.4503558702
 Ga         4.8738087547        2.7952533183       10.4497528580
  N         4.8797079024        4.6660315432       11.0586350384
 Ga         4.8827735832        4.6695424530       13.0611939708
  N         4.8751919362        2.7951688815       13.6529481219
 Ga         4.8853602725        2.7999424542       15.6646970160
  N         4.8652206304        4.6714690245       16.1728967570
 Ga         4.9206222056        4.6629510780       19.1290079066
  N         4.9379755532        2.7849028966       18.7425454430
 Ga         3.2487346689        5.5947972339        0.3236085457
  N         3.2479677750        7.4655160550        0.6060932113
 Ga         3.2756188362        7.4806773221        2.6377346326
  N         3.2485982037        5.5955293945        3.2290396869
 Ga         3.2499815175        5.5963736900        5.2406485890
  N         3.2504663336        7.4661715092        5.8493119321
 Ga         3.2531592210        7.4666840692        7.8495791805
  N         3.2514375607        5.5959831391        8.4547813238
 Ga         3.2549915597        5.5975476112       10.4537303557
  N         3.2566111473        7.4713675875       11.0516654025
 Ga         3.2580436791        7.4722525715       13.0488094120
  N         3.2490357226        5.5965794099       13.6319540352
 Ga         3.2600965044        5.6068311569       15.6382313014
  N         3.2803343094        7.4897729638       16.1565490199
 Ga         3.3294708057        7.4927943698       18.1706524351
  N         3.3612190021        5.5718750783       18.4706353951
  O         1.8273727178        4.9589233604       21.1627319594
  H         1.0646992251        5.3648480369       20.5623671114
  C         0.8958273292        4.0479061508       21.8476641919
  H         0.1428382114        3.5622138526       21.2035144476
  H         1.5347603892        3.2245410695       22.1816360307
  H         0.3343287014        4.3684345499       22.7405314572
  O         4.0511997677        4.7113122343       21.0612204105
  H         3.0260887235        4.8799101503       21.1172331419
  C         4.5388898629        3.6273897167       21.9207576179
  H         4.1240903987        2.6744454932       21.5649739787
  H         5.6307508876        3.5050161299       21.9648474022
  H         4.1840850345        3.8067050194       22.9433231606
     156
 i =        2, E =     -6136.6264660377
 Ga        -0.0032002216       -0.0157851122       -0.5386891981
  N        -0.0002587335        1.8585376297        0.6070353337
 Ga        -0.0002967533        1.8279630704        2.6382501994
  N        -0.0033624302       -0.0156062333        3.2697218490
 Ga        -0.0021599251       -0.0150434016        5.2603550636
  N         0.0008529439        1.8597092888        5.8484010535
 Ga         0.0023505337        1.8581813898        7.8483529945
  N         0.0008726961       -0.0150137475        8.4504479403
 Ga         0.0037874491       -0.0157158941       10.4496431456
  N         0.0043530701        1.8600154795       11.0422732257
 Ga         0.0099014750        1.8620433901       13.0330333123
  N         0.0155068949       -0.0088334791       13.6343451017
 Ga         0.0311794433       -0.0199698401       15.6267277367
  N         0.0216832031        1.8572289749       16.2193989777
 Ga         0.0447368532        1.8477208661       18.2844088077
  N         0.0469662451       -0.0247004273       18.6986875931
 Ga        -1.6230009014        2.7898335428        0.3241335517
  N        -1.6247179037        4.6597709062        0.6066052910
 Ga        -1.5957065223        4.6757238530        2.6367263723
  N        -1.6230488759        2.7899775187        3.2282397207
 Ga        -1.6217454428        2.7906557505        5.2397882961
  N        -1.6212342400        4.6609208572        5.8466170172
 Ga        -1.6190788684        4.6616353731        7.8453627811
  N        -1.6203604256        2.7918690196        8.4511925681
 Ga        -1.6194394396        2.7954119994       10.4472404480
  N        -1.6175325297        4.6668821095       11.0553760821
 Ga        -1.6182994392        4.6712251196       13.0531444021
  N        -1.6067543407        2.7997493264       13.6599566977
 Ga        -1.6012178214        2.8165314410       15.6648180974
  N        -1.5857923681        4.6843110518       16.3129812278
 Ga        -1.5125868334        4.6831568058       18.3912466840
  N        -1.5529148237        2.7879865150       18.7568568813
 Ga        -3.2437238958        5.5955868016        0.3240471826
  N        -3.2372979763        7.4661179496        0.6072696655
 Ga        -3.2642334566        7.4807246900        2.6384042796
  N        -3.2426525814        5.5950672875        3.2286006713
 Ga        -3.2418943464        5.5960076834        5.2400511987
  N        -3.2357350975        7.4663244663        5.8470354694
 Ga        -3.2358237268        7.4670750834        7.8461907137
  N        -3.2398901194        5.5962254273        8.4496349772
 Ga        -3.2389963107        5.5972550399       10.4452046200
  N        -3.2308992535        7.4659082246       11.0556054586
 Ga        -3.2221603962        7.4628633819       13.0545484272
  N        -3.2361508116        5.5970174957       13.6925801757
 Ga        -3.2227721148        5.5916630500       15.7299624354
  N        -3.2071431032        7.4723632464       16.2721040122
 Ga        -3.1886209274        7.4447909277       18.3301420058
  N        -3.1685337578        5.5795781305       18.8570852517
 Ga         3.2425387964       -0.0154336014        0.3244079024
  N         3.2415468336        1.8548518537        0.6063877498
 Ga         3.2696238778        1.8704313631        2.6372806021
  N         3.2427972728       -0.0153408327        3.2282407368
 Ga         3.2440700546       -0.0145877539        5.2398981631
  N         3.2446617066        1.8555489564        5.8475615525
 Ga         3.2471573401        1.8563010635        7.8469347550
  N         3.2448719674       -0.0146046287        8.4498911306
 Ga         3.2477729504       -0.0140834674       10.4455073954
  N         3.2517462022        1.8569954939       11.0513778055
 Ga         3.2585070628        1.8538558035       13.0488322325
  N         3.2573750344       -0.0166014487       13.6601485793
 Ga         3.2692116689       -0.0190647584       15.6660956336
  N         3.2837588789        1.8535228338       16.2329018778
 Ga         3.3213062986        1.8614204092       18.2588592195
  N         3.3050746553       -0.0262645074       18.7170931239
 Ga         1.6221170109        2.7905450492        0.3240554108
  N         1.6292581398        4.6604056757        0.6069348542
 Ga         1.6012268964        4.6758332146        2.6370812557
  N         1.6229127848        2.7900987749        3.2289906964
 Ga         1.6243279515        2.7909921592        5.2408164532
  N         1.6297331460        4.6611612800        5.8485139257
 Ga         1.6302706454        4.6616898419        7.8484527141
  N         1.6261933563        2.7903429026        8.4496582077
 Ga         1.6297323543        2.7922268066       10.4451674621
  N         1.6278801929        4.6624874920       11.0488487114
 Ga         1.6288206500        4.6648600956       13.0445118791
  N         1.6316466127        2.7877365149       13.6468229642
 Ga         1.6559930955        2.7859949894       15.6410412328
  N         1.6275213381        4.6648674323       16.1819116617
 Ga         1.6763045164        4.6403563009       18.1779337073
  N         1.6837394815        2.7782508322       18.6326830841
 Ga         0.0031675793        5.5957405538       -0.5459245223
  N         0.0059722046        7.4706738786        0.6066117970
 Ga         0.0060915312        7.4383266750        2.6368340915
  N         0.0030444903        5.5951850864        3.2693870153
 Ga         0.0047290311        5.5962213422        5.2596816182
  N         0.0074913156        7.4707205651        5.8479259834
 Ga         0.0089333158        7.4693569994        7.8475674385
  N         0.0050153615        5.5956928437        8.4476069186
 Ga         0.0067215788        5.5972476784       10.4450053771
  N         0.0116904500        7.4694788717       11.0449598163
 Ga         0.0151968590        7.4717079955       13.0372085450
  N         0.0055960688        5.6029633359       13.6443728638
 Ga         0.0068604868        5.6017811611       15.6399779500
  N         0.0382996706        7.4666116989       16.2666725163
 Ga         0.0705131146        7.4284059652       18.3551772011
  N         0.1474205230        5.5792653900       18.9326424721
 Ga         6.4873613613       -0.0150029553        0.3236464514
  N         6.4932947583        1.8552950972        0.6060528116
 Ga         6.4661419553        1.8702607934        2.6370763468
  N         6.4880863773       -0.0152647277        3.2288694624
 Ga         6.4897855798       -0.0146159755        5.2408052829
  N         6.4945943133        1.8559293118        5.8480514639
 Ga         6.4944230484        1.8568542758        7.8476026463
  N         6.4910319067       -0.0135111760        8.4515559950
 Ga         6.4945703598       -0.0112029482       10.4482396333
  N         6.4964003126        1.8612689966       11.0532139567
 Ga         6.5012441460        1.8656020990       13.0506515721
  N         6.4904867817       -0.0068290741       13.6372257043
 Ga         6.5091524945       -0.0004377650       15.6375375950
  N         6.5159964607        1.8725812163       16.2293682421
 Ga         6.5728829037        1.8764450862       18.2710722087
  N         6.5591094100       -0.0222835840       18.6616701539
 Ga         4.8676127542        2.7915632967       -0.5409286471
  N         4.8710097706        4.6642748504        0.6069170523
 Ga         4.8708453775        4.6332918528        2.6375529937
  N         4.8683252969        2.7899101677        3.2691939878
 Ga         4.8696217864        2.7911833589        5.2594614464
  N         4.8722733950        4.6651928624        5.8482363924
 Ga         4.8727488353        4.6640989142        7.8479079428
  N         4.8709638318        2.7914943953        8.4504001006
 Ga         4.8738278141        2.7956811936       10.4496141417
  N         4.8794450959        4.6659933478       11.0581870623
 Ga         4.8805767161        4.6699907734       13.0606918672
  N         4.8760110978        2.7962051167       13.6547025565
 Ga         4.8825995249        2.8010697735       15.6689733985
  N         4.8594540488        4.6746828732       16.1632545229
 Ga         4.9118722590        4.6671396299       19.1454571205
  N         4.9416349602        2.7912622508       18.7418407778
 Ga         3.2489216531        5.5950552421        0.3236054322
  N         3.2479808150        7.4654883375        0.6068114739
 Ga         3.2755596742        7.4805875133        2.6380041454
  N         3.2486513513        5.5953018771        3.2290758472
 Ga         3.2500957402        5.5963472972        5.2407337904
  N         3.2504846237        7.4662007302        5.8495233659
 Ga         3.2531262458        7.4665990756        7.8499662578
  N         3.2515273765        5.5960151849        8.4551402518
 Ga         3.2548617104        5.5977495213       10.4542820071
  N         3.2567514358        7.4715492173       11.0503372721
 Ga         3.2575868943        7.4732895710       13.0475924564
  N         3.2486574692        5.5992341092       13.6282352681
 Ga         3.2545820822        5.6069622028       15.6333616624
  N         3.2795694840        7.4862122855       16.1573050659
 Ga         3.3257720511        7.4957413405       18.1698628176
  N         3.3648928178        5.5713376603       18.4447289444
  O         1.7753330921        4.9519877795       21.1997955064
  H         1.1909467224        5.4116648589       20.4912314574
  C         0.9412754619        3.9595251275       21.8799393604
  H         0.1770938402        3.6088848574       21.1546409908
  H         1.5811275159        3.1487608094       22.2197527979
  H         0.3874588418        4.4556284080       22.7115032000
  O         4.0192704511        4.7161627793       21.0673220563
  H         2.9078881937        4.8211764837       21.1402442434
  C         4.4947233068        3.6274403385       21.9226123304
  H         4.1204801647        2.6579282102       21.5631421360
  H         5.5983773171        3.5542665589       21.9287968469
  H         4.1787304063        3.8130223086       22.9572825511
     156
 i =        3, E =     -6136.6331542823
 Ga        -0.0031956155       -0.0158266543       -0.5423168169
  N        -0.0002243676        1.8587328814        0.6073765997
 Ga        -0.0002406270        1.8277446689        2.6379696767
  N        -0.0033093747       -0.0156255150        3.2701597909
 Ga        -0.0021004168       -0.0150224455        5.2604561159
  N         0.0009258821        1.8597818795        5.8486122598
 Ga         0.0025130106        1.8583365182        7.8484603951
  N         0.0010603315       -0.0149898144        8.4500185696
 Ga         0.0041864258       -0.0153571625       10.4489450521
  N         0.0044208106        1.8599578657       11.0452133978
 Ga         0.0109921101        1.8618049222       13.0368954527
  N         0.0166802729       -0.0092905476       13.6382582156
 Ga         0.0343623519       -0.0258805707       15.6314281065
  N         0.0261963477        1.8564838803       16.2172760699
 Ga         0.0475691564        1.8505024061       18.2808023716
  N         0.0424019836       -0.0203294447       18.6919022282
 Ga        -1.6227509604        2.7897384271        0.3242901601
  N        -1.6246127618        4.6597969325        0.6064474410
 Ga        -1.5957780350        4.6756607709        2.6366418505
  N        -1.6229360006        2.7899134195        3.2283934834
 Ga        -1.6216792670        2.7907486848        5.2398592609
  N        -1.6211423162        4.6609961181        5.8468148070
 Ga        -1.6189976319        4.6618815715        7.8454866447
  N        -1.6203283601        2.7920180634        8.4513199647
 Ga        -1.6191861249        2.7955286788       10.4472201764
  N        -1.6177251003        4.6667710592       11.0557642058
 Ga        -1.6188360822        4.6704272188       13.0535309049
  N        -1.6057464434        2.7997397997       13.6639268976
 Ga        -1.6021655764        2.8176121137       15.6698366289
  N        -1.5852831379        4.6837162767       16.3207941232
 Ga        -1.5102226134        4.6867367005       18.4025887469
  N        -1.5505346133        2.7876715758       18.7451563788
 Ga        -3.2436475628        5.5958107781        0.3241950240
  N        -3.2370675228        7.4660052523        0.6076138302
 Ga        -3.2643360508        7.4807949503        2.6381367485
  N        -3.2426242184        5.5951217763        3.2287336647
 Ga        -3.2418096779        5.5960291645        5.2400948119
  N        -3.2356476577        7.4663562124        5.8471203385
 Ga        -3.2356158324        7.4670532639        7.8461175897
  N        -3.2398117721        5.5963566341        8.4499704863
 Ga        -3.2390415330        5.5972759420       10.4455815310
  N        -3.2310353862        7.4660268713       11.0555436413
 Ga        -3.2222731500        7.4624220754       13.0545227934
  N        -3.2371989655        5.5962023432       13.6922135046
 Ga        -3.2220769179        5.5902675806       15.7309941966
  N        -3.2029811653        7.4658049038       16.2795269931
 Ga        -3.1941469420        7.4395675323       18.3374526235
  N        -3.1732569924        5.5744167091       18.8642406924
 Ga         3.2424063837       -0.0155922903        0.3245798526
  N         3.2416539903        1.8548731840        0.6062891411
 Ga         3.2696406967        1.8703814550        2.6372832953
  N         3.2427897765       -0.0153833822        3.2283858941
 Ga         3.2441786264       -0.0145946137        5.2399488850
  N         3.2447195735        1.8555646926        5.8476612248
 Ga         3.2472662431        1.8563071468        7.8469023338
  N         3.2448466270       -0.0145035399        8.4500533447
 Ga         3.2476323469       -0.0139789123       10.4455486591
  N         3.2520891905        1.8570541469       11.0516428025
 Ga         3.2592296485        1.8532893624       13.0489124858
  N         3.2562730633       -0.0164967026       13.6611873958
 Ga         3.2661750066       -0.0195765970       15.6680075953
  N         3.2842059633        1.8496742820       16.2409937781
 Ga         3.3241098244        1.8618515682       18.2689151689
  N         3.2992618411       -0.0258575683       18.7311767490
 Ga         1.6219502032        2.7904479218        0.3242492597
  N         1.6292495291        4.6604194141        0.6068285534
 Ga         1.6014267131        4.6757638886        2.6370300866
  N         1.6229149502        2.7900256029        3.2291297090
 Ga         1.6244019767        2.7910755689        5.2408572022
  N         1.6297720349        4.6612191034        5.8486463776
 Ga         1.6302988040        4.6618641115        7.8485190258
  N         1.6264319063        2.7904830362        8.4499216295
 Ga         1.6297553152        2.7922409867       10.4454238231
  N         1.6277818017        4.6626413764       11.0476290979
 Ga         1.6274354060        4.6653229470       13.0431323955
  N         1.6336510612        2.7887152262       13.6476218366
 Ga         1.6600928923        2.7876129960       15.6411806509
  N         1.6226283725        4.6641678088       16.1711396449
 Ga         1.6768932078        4.6382023013       18.1612396168
  N         1.6840833938        2.7820459112       18.6268758165
 Ga         0.0032477944        5.5957165779       -0.5452184732
  N         0.0060134916        7.4705824056        0.6064869462
 Ga         0.0061515057        7.4384573212        2.6367654057
  N         0.0031030123        5.5951824784        3.2692676529
 Ga         0.0048002199        5.5962786710        5.2596536697
  N         0.0075518697        7.4707276629        5.8482095405
 Ga         0.0089297693        7.4693684920        7.8478198570
  N         0.0050690326        5.5957198862        8.4478106224
 Ga         0.0064562975        5.5972195725       10.4451719635
  N         0.0116446942        7.4696568424       11.0442362949
 Ga         0.0147130730        7.4727110610       13.0363471066
  N         0.0044354260        5.6038983856       13.6414246912
 Ga         0.0056473946        5.6008933771       15.6366129994
  N         0.0400984258        7.4680897902       16.2619764619
 Ga         0.0626308652        7.4311089823       18.3514110740
  N         0.1600205159        5.5826685703       18.9440399160
 Ga         6.4875832786       -0.0151672905        0.3238378544
  N         6.4932749306        1.8553127322        0.6059542894
 Ga         6.4662347174        1.8702072725        2.6370732970
  N         6.4881937707       -0.0152902809        3.2290518534
 Ga         6.4898224241       -0.0146305269        5.2408959677
  N         6.4946955949        1.8559370536        5.8481521036
 Ga         6.4944399950        1.8569040279        7.8475840796
  N         6.4910298361       -0.0133780149        8.4514748184
 Ga         6.4945740918       -0.0106584791       10.4481561513
  N         6.4965822484        1.8618266138       11.0541920048
 Ga         6.5017802964        1.8668446099       13.0520057236
  N         6.4913166993       -0.0059454608       13.6340286215
 Ga         6.5091621870        0.0003335344       15.6338431426
  N         6.5163370914        1.8710078824       16.2347055942
 Ga         6.5711527811        1.8754176739       18.2778235086
  N         6.5557662826       -0.0241944418       18.6698831684
 Ga         4.8676666758        2.7915034208       -0.5402325078
  N         4.8710627128        4.6641708504        0.6067882091
 Ga         4.8708965353        4.6333357101        2.6375226277
  N         4.8683855808        2.7899071617        3.2692612116
 Ga         4.8697080161        2.7912562401        5.2595375108
  N         4.8723686751        4.6652703842        5.8483823540
 Ga         4.8728371677        4.6642543826        7.8479909695
  N         4.8710131406        2.7915711425        8.4504290436
 Ga         4.8739847925        2.7957505383       10.4494880049
  N         4.8791579653        4.6659386127       11.0579093885
 Ga         4.8795459757        4.6700120200       13.0607231669
  N         4.8756726416        2.7968953536       13.6576311484
 Ga         4.8819159420        2.7982573808       15.6741956386
  N         4.8543279747        4.6753710250       16.1523169003
 Ga         4.9018021207        4.6686916159       19.1701898748
  N         4.9424652344        2.7969726549       18.7438182711
 Ga         3.2489355190        5.5952622853        0.3237978921
  N         3.2478334216        7.4653582648        0.6072322365
 Ga         3.2757502166        7.4806473649        2.6377948992
  N         3.2487440483        5.5953535829        3.2292529715
 Ga         3.2501617798        5.5963742563        5.2408237508
  N         3.2505429646        7.4662376507        5.8496456581
 Ga         3.2531051108        7.4666257903        7.8500121860
  N         3.2515642994        5.5960746346        8.4549848070
 Ga         3.2547694685        5.5980137281       10.4541661615
  N         3.2571229415        7.4722136068       11.0490051727
 Ga         3.2582866848        7.4745448007       13.0462649006
  N         3.2469204440        5.6008898005       13.6244704717
 Ga         3.2514453704        5.6100427824       15.6296284113
  N         3.2785201617        7.4874666919       16.1554886250
 Ga         3.3217209197        7.4968524604       18.1673450878
  N         3.3706614213        5.5686255761       18.4204339124
  O         1.7704183489        4.9844974833       21.2283718780
  H         1.2219785506        5.3947210270       20.4727554666
  C         0.9303875073        3.9712861638       21.8623467435