 DBCSR| Multiplication driver                                               BLAS
 DBCSR| Multrec recursion limit                                              512
 DBCSR| Multiplication stack size                                           1000
 DBCSR| Maximum elements for images                                    UNLIMITED
 DBCSR| Multiplicative factor virtual images                                   1
 DBCSR| Multiplication size stacks                                             3
 DBCSR| Number of 3D layers                                               SINGLE
 DBCSR| Use MPI memory allocation                                              T
 DBCSR| Use RMA algorithm                                                      F
 DBCSR| Use Communication thread                                               T
 DBCSR| Communication thread load                                             87


  **** **** ******  **  PROGRAM STARTED AT               2019-06-30 07:07:51.378
 ***** ** ***  *** **   PROGRAM STARTED ON        blg8210.int.ets1.calculquebec.
 **    ****   ******    PROGRAM STARTED BY                                   rzk
 ***** **    ** ** **   PROGRAM PROCESS ID                                187569
  **** **  *******  **  PROGRAM STARTED IN /scratch/rzk/rzk/GaN-carbene/443-adat
                                           oms-both-2x2/01-Surface/02-GaN-NGa-TD
                                           DFT/02-RKS

 CP2K| version string:                    CP2K version 7.0 (Development Version)
 CP2K| source code revision number:                                    svn:18619
 CP2K| cp2kflags: libint fftw3 libxc parallel mpi3 scalapack mkl                
 CP2K| is freely available from                            https://www.cp2k.org/
 CP2K| Program compiled at                          Sun Apr  7 00:48:11 EDT 2019
 CP2K| Program compiled on                      beluga2.int.ets1.calculquebec.ca
 CP2K| Program compiled for                    Beluga-Linux-x86-64-intel-openmpi
 CP2K| Data directory path    /home/rzk/projects/def-rzk/group/cp2k/cp2k-mcgill/
 CP2K| Input file name                                                 start.inp
 
 GLOBAL| Force Environment number                                              1
 GLOBAL| Basis set file name                                        BASIS_MOLOPT
 GLOBAL| Potential file name                                      GTH_POTENTIALS
 GLOBAL| MM Potential file name                                     MM_POTENTIAL
 GLOBAL| Coordinate file name                                      __STD_INPUT__
 GLOBAL| Method name                                                        CP2K
 GLOBAL| Project name                                                       TEST
 GLOBAL| Preferred FFT library                                             FFTW3
 GLOBAL| Preferred diagonalization lib.                                       SL
 GLOBAL| Run type                                                         ENERGY
 GLOBAL| All-to-all communication in single precision                          F
 GLOBAL| FFTs using library dependent lengths                                  F
 GLOBAL| Global print level                                               MEDIUM
 GLOBAL| MPI I/O enabled                                                       T
 GLOBAL| Total number of message passing processes                            80
 GLOBAL| Number of threads for this process                                    1
 GLOBAL| This output is from process                                           0
 GLOBAL| CPU model name :  Intel(R) Xeon(R) Gold 6148 CPU @ 2.40GHz

 MEMORY| system memory details [Kb]
 MEMORY|                        rank 0           min           max       average
 MEMORY| MemTotal            196614300     196614300     196614300     196614300
 MEMORY| MemFree             183618728     183603132     183662088     183633880
 MEMORY| Buffers                    76            76            76            76
 MEMORY| Cached                1513708       1513708       1576652       1545180
 MEMORY| Slab                  1228576       1212516       1228576       1220546
 MEMORY| SReclaimable           169624        167192        169624        168408
 MEMORY| MemLikelyFree       185302136     185300368     185406008     185347544


 *** Fundamental physical constants (SI units) ***

 *** Literature: B. J. Mohr and B. N. Taylor,
 ***             CODATA recommended values of the fundamental physical
 ***             constants: 2006, Web Version 5.1
 ***             http://physics.nist.gov/constants

 Speed of light in vacuum [m/s]                             2.99792458000000E+08
 Magnetic constant or permeability of vacuum [N/A**2]       1.25663706143592E-06
 Electric constant or permittivity of vacuum [F/m]          8.85418781762039E-12
 Planck constant (h) [J*s]                                  6.62606896000000E-34
 Planck constant (h-bar) [J*s]                              1.05457162825177E-34
 Elementary charge [C]                                      1.60217648700000E-19
 Electron mass [kg]                                         9.10938215000000E-31
 Electron g factor [ ]                                     -2.00231930436220E+00
 Proton mass [kg]                                           1.67262163700000E-27
 Fine-structure constant                                    7.29735253760000E-03
 Rydberg constant [1/m]                                     1.09737315685270E+07
 Avogadro constant [1/mol]                                  6.02214179000000E+23
 Boltzmann constant [J/K]                                   1.38065040000000E-23
 Atomic mass unit [kg]                                      1.66053878200000E-27
 Bohr radius [m]                                            5.29177208590000E-11

 *** Conversion factors ***

 [u] -> [a.u.]                                              1.82288848426455E+03
 [Angstrom] -> [Bohr] = [a.u.]                              1.88972613288564E+00
 [a.u.] = [Bohr] -> [Angstrom]                              5.29177208590000E-01
 [a.u.] -> [s]                                              2.41888432650478E-17
 [a.u.] -> [fs]                                             2.41888432650478E-02
 [a.u.] -> [J]                                              4.35974393937059E-18
 [a.u.] -> [N]                                              8.23872205491840E-08
 [a.u.] -> [K]                                              3.15774647902944E+05
 [a.u.] -> [kJ/mol]                                         2.62549961709828E+03
 [a.u.] -> [kcal/mol]                                       6.27509468713739E+02
 [a.u.] -> [Pa]                                             2.94210107994716E+13
 [a.u.] -> [bar]                                            2.94210107994716E+08
 [a.u.] -> [atm]                                            2.90362800883016E+08
 [a.u.] -> [eV]                                             2.72113838565563E+01
 [a.u.] -> [Hz]                                             6.57968392072181E+15
 [a.u.] -> [1/cm] (wave numbers)                            2.19474631370540E+05
 [a.u./Bohr**2] -> [1/cm]                                   5.14048714338585E+03
 

 CELL_TOP| Volume [angstrom^3]:                                         4586.323
 CELL_TOP| Vector a [angstrom    12.864     0.000     0.000    |a| =      12.864
 CELL_TOP| Vector b [angstrom    -6.432    11.141     0.000    |b| =      12.864
 CELL_TOP| Vector c [angstrom     0.000     0.000    32.000    |c| =      32.000
 CELL_TOP| Angle (b,c), alpha [degree]:                                   90.000
 CELL_TOP| Angle (a,c), beta  [degree]:                                   90.000
 CELL_TOP| Angle (a,b), gamma [degree]:                                  120.000
 CELL_TOP| Numerically orthorhombic:                                          NO
 
 GENERATE|  Preliminary Number of Bonds generated:                             0
 GENERATE|  Achieved consistency in connectivity generation.

 CELL| Volume [angstrom^3]:                                             4586.323
 CELL| Vector a [angstrom]:      12.864     0.000     0.000    |a| =      12.864
 CELL| Vector b [angstrom]:      -6.432    11.141     0.000    |b| =      12.864
 CELL| Vector c [angstrom]:       0.000     0.000    32.000    |c| =      32.000
 CELL| Angle (b,c), alpha [degree]:                                       90.000
 CELL| Angle (a,c), beta  [degree]:                                       90.000
 CELL| Angle (a,b), gamma [degree]:                                      120.000
 CELL| Numerically orthorhombic:                                              NO

 CELL_REF| Volume [angstrom^3]:                                         4670.759
 CELL_REF| Vector a [angstrom    12.982     0.000     0.000    |a| =      12.982
 CELL_REF| Vector b [angstrom    -6.491    11.243     0.000    |b| =      12.982
 CELL_REF| Vector c [angstrom     0.000     0.000    32.000    |c| =      32.000
 CELL_REF| Angle (b,c), alpha [degree]:                                   90.000
 CELL_REF| Angle (a,c), beta  [degree]:                                   90.000
 CELL_REF| Angle (a,b), gamma [degree]:                                  120.000
 CELL_REF| Numerically orthorhombic:                                          NO

 *******************************************************************************
 *******************************************************************************
 **                                                                           **
 **     #####                         ##              ##                      **
 **    ##   ##            ##          ##              ##                      **
 **   ##     ##                       ##            ######                    **
 **   ##     ##  ##   ##  ##   #####  ##  ##   ####   ##    #####    #####    **
 **   ##     ##  ##   ##  ##  ##      ## ##   ##      ##   ##   ##  ##   ##   **
 **   ##  ## ##  ##   ##  ##  ##      ####     ###    ##   ######   ######    **
 **    ##  ###   ##   ##  ##  ##      ## ##      ##   ##   ##       ##        **
 **     #######   #####   ##   #####  ##  ##  ####    ##    #####   ##        **
 **           ##                                                    ##        **
 **                                                                           **
 **                                                ... make the atoms dance   **
 **                                                                           **
 **            Copyright (C) by CP2K developers group (2000 - 2018)           **
 **                                                                           **
 *******************************************************************************

 DFT| Spin restricted Kohn-Sham (RKS) calculation                            RKS
 DFT| Multiplicity                                                             1
 DFT| Number of spin states                                                    1
 DFT| Charge                                                                   0
 DFT| Self-interaction correction (SIC)                                       NO
 DFT| Cutoffs: density                                              1.000000E-10
 DFT|          gradient                                             1.000000E-10
 DFT|          tau                                                  1.000000E-10
 DFT|          cutoff_smoothing_range                               0.000000E+00
 DFT| XC density smoothing                                                  NONE
 DFT| XC derivatives                                                          PW
 FUNCTIONAL| ROUTINE=NEW
 FUNCTIONAL| PBE:
 FUNCTIONAL| J.P.Perdew, K.Burke, M.Ernzerhof, Phys. Rev. Letter, vol. 77, n 18,
 FUNCTIONAL|  pp. 3865-3868, (1996){spin unpolarized}                           
 vdW POTENTIAL|                                                   Pair Potential
 vdW POTENTIAL|          DFT-D3 (Version 3.1)
 vdW POTENTIAL|          Potential Form: S. Grimme et al, JCP 132: 154104 (2010)
 vdW POTENTIAL|          Zero Damping
 vdW POTENTIAL|          Cutoff Radius [Bohr]:                             18.90
 vdW POTENTIAL|          s6 Scaling Factor:                               1.0000
 vdW POTENTIAL|          sr6 Scaling Factor:                              1.2170
 vdW POTENTIAL|          s8 Scaling Factor:                               0.7220
 vdW POTENTIAL|          Cutoff for CN calculation:                   0.1000E-05

 QS| Method:                                                                 GPW
 QS| Density plane wave grid type                        NON-SPHERICAL FULLSPACE
 QS| Number of grid levels:                                                    5
 QS| Density cutoff [a.u.]:                                                600.0
 QS| Multi grid cutoff [a.u.]: 1) grid level                               600.0
 QS|                           2) grid level                               200.0
 QS|                           3) grid level                                66.7
 QS|                           4) grid level                                22.2
 QS|                           5) grid level                                 7.4
 QS| Grid level progression factor:                                          3.0
 QS| Relative density cutoff [a.u.]:                                        20.0
 QS| Consistent realspace mapping and integration 
 QS| Interaction thresholds: eps_pgf_orb:                                1.0E-07
 QS|                         eps_filter_matrix:                          0.0E+00
 QS|                         eps_core_charge:                            1.0E-16
 QS|                         eps_rho_gspace:                             1.0E-14
 QS|                         eps_rho_rspace:                             1.0E-14
 QS|                         eps_gvg_rspace:                             1.0E-07
 QS|                         eps_ppl:                                    1.0E-02
 QS|                         eps_ppnl:                                   1.0E-09


 ATOMIC KIND INFORMATION

  1. Atomic kind: N                                     Number of atoms:     100

     Orbital Basis Set                                        DZVP-MOLOPT-SR-GTH

       Number of orbital shell sets:                                           1
       Number of orbital shells:                                               5
       Number of primitive Cartesian functions:                                5
       Number of Cartesian basis functions:                                   14
       Number of spherical basis functions:                                   13
       Norm type:                                                              2

       Normalised Cartesian orbitals:

                        Set   Shell   Orbital            Exponent    Coefficient

                          1       1    2s                7.341988       0.360561
                                                         2.542637       0.139177
                                                         0.888575      -0.289383
                                                         0.333802      -0.182244
                                                         0.112012      -0.019197

                          1       2    3s                7.341988       0.282000
                                                         2.542637       0.177875
                                                         0.888575      -0.278381
                                                         0.333802       0.008577
                                                         0.112012       0.154176

                          1       3    3px               7.341988      -1.188719
                                                         2.542637      -0.973969
                                                         0.888575      -0.501079
                                                         0.333802      -0.144894
                                                         0.112012      -0.013986
                          1       3    3py               7.341988      -1.188719
                                                         2.542637      -0.973969
                                                         0.888575      -0.501079
                                                         0.333802      -0.144894
                                                         0.112012      -0.013986
                          1       3    3pz               7.341988      -1.188719
                                                         2.542637      -0.973969
                                                         0.888575      -0.501079
                                                         0.333802      -0.144894
                                                         0.112012      -0.013986

                          1       4    4px               7.341988      -0.094798
                                                         2.542637       0.050069
                                                         0.888575      -0.114797
                                                         0.333802       0.144793
                                                         0.112012       0.066710
                          1       4    4py               7.341988      -0.094798
                                                         2.542637       0.050069
                                                         0.888575      -0.114797
                                                         0.333802       0.144793
                                                         0.112012       0.066710
                          1       4    4pz               7.341988      -0.094798
                                                         2.542637       0.050069
                                                         0.888575      -0.114797
                                                         0.333802       0.144793
                                                         0.112012       0.066710

                          1       5    4dx2              7.341988       1.354688
                                                         2.542637       0.690378
                                                         0.888575       0.855359
                                                         0.333802       0.091746
                                                         0.112012       0.001253
                          1       5    4dxy              7.341988       2.346389
                                                         2.542637       1.195770
                                                         0.888575       1.481524
                                                         0.333802       0.158910
                                                         0.112012       0.002169
                          1       5    4dxz              7.341988       2.346389
                                                         2.542637       1.195770
                                                         0.888575       1.481524
                                                         0.333802       0.158910
                                                         0.112012       0.002169
                          1       5    4dy2              7.341988       1.354688
                                                         2.542637       0.690378
                                                         0.888575       0.855359
                                                         0.333802       0.091746
                                                         0.112012       0.001253
                          1       5    4dyz              7.341988       2.346389
                                                         2.542637       1.195770
                                                         0.888575       1.481524
                                                         0.333802       0.158910
                                                         0.112012       0.002169
                          1       5    4dz2              7.341988       1.354688
                                                         2.542637       0.690378
                                                         0.888575       0.855359
                                                         0.333802       0.091746
                                                         0.112012       0.001253

     GTH Potential information for                                    GTH-PBE-q5

       Description:                       Goedecker-Teter-Hutter pseudopotential
                                           Goedecker et al., PRB 54, 1703 (1996)
                                          Hartwigsen et al., PRB 58, 3641 (1998)
                                                      Krack, TCA 114, 145 (2005)

       Gaussian exponent of the core charge distribution:               6.208322
       Electronic configuration (s p d ...):                               2   3

       Parameters of the local part of the GTH pseudopotential:

                          rloc        C1          C2          C3          C4
                        0.283791  -12.415226    1.868096

       Parameters of the non-local part of the GTH pseudopotential:

                   l      r(l)      h(i,j,l)

                   0    0.255405   13.630263
                   1    0.245495

  2. Atomic kind: Ga                                    Number of atoms:     100

     Orbital Basis Set                                        DZVP-MOLOPT-SR-GTH

       Number of orbital shell sets:                                           1
       Number of orbital shells:                                               7
       Number of primitive Cartesian functions:                                6
       Number of Cartesian basis functions:                                   30
       Number of spherical basis functions:                                   25
       Norm type:                                                              2

       Normalised Cartesian orbitals:

                        Set   Shell   Orbital            Exponent    Coefficient

                          1       1    2s                7.066654       0.013136
                                                         3.428369      -0.094392
                                                         1.430064       0.265435
                                                         0.571611       0.056465
                                                         0.232197      -0.192187
                                                         0.076562      -0.044987

                          1       2    3s                7.066654      -0.098564
                                                         3.428369       0.010390
                                                         1.430064       0.351249
                                                         0.571611       0.182615
                                                         0.232197      -0.425358
                                                         0.076562       0.190349

                          1       3    3px               7.066654       0.002364
                                                         3.428369       0.019222
                                                         1.430064       0.250132
                                                         0.571611      -0.058486
                                                         0.232197      -0.159451
                                                         0.076562      -0.020696
                          1       3    3py               7.066654       0.002364
                                                         3.428369       0.019222
                                                         1.430064       0.250132
                                                         0.571611      -0.058486
                                                         0.232197      -0.159451
                                                         0.076562      -0.020696
                          1       3    3pz               7.066654       0.002364
                                                         3.428369       0.019222
                                                         1.430064       0.250132
                                                         0.571611      -0.058486
                                                         0.232197      -0.159451
                                                         0.076562      -0.020696

                          1       4    4px               7.066654       0.492448
                                                         3.428369      -0.614736
                                                         1.430064      -0.191654
                                                         0.571611       0.037801
                                                         0.232197       0.302315
                                                         0.076562      -0.071336
                          1       4    4py               7.066654       0.492448
                                                         3.428369      -0.614736
                                                         1.430064      -0.191654
                                                         0.571611       0.037801
                                                         0.232197       0.302315
                                                         0.076562      -0.071336
                          1       4    4pz               7.066654       0.492448
                                                         3.428369      -0.614736
                                                         1.430064      -0.191654
                                                         0.571611       0.037801
                                                         0.232197       0.302315
                                                         0.076562      -0.071336

                          1       5    4dx2              7.066654     -15.264855
                                                         3.428369      -5.345726
                                                         1.430064      -1.022732
                                                         0.571611      -0.123148
                                                         0.232197      -0.006983
                                                         0.076562      -0.000022
                          1       5    4dxy              7.066654     -26.439504
                                                         3.428369      -9.259069
                                                         1.430064      -1.771423
                                                         0.571611      -0.213299
                                                         0.232197      -0.012094
                                                         0.076562      -0.000037
                          1       5    4dxz              7.066654     -26.439504
                                                         3.428369      -9.259069
                                                         1.430064      -1.771423
                                                         0.571611      -0.213299
                                                         0.232197      -0.012094
                                                         0.076562      -0.000037
                          1       5    4dy2              7.066654     -15.264855
                                                         3.428369      -5.345726
                                                         1.430064      -1.022732
                                                         0.571611      -0.123148
                                                         0.232197      -0.006983
                                                         0.076562      -0.000022
                          1       5    4dyz              7.066654     -26.439504
                                                         3.428369      -9.259069
                                                         1.430064      -1.771423
                                                         0.571611      -0.213299
                                                         0.232197      -0.012094
                                                         0.076562      -0.000037
                          1       5    4dz2              7.066654     -15.264855
                                                         3.428369      -5.345726
                                                         1.430064      -1.022732
                                                         0.571611      -0.123148
                                                         0.232197      -0.006983
                                                         0.076562      -0.000022

                          1       6    5dx2              7.066654      -5.739265
                                                         3.428369      -2.129289
                                                         1.430064      -0.700423
                                                         0.571611       0.161606
                                                         0.232197       0.043513
                                                         0.076562       0.011205
                          1       6    5dxy              7.066654      -9.940698
                                                         3.428369      -3.688037
                                                         1.430064      -1.213168
                                                         0.571611       0.279909
                                                         0.232197       0.075368
                                                         0.076562       0.019407
                          1       6    5dxz              7.066654      -9.940698
                                                         3.428369      -3.688037
                                                         1.430064      -1.213168
                                                         0.571611       0.279909
                                                         0.232197       0.075368
                                                         0.076562       0.019407
                          1       6    5dy2              7.066654      -5.739265
                                                         3.428369      -2.129289
                                                         1.430064      -0.700423
                                                         0.571611       0.161606
                                                         0.232197       0.043513
                                                         0.076562       0.011205
                          1       6    5dyz              7.066654      -9.940698
                                                         3.428369      -3.688037
                                                         1.430064      -1.213168
                                                         0.571611       0.279909
                                                         0.232197       0.075368
                                                         0.076562       0.019407
                          1       6    5dz2              7.066654      -5.739265
                                                         3.428369      -2.129289
                                                         1.430064      -0.700423
                                                         0.571611       0.161606
                                                         0.232197       0.043513
                                                         0.076562       0.011205

                          1       7    5fx3              7.066654       0.705879
                                                         3.428369      -0.273976
                                                         1.430064       0.113667
                                                         0.571611       0.132480
                                                         0.232197       0.012437
                                                         0.076562       0.003241
                          1       7    5fx2y             7.066654       1.578393
                                                         3.428369      -0.612629
                                                         1.430064       0.254167
                                                         0.571611       0.296234
                                                         0.232197       0.027811
                                                         0.076562       0.007246
                          1       7    5fx2z             7.066654       1.578393
                                                         3.428369      -0.612629
                                                         1.430064       0.254167
                                                         0.571611       0.296234
                                                         0.232197       0.027811
                                                         0.076562       0.007246
                          1       7    5fxy2             7.066654       1.578393
                                                         3.428369      -0.612629
                                                         1.430064       0.254167
                                                         0.571611       0.296234
                                                         0.232197       0.027811
                                                         0.076562       0.007246
                          1       7    5fxyz             7.066654       2.733856
                                                         3.428369      -1.061105
                                                         1.430064       0.440230
                                                         0.571611       0.513092
                                                         0.232197       0.048170
                                                         0.076562       0.012551
                          1       7    5fxz2             7.066654       1.578393
                                                         3.428369      -0.612629
                                                         1.430064       0.254167
                                                         0.571611       0.296234
                                                         0.232197       0.027811
                                                         0.076562       0.007246
                          1       7    5fy3              7.066654       0.705879
                                                         3.428369      -0.273976
                                                         1.430064       0.113667
                                                         0.571611       0.132480
                                                         0.232197       0.012437
                                                         0.076562       0.003241
                          1       7    5fy2z             7.066654       1.578393
                                                         3.428369      -0.612629
                                                         1.430064       0.254167
                                                         0.571611       0.296234
                                                         0.232197       0.027811
                                                         0.076562       0.007246
                          1       7    5fyz2             7.066654       1.578393
                                                         3.428369      -0.612629
                                                         1.430064       0.254167
                                                         0.571611       0.296234
                                                         0.232197       0.027811
                                                         0.076562       0.007246
                          1       7    5fz3              7.066654       0.705879
                                                         3.428369      -0.273976
                                                         1.430064       0.113667
                                                         0.571611       0.132480
                                                         0.232197       0.012437
                                                         0.076562       0.003241

     GTH Potential information for                                   GTH-PBE-q13

       Description:                       Goedecker-Teter-Hutter pseudopotential
                                           Goedecker et al., PRB 54, 1703 (1996)
                                          Hartwigsen et al., PRB 58, 3641 (1998)
                                                      Krack, TCA 114, 145 (2005)

       Gaussian exponent of the core charge distribution:               2.082466
       Electronic configuration (s p d ...):                           2   1  10

       Parameters of the local part of the GTH pseudopotential:

                          rloc        C1          C2          C3          C4
                        0.490000

       Parameters of the non-local part of the GTH pseudopotential:

                   l      r(l)      h(i,j,l)

                   0    0.416777   10.475690   -4.921768    0.870706
                                   -4.921768    7.770178   -2.248152
                                    0.870706   -2.248152    1.784415
                   1    0.569627    1.777985    0.195860
                                    0.195860   -0.231744
                   2    0.238126  -16.248680


 MOLECULE KIND INFORMATION


 All atoms are their own molecule, skipping detailed information


 TOTAL NUMBERS AND MAXIMUM NUMBERS

  Total number of            - Atomic kinds:                                   2
                             - Atoms:                                        200
                             - Shell sets:                                   200
                             - Shells:                                      1200
                             - Primitive Cartesian functions:               1100
                             - Cartesian basis functions:                   4400
                             - Spherical basis functions:                   3800

  Maximum angular momentum of- Orbital basis functions:                        3
                             - Local part of the GTH pseudopotential:          2
                             - Non-local part of the GTH pseudopotential:      4


 MODULE QUICKSTEP:  ATOMIC COORDINATES IN angstrom

  Atom  Kind  Element       X           Y           Z          Z(eff)       Mass

       1     1 N    7    0.020292    2.028601    2.469171      5.00      14.0067
       2     2 Ga  31    0.020519    0.048028    2.803073     13.00      69.7230
       3     1 N    7    0.020796    0.047223    4.959124      5.00      14.0067
       4     2 Ga  31    0.020464    1.875358    5.747949     13.00      69.7230
       5     1 N    7    0.020793    1.892708    7.739059      5.00      14.0067
       6     2 Ga  31    0.020653    0.047574    8.393215     13.00      69.7230
       7     1 N    7    0.020725    0.047445   10.361595      5.00      14.0067
       8     2 Ga  31    0.020453    1.886267   11.019399     13.00      69.7230
       9     1 N    7    0.019810    1.867228   13.007314      5.00      14.0067
      10     2 Ga  31    0.020293    0.047507   13.823911     13.00      69.7230
      11     1 N    7    0.020570    0.047997   16.006373      5.00      14.0067
      12     2 Ga  31    0.020100    2.096280   16.427112     13.00      69.7230
      13     2 Ga  31    0.020274    3.761740    1.444685     13.00      69.7230
      14     1 N    7   -1.480184    4.628002    2.469909      5.00      14.0067
      15     2 Ga  31   -1.687945    2.775028    3.236870     13.00      69.7230
      16     1 N    7   -1.588812    2.831616    5.196154      5.00      14.0067
      17     2 Ga  31   -1.612043    4.703493    5.747832     13.00      69.7230
      18     1 N    7   -1.597344    4.695039    7.739020      5.00      14.0067
      19     2 Ga  31   -1.577094    2.838397    8.385621     13.00      69.7230
      20     1 N    7   -1.575538    2.839229   10.373205      5.00      14.0067
      21     2 Ga  31   -1.602144    4.698081   11.018210     13.00      69.7230
      22     1 N    7   -1.620152    4.708718   13.006172      5.00      14.0067
      23     2 Ga  31   -1.578506    2.839142   13.565952     13.00      69.7230
      24     1 N    7   -1.608949    2.824117   15.521901      5.00      14.0067
      25     2 Ga  31   -1.416106    4.591085   16.429194     13.00      69.7230
      26     1 N    7    0.025905    3.758349   17.554994      5.00      14.0067
      27     1 N    7   -3.194857    7.598711    2.469636      5.00      14.0067
      28     2 Ga  31   -3.195268    5.618059    2.802686     13.00      69.7230
      29     1 N    7   -3.195395    5.617582    4.958711      5.00      14.0067
      30     2 Ga  31   -3.195207    7.445693    5.748015     13.00      69.7230
      31     1 N    7   -3.195229    7.462983    7.738992      5.00      14.0067
      32     2 Ga  31   -3.195249    5.617780    8.393085     13.00      69.7230
      33     1 N    7   -3.195155    5.617712   10.361597      5.00      14.0067
      34     2 Ga  31   -3.195015    7.457103   11.017708     13.00      69.7230
      35     1 N    7   -3.195436    7.438058   13.006005      5.00      14.0067
      36     2 Ga  31   -3.195604    5.618324   13.820523     13.00      69.7230
      37     1 N    7   -3.194315    5.618167   16.008458      5.00      14.0067
      38     2 Ga  31   -3.195487    7.659603   16.426568     13.00      69.7230
      39     2 Ga  31   -3.194112    9.331714    1.446191     13.00      69.7230
      40     1 N    7   -4.695370   10.198361    2.469492      5.00      14.0067
      41     2 Ga  31   -4.903193    8.345141    3.237279     13.00      69.7230
      42     1 N    7   -4.804530    8.402159    5.196463      5.00      14.0067
      43     2 Ga  31   -4.828373   10.274109    5.747982     13.00      69.7230
      44     1 N    7   -4.813507   10.265553    7.739017      5.00      14.0067
      45     2 Ga  31   -4.793094    8.408899    8.384986     13.00      69.7230
      46     1 N    7   -4.791522    8.409893   10.372975      5.00      14.0067
      47     2 Ga  31   -4.818741   10.268831   11.018007     13.00      69.7230
      48     1 N    7   -4.836070   10.279092   13.005779      5.00      14.0067
      49     2 Ga  31   -4.792686    8.410272   13.565437     13.00      69.7230
      50     1 N    7   -4.817580    8.396329   15.524023      5.00      14.0067
      51     2 Ga  31   -4.640643   10.166359   16.426053     13.00      69.7230
      52     1 N    7   -3.189712    9.329272   17.570072      5.00      14.0067
      53     1 N    7    3.236340    1.904568    2.553833      5.00      14.0067
      54     2 Ga  31    3.236785    0.164200    3.238075     13.00      69.7230
      55     1 N    7    3.236705    0.049052    5.196757      5.00      14.0067
      56     2 Ga  31    3.236312    1.904555    5.825860     13.00      69.7230
      57     1 N    7    3.236534    1.904113    7.793701      5.00      14.0067
      58     2 Ga  31    3.236828    0.035421    8.384790     13.00      69.7230
      59     1 N    7    3.236844    0.034077   10.372819      5.00      14.0067
      60     2 Ga  31    3.237077    1.904113   10.971478     13.00      69.7230
      61     1 N    7    3.237151    1.904087   12.938444      5.00      14.0067
      62     2 Ga  31    3.235948    0.034636   13.565804     13.00      69.7230
      63     1 N    7    3.236011    0.064362   15.524396      5.00      14.0067
      64     2 Ga  31    3.238040    1.903798   15.804633     13.00      69.7230
      65     1 N    7    1.521569    4.628006    2.468958      5.00      14.0067
      66     2 Ga  31    1.728511    2.775166    3.236964     13.00      69.7230
      67     1 N    7    1.629572    2.831894    5.196223      5.00      14.0067
      68     2 Ga  31    1.653859    4.703741    5.748057     13.00      69.7230
      69     1 N    7    1.638941    4.694892    7.739206      5.00      14.0067
      70     2 Ga  31    1.618399    2.838376    8.385972     13.00      69.7230
      71     1 N    7    1.617311    2.839089   10.374146      5.00      14.0067
      72     2 Ga  31    1.644150    4.698419   11.019128     13.00      69.7230
      73     1 N    7    1.660835    4.708940   13.007096      5.00      14.0067
      74     2 Ga  31    1.617264    2.839383   13.565923     13.00      69.7230
      75     1 N    7    1.649023    2.821549   15.522764      5.00      14.0067
      76     2 Ga  31    1.462742    4.594459   16.427876     13.00      69.7230
      77     1 N    7    0.021432    7.474870    2.554397      5.00      14.0067
      78     2 Ga  31    0.021220    5.733933    3.237569     13.00      69.7230
      79     1 N    7    0.020832    5.619278    5.196709      5.00      14.0067
      80     2 Ga  31    0.021243    7.474779    5.826081     13.00      69.7230
      81     1 N    7    0.021075    7.474427    7.793685      5.00      14.0067
      82     2 Ga  31    0.020830    5.605758    8.385487     13.00      69.7230
      83     1 N    7    0.021001    5.604443   10.373116      5.00      14.0067
      84     2 Ga  31    0.020888    7.474911   10.970826     13.00      69.7230
      85     1 N    7    0.019749    7.475578   12.936382      5.00      14.0067
      86     2 Ga  31    0.019971    5.606807   13.565929     13.00      69.7230
      87     1 N    7    0.018617    5.641254   15.522048      5.00      14.0067
      88     2 Ga  31    0.018717    7.476796   15.808474     13.00      69.7230
      89     1 N    7   -1.694456   10.198544    2.469740      5.00      14.0067
      90     2 Ga  31   -1.486353    8.344933    3.237663     13.00      69.7230
      91     1 N    7   -1.585942    8.402282    5.196784      5.00      14.0067
      92     2 Ga  31   -1.562398   10.274150    5.747820     13.00      69.7230
      93     1 N    7   -1.577329   10.265668    7.738846      5.00      14.0067
      94     2 Ga  31   -1.597125    8.408764    8.384895     13.00      69.7230
      95     1 N    7   -1.598880    8.409837   10.372419      5.00      14.0067
      96     2 Ga  31   -1.572392   10.268676   11.017580     13.00      69.7230
      97     1 N    7   -1.555498   10.278849   13.005887      5.00      14.0067
      98     2 Ga  31   -1.598401    8.409955   13.565966     13.00      69.7230
      99     1 N    7   -1.573781    8.395973   15.525529      5.00      14.0067
     100     2 Ga  31   -1.746634   10.168899   16.426941     13.00      69.7230
     101     1 N    7    6.452357    2.028838    2.469256      5.00      14.0067
     102     2 Ga  31    6.453095    0.048109    2.802161     13.00      69.7230
     103     1 N    7    6.452941    0.047499    4.958738      5.00      14.0067
     104     2 Ga  31    6.452508    1.875551    5.747650     13.00      69.7230
     105     1 N    7    6.452624    1.892819    7.738738      5.00      14.0067
     106     2 Ga  31    6.452775    0.047588    8.392857     13.00      69.7230
     107     1 N    7    6.452692    0.047526   10.361298      5.00      14.0067
     108     2 Ga  31    6.452640    1.886814   11.017726     13.00      69.7230
     109     1 N    7    6.452305    1.867884   13.006159      5.00      14.0067
     110     2 Ga  31    6.452810    0.047902   13.820453     13.00      69.7230
     111     1 N    7    6.453512    0.047698   16.008345      5.00      14.0067
     112     2 Ga  31    6.451558    2.089459   16.426592     13.00      69.7230
     113     2 Ga  31    6.452682    3.762164    1.445868     13.00      69.7230
     114     1 N    7    4.951575    4.628382    2.469123      5.00      14.0067
     115     2 Ga  31    4.743919    2.775173    3.237108     13.00      69.7230
     116     1 N    7    4.843145    2.831966    5.196188      5.00      14.0067
     117     2 Ga  31    4.819726    4.703995    5.747676     13.00      69.7230
     118     1 N    7    4.834682    4.695305    7.738921      5.00      14.0067
     119     2 Ga  31    4.854657    2.838593    8.384864     13.00      69.7230
     120     1 N    7    4.856185    2.839522   10.372786      5.00      14.0067
     121     2 Ga  31    4.829589    4.698488   11.017959     13.00      69.7230
     122     1 N    7    4.812273    4.708858   13.005874      5.00      14.0067
     123     2 Ga  31    4.855157    2.840154   13.565805     13.00      69.7230
     124     1 N    7    4.829478    2.826611   15.524529      5.00      14.0067
     125     2 Ga  31    5.006509    4.597043   16.426173     13.00      69.7230
     126     1 N    7    6.456899    3.759047   17.569891      5.00      14.0067
     127     1 N    7    3.237162    7.598932    2.468619      5.00      14.0067
     128     2 Ga  31    3.236314    5.618594    2.800219     13.00      69.7230
     129     1 N    7    3.236644    5.617996    4.958722      5.00      14.0067
     130     2 Ga  31    3.236938    7.445977    5.748072     13.00      69.7230
     131     1 N    7    3.237130    7.463311    7.739268      5.00      14.0067
     132     2 Ga  31    3.236590    5.618073    8.393230     13.00      69.7230
     133     1 N    7    3.236726    5.617995   10.361656      5.00      14.0067
     134     2 Ga  31    3.236863    7.457205   11.018905     13.00      69.7230
     135     1 N    7    3.236300    7.438185   13.006693      5.00      14.0067
     136     2 Ga  31    3.236580    5.618902   13.822999     13.00      69.7230
     137     1 N    7    3.236464    5.619105   16.007756      5.00      14.0067
     138     2 Ga  31    3.236629    7.668238   16.428888     13.00      69.7230
     139     2 Ga  31    3.237343    9.332622    1.443638     13.00      69.7230
     140     1 N    7    1.736533   10.198794    2.469464      5.00      14.0067
     141     2 Ga  31    1.529573    8.345310    3.237103     13.00      69.7230
     142     1 N    7    1.627777    8.402538    5.196487      5.00      14.0067
     143     2 Ga  31    1.603621   10.274545    5.747672     13.00      69.7230
     144     1 N    7    1.618537   10.265849    7.738989      5.00      14.0067
     145     2 Ga  31    1.639140    8.409125    8.385429     13.00      69.7230
     146     1 N    7    1.640572    8.409990   10.373005      5.00      14.0067
     147     2 Ga  31    1.613611   10.268939   11.017896     13.00      69.7230
     148     1 N    7    1.595708   10.279735   13.005774      5.00      14.0067
     149     2 Ga  31    1.638181    8.410203   13.565826     13.00      69.7230
     150     1 N    7    1.608128    8.394447   15.521649      5.00      14.0067
     151     2 Ga  31    1.801239   10.160809   16.431013     13.00      69.7230
     152     1 N    7    3.242031    9.329120   17.557802      5.00      14.0067
     153     1 N    7    9.668448    1.904890    2.553774      5.00      14.0067
     154     2 Ga  31    9.668707    0.164376    3.237803     13.00      69.7230
     155     1 N    7    9.668799    0.049414    5.196764      5.00      14.0067
     156     2 Ga  31    9.668768    1.904628    5.826149     13.00      69.7230
     157     1 N    7    9.669068    1.904313    7.794004      5.00      14.0067
     158     2 Ga  31    9.668984    0.035569    8.385282     13.00      69.7230
     159     1 N    7    9.669112    0.034270   10.372912      5.00      14.0067
     160     2 Ga  31    9.668825    1.904608   10.970656     13.00      69.7230
     161     1 N    7    9.667560    1.905492   12.936322      5.00      14.0067
     162     2 Ga  31    9.667947    0.036742   13.566175     13.00      69.7230
     163     1 N    7    9.666555    0.070932   15.521981      5.00      14.0067
     164     2 Ga  31    9.665686    1.906063   15.809739     13.00      69.7230
     165     1 N    7    7.953428    4.628372    2.469622      5.00      14.0067
     166     2 Ga  31    8.160938    2.775171    3.237365     13.00      69.7230
     167     1 N    7    8.061857    2.832142    5.196499      5.00      14.0067
     168     2 Ga  31    8.085801    4.704087    5.747613     13.00      69.7230
     169     1 N    7    8.071013    4.695426    7.738826      5.00      14.0067
     170     2 Ga  31    8.050704    2.838603    8.384864     13.00      69.7230
     171     1 N    7    8.049017    2.839566   10.372509      5.00      14.0067
     172     2 Ga  31    8.076068    4.698246   11.017809     13.00      69.7230
     173     1 N    7    8.092791    4.708710   13.006308      5.00      14.0067
     174     2 Ga  31    8.049565    2.839645   13.566117     13.00      69.7230
     175     1 N    7    8.073461    2.826003   15.525889      5.00      14.0067
     176     2 Ga  31    7.900207    4.598478   16.427191     13.00      69.7230
     177     1 N    7    6.453101    7.475397    2.553852      5.00      14.0067
     178     2 Ga  31    6.452543    5.734818    3.237539     13.00      69.7230
     179     1 N    7    6.452760    5.619801    5.196553      5.00      14.0067
     180     2 Ga  31    6.452825    7.475250    5.825887     13.00      69.7230
     181     1 N    7    6.453062    7.474848    7.793782      5.00      14.0067
     182     2 Ga  31    6.452854    5.606156    8.384776     13.00      69.7230
     183     1 N    7    6.452963    5.604707   10.372835      5.00      14.0067
     184     2 Ga  31    6.453525    7.474826   10.971304     13.00      69.7230
     185     1 N    7    6.453656    7.474853   12.938131      5.00      14.0067
     186     2 Ga  31    6.452255    5.605767   13.565893     13.00      69.7230
     187     1 N    7    6.451714    5.635124   15.524691      5.00      14.0067
     188     2 Ga  31    6.454485    7.474800   15.805221     13.00      69.7230
     189     1 N    7    4.737510   10.199031    2.469633      5.00      14.0067
     190     2 Ga  31    4.944957    8.345426    3.236939     13.00      69.7230
     191     1 N    7    4.846070    8.402663    5.196423      5.00      14.0067
     192     2 Ga  31    4.869580   10.274301    5.747841     13.00      69.7230
     193     1 N    7    4.854848   10.265629    7.739140      5.00      14.0067
     194     2 Ga  31    4.834873    8.409200    8.385631     13.00      69.7230
     195     1 N    7    4.833773    8.409838   10.373866      5.00      14.0067
     196     2 Ga  31    4.859901   10.269046   11.018979     13.00      69.7230
     197     1 N    7    4.876572   10.279616   13.006782      5.00      14.0067
     198     2 Ga  31    4.833871    8.410277   13.566026     13.00      69.7230
     199     1 N    7    4.865323    8.392008   15.522730      5.00      14.0067
     200     2 Ga  31    4.677580   10.164225   16.429150     13.00      69.7230




 SCF PARAMETERS         Density guess:                                    ATOMIC
                        --------------------------------------------------------
                        max_scf:                                              80
                        max_scf_history:                                       0
                        max_diis:                                              4
                        --------------------------------------------------------
                        eps_scf:                                        5.00E-06
                        eps_scf_history:                                0.00E+00
                        eps_diis:                                       1.00E-01
                        eps_eigval:                                     1.00E-05
                        --------------------------------------------------------
                        level_shift [a.u.]:                                 0.00
                        --------------------------------------------------------
                        Outer loop SCF in use 
                        No variables optimised in outer loop
                        eps_scf                                         5.00E-06
                        max_scf                                                4
                        No outer loop optimization
                        step_size                                       5.00E-01

 PW_GRID| Information for grid number                                          1
 PW_GRID| Grid distributed over                                    80 processors
 PW_GRID| Real space group dimensions                                    80    1
 PW_GRID| the grid is blocked:                                                NO
 PW_GRID| Cutoff [a.u.]                                                    600.0
 PW_GRID| spherical cutoff:                                                   NO
 PW_GRID|   Bounds   1           -144     143                Points:         288
 PW_GRID|   Bounds   2           -144     143                Points:         288
 PW_GRID|   Bounds   3           -337     337                Points:         675
 PW_GRID| Volume element (a.u.^3)  0.5630E-03     Volume (a.u.^3)     31519.8467
 PW_GRID| Grid span                                                    FULLSPACE
 PW_GRID|   Distribution                         Average         Max         Min
 PW_GRID|   G-Vectors                           699840.0      699840      699840
 PW_GRID|   G-Rays                                2430.0        2430        2430
 PW_GRID|   Real Space Points                   699840.0      777600      583200

 PW_GRID| Information for grid number                                          2
 PW_GRID| Grid distributed over                                    80 processors
 PW_GRID| Real space group dimensions                                    80    1
 PW_GRID| the grid is blocked:                                                NO
 PW_GRID| Cutoff [a.u.]                                                    200.0
 PW_GRID| spherical cutoff:                                                   NO
 PW_GRID|   Bounds   1            -80      79                Points:         160
 PW_GRID|   Bounds   2            -80      79                Points:         160
 PW_GRID|   Bounds   3           -200     199                Points:         400
 PW_GRID| Volume element (a.u.^3)  0.3078E-02     Volume (a.u.^3)     31519.8467
 PW_GRID| Grid span                                                    FULLSPACE
 PW_GRID|   Distribution                         Average         Max         Min
 PW_GRID|   G-Vectors                           128000.0      128160      127840
 PW_GRID|   G-Rays                                 800.0         801         799
 PW_GRID|   Real Space Points                   128000.0      128000      128000

 PW_GRID| Information for grid number                                          3
 PW_GRID| Grid distributed over                                    80 processors
 PW_GRID| Real space group dimensions                                    80    1
 PW_GRID| the grid is blocked:                                                NO
 PW_GRID| Cutoff [a.u.]                                                     66.7
 PW_GRID| spherical cutoff:                                                   NO
 PW_GRID|   Bounds   1            -48      47                Points:          96
 PW_GRID|   Bounds   2            -48      47                Points:          96
 PW_GRID|   Bounds   3           -112     112                Points:         225
 PW_GRID| Volume element (a.u.^3)  0.1520E-01     Volume (a.u.^3)     31519.8467
 PW_GRID| Grid span                                                    FULLSPACE
 PW_GRID|   Distribution                         Average         Max         Min
 PW_GRID|   G-Vectors                            25920.0       26688       24864
 PW_GRID|   G-Rays                                 270.0         278         259
 PW_GRID|   Real Space Points                    25920.0       43200       21600

 PW_GRID| Information for grid number                                          4
 PW_GRID| Grid distributed over                                    80 processors
 PW_GRID| Real space group dimensions                                     8   10
 PW_GRID| the grid is blocked:                                                NO
 PW_GRID| Cutoff [a.u.]                                                     22.2
 PW_GRID| spherical cutoff:                                                   NO
 PW_GRID|   Bounds   1            -27      26                Points:          54
 PW_GRID|   Bounds   2            -27      26                Points:          54
 PW_GRID|   Bounds   3            -67      67                Points:         135
 PW_GRID| Volume element (a.u.^3)  0.8007E-01     Volume (a.u.^3)     31519.8467
 PW_GRID| Grid span                                                    FULLSPACE
 PW_GRID|   Distribution                         Average         Max         Min
 PW_GRID|   G-Vectors                             4920.8        5238        4482
 PW_GRID|   G-Rays                                  91.1          97          83
 PW_GRID|   Real Space Points                     4920.8        5670        4050

 PW_GRID| Information for grid number                                          5
 PW_GRID| Grid distributed over                                    80 processors
 PW_GRID| Real space group dimensions                                     8   10
 PW_GRID| the grid is blocked:                                                NO
 PW_GRID| Cutoff [a.u.]                                                      7.4
 PW_GRID| spherical cutoff:                                                   NO
 PW_GRID|   Bounds   1            -16      15                Points:          32
 PW_GRID|   Bounds   2            -16      15                Points:          32
 PW_GRID|   Bounds   3            -37      37                Points:          75
 PW_GRID| Volume element (a.u.^3)  0.4104         Volume (a.u.^3)     31519.8467
 PW_GRID| Grid span                                                    FULLSPACE
 PW_GRID|   Distribution                         Average         Max         Min
 PW_GRID|   G-Vectors                              960.0        1120         576
 PW_GRID|   G-Rays                                  30.0          35          18
 PW_GRID|   Real Space Points                      960.0        1200         900

 POISSON| Solver                                                        PERIODIC
 POISSON| Periodicity                                                        XYZ

 RS_GRID| Information for grid number                                          1
 RS_GRID|   Bounds   1           -144     143                Points:         288
 RS_GRID|   Bounds   2           -144     143                Points:         288
 RS_GRID|   Bounds   3           -337     337                Points:         675
 RS_GRID| Real space distribution over                                  5 groups
 RS_GRID| Real space distribution along direction                              2
 RS_GRID| Border size                                                         80
 RS_GRID| Real space distribution over                                 16 groups
 RS_GRID| Real space distribution along direction                              3
 RS_GRID| Border size                                                         80
 RS_GRID|   Distribution                         Average         Max         Min
 RS_GRID|   Planes                                 217.6         218         217
 RS_GRID|   Distribution                         Average         Max         Min
 RS_GRID|   Planes                                 202.2         203         202

 RS_GRID| Information for grid number                                          2
 RS_GRID|   Bounds   1            -80      79                Points:         160
 RS_GRID|   Bounds   2            -80      79                Points:         160
 RS_GRID|   Bounds   3           -200     199                Points:         400
 RS_GRID| Real space distribution over                                  5 groups
 RS_GRID| Real space distribution along direction                              2
 RS_GRID| Border size                                                         45
 RS_GRID| Real space distribution over                                 16 groups
 RS_GRID| Real space distribution along direction                              3
 RS_GRID| Border size                                                         45
 RS_GRID|   Distribution                         Average         Max         Min
 RS_GRID|   Planes                                 122.0         122         122
 RS_GRID|   Distribution                         Average         Max         Min
 RS_GRID|   Planes                                 115.0         115         115

 RS_GRID| Information for grid number                                          3
 RS_GRID|   Bounds   1            -48      47                Points:          96
 RS_GRID|   Bounds   2            -48      47                Points:          96
 RS_GRID|   Bounds   3           -112     112                Points:         225
 RS_GRID| Real space fully replicated
 RS_GRID| Group size                                                           1

 RS_GRID| Information for grid number                                          4
 RS_GRID|   Bounds   1            -27      26                Points:          54
 RS_GRID|   Bounds   2            -27      26                Points:          54
 RS_GRID|   Bounds   3            -67      67                Points:         135
 RS_GRID| Real space fully replicated
 RS_GRID| Group size                                                           1

 RS_GRID| Information for grid number                                          5
 RS_GRID|   Bounds   1            -16      15                Points:          32
 RS_GRID|   Bounds   2            -16      15                Points:          32
 RS_GRID|   Bounds   3            -37      37                Points:          75
 RS_GRID| Real space fully replicated
 RS_GRID| Group size                                                           1

 Number of electrons:                                                       1800
 Number of occupied orbitals:                                                900
 Number of molecular orbitals:                                               900

 Number of orbital functions:                                               3800
 Number of independent orbital functions:                                   3800

 Extrapolation method: initial_guess

 Atomic guess: The first density matrix is obtained in terms of atomic orbitals
               and electronic configurations assigned to each atomic kind

 Guess for atomic kind: N

 Electronic structure
    Total number of core electrons                                          2.00
    Total number of valence electrons                                       5.00
    Total number of electrons                                               7.00
    Multiplicity                                                   not specified
    S   [  2.00] 2.00
    P      3.00
 

 *******************************************************************************
                  Iteration          Convergence                     Energy [au]
 *******************************************************************************
                          1        0.314603                      -9.513311037226
                          2        0.240982                      -9.524715106536
                          3        0.171660E-02                  -9.545365478140
                          4        0.189497E-03                  -9.545366407342
                          5        0.115171E-03                  -9.545366414563
                          6        0.842367E-04                  -9.545366416530
                          7        0.416372E-07                  -9.545366418792

 Energy components [Hartree]           Total Energy ::           -9.545366418792
                                        Band Energy ::           -2.053285301135
                                     Kinetic Energy ::            6.740378038236
                                   Potential Energy ::          -16.285744457028
                                      Virial (-V/T) ::            2.416147041701
                                        Core Energy ::          -15.542519058333
                                          XC Energy ::           -2.163416690174
                                     Coulomb Energy ::            8.160569329715
                       Total Pseudopotential Energy ::          -22.320027271038
                       Local Pseudopotential Energy ::          -23.240219346165
                    Nonlocal Pseudopotential Energy ::            0.920192075127
                                        Confinement ::            0.371301744695

 Orbital energies  State     L     Occupation   Energy[a.u.]          Energy[eV]

                       1     0          2.000      -0.663125          -18.044549
 
                       1     1          3.000      -0.242345           -6.594545
 

 Total Electron Density at R=0:                                         0.000019

 Guess for atomic kind: Ga

 Electronic structure
    Total number of core electrons                                         18.00
    Total number of valence electrons                                      13.00
    Total number of electrons                                              31.00
    Multiplicity                                                   not specified
    S   [  2.00  2.00  2.00] 2.00
    P   [  6.00  6.00] 1.00
    D     10.00
 

 *******************************************************************************
                  Iteration          Convergence                     Energy [au]
 *******************************************************************************
                          1         22.1524                     -44.516413224335
                          2         1.91043                     -73.305924441898
                          3        0.524291E-01                 -74.147756188929
                          4        0.359055E-02                 -74.148100266765
                          5        0.137660E-02                 -74.148101509825
                          6        0.820576E-03                 -74.148101603074
                          7        0.577059E-04                 -74.148101657024
                          8        0.577427E-08                 -74.148101657328

 Energy components [Hartree]           Total Energy ::          -74.148101657328
                                        Band Energy ::           -7.354344558070
                                     Kinetic Energy ::           99.564392614967
                                   Potential Energy ::         -173.712494272295
                                      Virial (-V/T) ::            1.744725094081
                                        Core Energy ::         -134.243973097364
                                          XC Energy ::           -9.781240980901
                                     Coulomb Energy ::           69.877112420937
                       Total Pseudopotential Energy ::         -233.873649274629
                       Local Pseudopotential Energy ::         -163.402683521975
                    Nonlocal Pseudopotential Energy ::          -70.470965752654
                                        Confinement ::            0.652835622975

 Orbital energies  State     L     Occupation   Energy[a.u.]          Energy[eV]

                       1     0          2.000      -0.307238           -8.360378
 
                       1     1          1.000      -0.061461           -1.672442
 
                       1     2         10.000      -0.667841          -18.172870
 

 Total Electron Density at R=0:                                         0.000004
 Re-scaling the density matrix to get the right number of electrons
                  # Electrons              Trace(P)               Scaling factor
                         1800              1800.000                        1.000


 SCF WAVEFUNCTION OPTIMIZATION

  ----------------------------------- OT ---------------------------------------
  Minimizer      : CG                  : conjugate gradient
  Preconditioner : FULL_ALL            : diagonalization, state selective
  Precond_solver : DEFAULT
  Line search    : 2PNT                : 2 energies, one gradient
  stepsize       :    0.15000000                  energy_gap     :    0.08000000
  eps_taylor     :   0.10000E-15                  max_taylor     :             4
  ----------------------------------- OT ---------------------------------------

  Step     Update method      Time    Convergence         Total energy    Change
  ------------------------------------------------------------------------------
     1 OT CG       0.15E+00    7.3     0.02876175     -8353.5310533850 -8.35E+03
     2 OT LS       0.60E-01    3.5                    -8250.5819500074
     3 OT CG       0.60E-01    7.0     0.22557652     -8177.7399411037  1.76E+02
     4 OT LS       0.29E-01    3.4                    -7594.7910270572
     5 OT CG       0.29E-01    7.3     0.31738433     -7964.9245760354  2.13E+02
     6 OT LS       0.14E-01    3.8                    -7932.4729689621
     7 OT CG       0.14E-01   10.2     0.21752228     -8001.2238284617 -3.63E+01
     8 OT LS       0.78E-02    4.9                    -8144.5927725843
     9 OT CG       0.78E-02    9.9     0.13725059     -8169.4304008691 -1.68E+02
    10 OT LS       0.37E-02    4.6                    -8132.9606807111
    11 OT CG       0.37E-02    9.2     0.09781309     -8236.1916602247 -6.68E+01
    12 OT LS       0.85E-02    3.4                    -8290.3356358447
    13 OT CG       0.85E-02    7.0     0.02093029     -8297.4661891145 -6.13E+01
    14 OT LS       0.44E-02    3.5                    -8297.8427831675
    15 OT CG       0.44E-02    7.0     0.02192509     -8300.6777763519 -3.21E+00
    16 OT LS       0.18E-01    3.3                    -8307.4623953764
    17 OT CG       0.18E-01    7.5     0.02114338     -8321.8121230859 -2.11E+01
    18 OT LS       0.48E-02    4.6                    -8297.6141734976
    19 OT CG       0.48E-02    9.6     0.02061311     -8325.2583464797 -3.45E+00
    20 OT LS       0.19E-01    4.4                    -8330.7640142645
    21 OT CG       0.19E-01    9.9     0.02396184     -8343.8817990718 -1.86E+01
    22 OT LS       0.39E-02    4.4                    -8282.4993214354
    23 OT CG       0.39E-02    8.7     0.01342527     -8348.1461114217 -4.26E+00
    24 OT LS       0.16E-01    3.3                    -8350.3551772625
    25 OT CG       0.16E-01    9.8     0.01780504     -8355.6789051164 -7.53E+00
    26 OT LS       0.52E-02    4.5                    -8345.6086608872
    27 OT CG       0.52E-02    9.4     0.01374513     -8358.8600281603 -3.18E+00
    28 OT LS       0.21E-01    4.4                    -8361.6830334389
    29 OT CG       0.21E-01    9.5     0.02518720     -8368.4068231579 -9.55E+00
    30 OT LS       0.55E-02    4.0                    -8314.4828435432
    31 OT CG       0.55E-02    7.0     0.01388566     -8375.7317363140 -7.32E+00
    32 OT LS       0.21E-01    3.3                    -8378.5331181817
    33 OT CG       0.21E-01    7.4     0.02904862     -8381.5717127329 -5.84E+00
    34 OT LS       0.81E-02    3.3                    -8365.5434660046
    35 OT CG       0.81E-02    7.0     0.01041627     -8387.6187761526 -6.05E+00
    36 OT LS       0.60E-02    3.5                    -8387.9886739180
    37 OT CG       0.60E-02    7.0     0.00771452     -8388.0531474894 -4.34E-01
    38 OT LS       0.24E-01    3.4                    -8389.1886156710
    39 OT CG       0.24E-01    7.3     0.00798771     -8391.5631656077 -3.51E+00
    40 OT LS       0.14E-01    3.3                    -8392.3667342397
    41 OT CG       0.14E-01    7.3     0.01029755     -8393.3329812976 -1.77E+00
    42 OT LS       0.33E-01    3.3                    -8397.1274704705
    43 OT CG       0.33E-01    7.5     0.00750310     -8397.5488770321 -4.22E+00
    44 OT LS       0.16E-01    4.4                    -8397.5383686939
    45 OT CG       0.16E-01    9.3     0.00791962     -8398.1291044953 -5.80E-01
    46 OT LS       0.12E-01    4.4                    -8399.2868878850
    47 OT CG       0.12E-01    9.4     0.00914101     -8399.3982615365 -1.27E+00
    48 OT LS       0.16E-01    4.3                    -8401.5787467628
    49 OT CG       0.16E-01    9.5     0.00591895     -8401.7169916616 -2.32E+00
    50 OT LS       0.25E-01    3.3                    -8403.0419111165
    51 OT CG       0.25E-01    7.4     0.00541380     -8403.2805146664 -1.56E+00
    52 OT LS       0.10E-01    3.3                    -8402.7419079048
    53 OT CG       0.10E-01    7.0     0.00499337     -8403.8651173471 -5.85E-01
    54 OT LS       0.29E-01    3.4                    -8404.6277915338
    55 OT CG       0.29E-01    8.1     0.00478649     -8405.2007008626 -1.34E+00
    56 OT LS       0.26E-01    4.5                    -8406.2436683750
    57 OT CG       0.26E-01    9.4     0.00746906     -8406.2687321561 -1.07E+00
    58 OT LS       0.13E-01    4.7                    -8406.4031822902
    59 OT CG       0.13E-01    9.6     0.00380081     -8407.3585451607 -1.09E+00
    60 OT LS       0.51E-01    4.5                    -8407.9003313226
    61 OT CG       0.51E-01    9.2     0.00639412     -8408.4921925281 -1.13E+00
    62 OT LS       0.19E-01    4.5                    -8406.3117904746
    63 OT CG       0.19E-01    9.2     0.00638168     -8409.1982169116 -7.06E-01
    64 OT LS       0.96E-02    4.3                    -8409.2182486828
    65 OT CG       0.96E-02    9.5     0.00432347     -8409.7114513009 -5.13E-01
    66 OT LS       0.39E-01    4.2                    -8410.2782027548
    67 OT CG       0.39E-01    9.5     0.00484767     -8411.2467804968 -1.54E+00
    68 OT LS       0.11E-01    4.5                    -8408.8111592410
    69 OT CG       0.11E-01    9.2     0.00364870     -8411.6982569336 -4.51E-01
    70 OT LS       0.23E-01    4.4                    -8412.0123949794
    71 OT CG       0.23E-01    9.8     0.00349410     -8412.1018375608 -4.04E-01
    72 OT LS       0.16E-01    4.3                    -8412.3526504121
    73 OT CG       0.16E-01    7.0     0.00407406     -8412.4266537620 -3.25E-01
    74 OT LS       0.17E-01    3.7                    -8412.9094344243
    75 OT CG       0.17E-01    7.0     0.00193203     -8412.9184835604 -4.92E-01
    76 OT LS       0.69E-01    3.3                    -8413.1191560270
    77 OT CG       0.69E-01    7.3     0.00405222     -8413.4058093245 -4.87E-01
    78 OT LS       0.78E-02    3.3                    -8399.1085385514
    79 OT CG       0.78E-02    7.0     0.00225617     -8413.7122040337 -3.06E-01
    80 OT LS       0.31E-01    3.5                    -8413.8521686895

  Leaving inner SCF loop after reaching    80 steps.


  Electronic density on regular grids:      -1799.9999999997        0.0000000003
  Core density on regular grids:             1800.0000000000       -0.0000000000
  Total charge density on r-space grids:        0.0000000003
  Total charge density g-space grids:           0.0000000003

[...]
 flops   224 x    36 x   178          21461981184     100.0%      0.0%      0.0%
 flops   224 x    32 x    36          22361923584     100.0%      0.0%      0.0%
 flops   224 x    36 x    32          22361923584     100.0%      0.0%      0.0%
 flops    13 x    25 x    36          28395057600     100.0%      0.0%      0.0%
 flops    25 x    13 x    36          28708430400     100.0%      0.0%      0.0%
 flops   224 x    36 x   202          30444664320     100.0%      0.0%      0.0%
 flops   224 x    36 x    64          32526434304     100.0%      0.0%      0.0%
 flops   224 x    64 x    36          32526434304     100.0%      0.0%      0.0%
 flops   950 x    36 x   166          34880716800     100.0%      0.0%      0.0%
 flops   228 x    32 x   166          49799490048     100.0%      0.0%      0.0%
 flops   950 x    36 x   178          49869619200     100.0%      0.0%      0.0%
 flops    13 x     4 x    13          55555886464     100.0%      0.0%      0.0%
 flops    25 x    25 x    36          56358000000     100.0%      0.0%      0.0%
 flops   950 x    36 x   202          70742016000     100.0%      0.0%      0.0%
 flops   228 x    32 x   178          71199270912     100.0%      0.0%      0.0%
 flops   228 x    64 x   166          72435621888     100.0%      0.0%      0.0%
 flops   228 x    32 x    32          74184794112     100.0%      0.0%      0.0%
 flops   950 x    32 x    36          83402035200     100.0%      0.0%      0.0%
 flops   950 x    36 x    32          83402035200     100.0%      0.0%      0.0%
 flops   228 x    32 x   202         100998965760     100.0%      0.0%      0.0%
 flops   228 x    64 x   178         103562575872     100.0%      0.0%      0.0%
 flops   228 x    64 x    32         107905155072     100.0%      0.0%      0.0%
 flops   228 x    32 x    64         107905155072     100.0%      0.0%      0.0%
 flops    25 x     4 x    13         113874384000     100.0%      0.0%      0.0%
 flops    13 x     4 x    25         113874384000     100.0%      0.0%      0.0%
 flops   950 x    64 x    36         121312051200     100.0%      0.0%      0.0%
 flops   950 x    36 x    64         121312051200     100.0%      0.0%      0.0%
 flops    13 x    13 x    32         137675219968     100.0%      0.0%      0.0%
 flops   224 x    32 x   166         146777444352     100.0%      0.0%      0.0%
 flops   228 x    64 x   202         146907586560     100.0%      0.0%      0.0%
 flops   228 x    64 x    64         156952952832     100.0%      0.0%      0.0%
 flops    13 x    13 x    64         200254865408     100.0%      0.0%      0.0%
 flops   224 x    32 x   178         209850482688     100.0%      0.0%      0.0%
 flops   224 x    64 x   166         213494464512     100.0%      0.0%      0.0%
 flops   224 x    32 x    32         218649919488     100.0%      0.0%      0.0%
 flops    25 x     4 x    25         222550000000     100.0%      0.0%      0.0%
 flops    13 x    25 x    32         277640563200     100.0%      0.0%      0.0%
 flops    25 x    13 x    32         280704652800     100.0%      0.0%      0.0%
 flops   224 x    32 x   202         297681162240     100.0%      0.0%      0.0%
 flops   224 x    64 x   178         305237065728     100.0%      0.0%      0.0%
 flops   224 x    32 x    64         318036246528     100.0%      0.0%      0.0%
 flops   224 x    64 x    32         318036246528     100.0%      0.0%      0.0%
 flops   950 x    32 x   166         341055897600     100.0%      0.0%      0.0%
 flops    13 x    25 x    64         403840819200     100.0%      0.0%      0.0%
 flops    25 x    13 x    64         408297676800     100.0%      0.0%      0.0%
 flops   224 x    64 x   202         432990781440     100.0%      0.0%      0.0%
 flops   224 x    64 x    64         462598176768     100.0%      0.0%      0.0%
 flops   950 x    32 x   178         487614054400     100.0%      0.0%      0.0%
 flops   950 x    64 x   166         496081305600     100.0%      0.0%      0.0%
 flops    25 x    25 x    32         551056000000     100.0%      0.0%      0.0%
 flops   950 x    32 x   202         691699712000     100.0%      0.0%      0.0%
 flops   950 x    64 x   178         709256806400     100.0%      0.0%      0.0%
 flops    25 x    25 x    64         801536000000     100.0%      0.0%      0.0%
 flops   950 x    32 x    32         815486566400     100.0%      0.0%      0.0%
 flops   950 x    64 x   202        1006108672000     100.0%      0.0%      0.0%
 flops   950 x    64 x    32        1186162278400     100.0%      0.0%      0.0%
 flops   950 x    32 x    64        1186162278400     100.0%      0.0%      0.0%
 flops   950 x    64 x    64        1725326950400     100.0%      0.0%      0.0%
 flops    13 x    32 x    13       12462492164096     100.0%      0.0%      0.0%
 flops    25 x    32 x    13       25544702976000     100.0%      0.0%      0.0%
 flops    13 x    32 x    25       25544702976000     100.0%      0.0%      0.0%
 flops    25 x    32 x    25       49923200000000     100.0%      0.0%      0.0%
 flops inhomo. stacks               4990622400000     100.0%      0.0%      0.0%
 flops total                       135.535447E+12     100.0%      0.0%      0.0%
 flops max/rank                      2.397208E+12     100.0%      0.0%      0.0%
 matmuls inhomo. stacks                    562560     100.0%      0.0%      0.0%
 matmuls total                         5131717792     100.0%      0.0%      0.0%
 number of processed stacks              36405052     100.0%      0.0%      0.0%
 average stack size                                   141.0       0.0       0.0
 marketing flops                   140.094804E+12
 -------------------------------------------------------------------------------
 # multiplications                           7767
 max memory usage/rank               2.710733E+09
 # max total images/rank                        5
 # max 3D layers                                1
 # MPI messages exchanged                70835040
 MPI messages size (bytes):
  total size                        14.415817E+12
  min size                           0.000000E+00
  max size                           1.717600E+06
  average size                     203.512500E+03
 MPI breakdown and total messages size (bytes):
             size <=      128               65360                        0
       128 < size <=     8192             5010357              41044844544
      8192 < size <=    32768            11551563             227251077760
     32768 < size <=   131072            44388560            3061324080000
    131072 < size <=  4194304             9819200           11085837922048
   4194304 < size <= 16777216                   0                        0
  16777216 < size                               0                        0
 -------------------------------------------------------------------------------

 *** WARNING in dbcsr/mm/dbcsr_mm.F:268 :: Using a non-square number of ***
 *** MPI ranks might lead to poor performance.                          ***
 *** Used ranks: 80                                                     ***
 *** Suggested: 81 169                                                  ***

 -------------------------------------------------------------------------------
 
 MEMORY| Estimated peak process memory [MiB]                                2611

 -------------------------------------------------------------------------------
 ----                             MULTIGRID INFO                            ----
 -------------------------------------------------------------------------------
 count for grid        1:         125584          cutoff [a.u.]          600.00
 count for grid        2:         898031          cutoff [a.u.]          200.00
 count for grid        3:         537332          cutoff [a.u.]           66.67
 count for grid        4:         430531          cutoff [a.u.]           22.22
 count for grid        5:         265932          cutoff [a.u.]            7.41
 total gridlevel count  :        2257410

 -------------------------------------------------------------------------------
 -                                                                             -
 -                         MESSAGE PASSING PERFORMANCE                         -
 -                                                                             -
 -------------------------------------------------------------------------------

 ROUTINE             CALLS      AVE VOLUME [Bytes]
 MP_Group             4351
 MP_Bcast            16003                  10276.
 MP_Allreduce       503647                    100.
 MP_Sync               265
 MP_Alltoall        146816                5508488.
 MP_ISendRecv       586101                 133520.
 MP_Wait           2425852
 MP_comm_split         260
 MP_ISend          2288728                 218096.
 MP_IRecv          2301230                 217037.
 MP_Recv              4200                 972800.
 MP_Memory          679556
 -------------------------------------------------------------------------------


 -------------------------------------------------------------------------------
 -                                                                             -
 -                           R E F E R E N C E S                               -
 -                                                                             -
 -------------------------------------------------------------------------------
 
 CP2K version 7.0 (Development Version), the CP2K developers group (2018).
 CP2K is freely available from https://www.cp2k.org/ .

 Schuett, Ole; Messmer, Peter; Hutter, Juerg; VandeVondele, Joost. 
 Electronic Structure Calculations on Graphics Processing Units, John Wiley & Sons, Ltd, 173-190 (2016). 
 GPU-Accelerated Sparse Matrix-Matrix Multiplication for Linear Scaling Density Functional Theory.
 http://dx.doi.org/10.1002/9781118670712.ch8


 Borstnik, U; VandeVondele, J; Weber, V; Hutter, J. 
 PARALLEL COMPUTING, 40 (5-6), 47-58 (2014). 
 Sparse matrix multiplication: The distributed block-compressed sparse
 row library.
 http://dx.doi.org/10.1016/j.parco.2014.03.012


 Hutter, J; Iannuzzi, M; Schiffmann, F; VandeVondele, J. 
 WILEY INTERDISCIPLINARY REVIEWS-COMPUTATIONAL MOLECULAR SCIENCE, 4 (1), 15-25 (2014). 
 CP2K: atomistic simulations of condensed matter systems.
 http://dx.doi.org/10.1002/wcms.1159


 Grimme, S; Ehrlich, S; Goerigk, L. 
 JOURNAL OF COMPUTATIONAL CHEMISTRY, 32, 1456 (2011). 
 Effect of the damping function in dispersion corrected density functional theory.
 http://dx.doi.org/10.1002/jcc.21759


 Grimme, S; Antony, J; Ehrlich, S; Krieg, H. 
 JOURNAL OF CHEMICAL PHYSICS, 132 (15), 154104 (2010). 
 A consistent and accurate ab initio parametrization of density
 functional dispersion correction (DFT-D) for the 94 elements H-Pu.
 http://dx.doi.org/10.1063/1.3382344


 VandeVondele, J; Hutter, J. 
 JOURNAL OF CHEMICAL PHYSICS, 127 (11), 114105 (2007). 
 Gaussian basis sets for accurate calculations on molecular systems in
 gas and condensed phases.
 http://dx.doi.org/10.1063/1.2770708


 Krack, M. 
 THEORETICAL CHEMISTRY ACCOUNTS, 114 (1-3), 145-152 (2005). 
 Pseudopotentials for H to Kr optimized for gradient-corrected
 exchange-correlation functionals.
 http://dx.doi.org/10.1007/s00214-005-0655-y


 VandeVondele, J; Krack, M; Mohamed, F; Parrinello, M; Chassaing, T;
 Hutter, J. COMPUTER PHYSICS COMMUNICATIONS, 167 (2), 103-128 (2005). 
 QUICKSTEP: Fast and accurate density functional calculations using a
 mixed Gaussian and plane waves approach.
 http://dx.doi.org/10.1016/j.cpc.2004.12.014


 Frigo, M; Johnson, SG. 
 PROCEEDINGS OF THE IEEE, 93 (2), 216-231 (2005). 
 The design and implementation of FFTW3.
 http://dx.doi.org/10.1109/JPROC.2004.840301


 Iannuzzi, M; Chassaing, T; Wallman, T; Hutter, J. 
 CHIMIA, 59 (7-8), 499-503 (2005). 
 Ground and excited state density functional calculations with the
 Gaussian and augmented-plane-wave method.
 http://dx.doi.org/10.2533/000942905777676164


 VandeVondele, J; Hutter, J. 
 JOURNAL OF CHEMICAL PHYSICS, 118 (10), 4365-4369 (2003). 
 An efficient orbital transformation method for electronic structure
 calculations.
 http://dx.doi.org/10.1063/1.1543154


 Hartwigsen, C; Goedecker, S; Hutter, J. 
 PHYSICAL REVIEW B, 58 (7), 3641-3662 (1998). 
 Relativistic separable dual-space Gaussian pseudopotentials from H to Rn.
 http://dx.doi.org/10.1103/PhysRevB.58.3641


 Lippert, G; Hutter, J; Parrinello, M. 
 MOLECULAR PHYSICS, 92 (3), 477-487 (1997). 
 A hybrid Gaussian and plane wave density functional scheme.
 http://dx.doi.org/10.1080/002689797170220


 Perdew, JP; Burke, K; Ernzerhof, M. 
 PHYSICAL REVIEW LETTERS, 77 (18), 3865-3868 (1996). 
 Generalized gradient approximation made simple.
 http://dx.doi.org/10.1103/PhysRevLett.77.3865


 Goedecker, S; Teter, M; Hutter, J. 
 PHYSICAL REVIEW B, 54 (3), 1703-1710 (1996). 
 Separable dual-space Gaussian pseudopotentials.
 http://dx.doi.org/10.1103/PhysRevB.54.1703


 -------------------------------------------------------------------------------
 -                                                                             -
 -                                T I M I N G                                  -
 -                                                                             -
 -------------------------------------------------------------------------------
 SUBROUTINE                       CALLS  ASD         SELF TIME        TOTAL TIME
                                MAXIMUM       AVERAGE  MAXIMUM  AVERAGE  MAXIMUM
 CP2K                                 1  1.0     0.05     0.07 12601.79 12601.80
 qs_energies                          1  2.0     0.00     0.02 12600.87 12600.90
 qs_energies_properties               1  3.0     0.00     0.00 11043.49 11043.52
 tddfpt                               1  4.0     0.00     0.02 11043.49 11043.52
 tddfpt_davidson_solver               2  5.0     0.01     0.02 10981.89 10981.90
 tddfpt_compute_Aop_evects            7  6.0     0.25     0.61  8515.39  8515.45
 qs_rho_update_rho                 1299  6.6     0.02     0.04  3437.92  3438.65
 calculate_rho_elec                1299  7.6  1630.32  1663.73  3437.90  3438.63
 integrate_v_rspace                1174  7.2  1583.49  1639.83  3264.10  3282.32
 pw_transfer                      28371  9.1     3.01     3.47  3110.33  3131.67
 fft_wrap_pw1pw2                  25777 10.1     0.30     0.34  3096.09  3117.34
 fft_wrap_pw1pw2_600              15885 11.0   157.43   180.64  2892.34  2911.22
 fft3d_ps                         25777 12.1   812.06   903.80  2695.93  2708.43
 rs_pw_transfer                   12368  9.4     0.16     0.18  2062.22  2081.07
 tddfpt_apply_xc                   1050  7.0     5.90     7.10  1948.40  1962.62
 mp_alltoall_z22v                 25777 14.1  1647.52  1794.46  1647.52  1794.46
 density_rs2pw                     1299  8.6     0.09     0.12  1623.20  1651.56
 scf_env_do_scf                       1  3.0     0.00     0.00  1550.57  1550.57
 scf_env_do_scf_inner_loop          247  4.0     0.02     0.05  1525.41  1525.44
 potential_pw2rs                   1174  8.2     0.92     1.07  1350.13  1368.35
 xc_calc_2nd_deriv                 1050  8.0    60.96    69.75  1302.27  1304.39
 tddfpt_orthonormalize_psi1_psi       8  5.9     0.68     0.83  1214.11  1214.26
 x_to_yz                          12236 12.9   129.30   148.62  1046.11  1072.77
 cp_fm_trace_a1b1t1              428100  7.0   138.72   205.63   991.66   998.97
 mp_waitall_1                   1977838 12.3   927.44   976.51   927.44   976.51
 tddfpt_compute_ritz_vects            7  6.0     0.72     0.82   949.02   974.35
 mp_waitany                      435512 11.4   883.51   932.29   883.51   932.29
 yz_to_x                           8595 13.4    87.38    99.22   816.99   929.56
 mp_sum_dv                       458778  8.3   862.78   918.22   862.78   918.22
 cp_fm_contracted_trace_a2b2t2        7  7.0   607.51   884.59   890.05   890.06
 dbcsr_multiply_generic            7767  9.5     0.77     1.57   807.28   814.92
 cp_dbcsr_sm_fm_multiply           4070  7.2     0.14     0.18   769.96   782.28
 rs_pw_transfer_RS2PW_600          1301 10.6   256.38   282.44   676.18   696.39
 qs_ks_update_qs_env                251  5.0     0.00     0.00   685.20   685.47
 rebuild_ks_matrix                  247  6.0     0.00     0.00   683.59   683.85
 qs_ks_build_kohn_sham_matrix       247  7.0     0.05     0.12   683.59   683.85
 rs_pw_transfer_PW2RS_600          1175 10.2   262.21   286.79   660.67   678.62
 multiply_cannon                   7767 10.5     2.65     2.82   626.25   645.30
 cp_dbcsr_sm_fm_multiply_core      4070  8.2     0.12     0.72   586.52   594.60
 mp_alltoall_d11v                 48227 10.6   457.83   495.01   457.83   495.01
 mp_sum_dm                           15  7.9   282.66   472.02   282.66   472.02
 multiply_cannon_metrocomm3      155340 11.5     0.45     0.49   367.70   410.25
 rs_distribute_matrix              2473  8.4     3.07     6.16   374.70   409.82
 sum_up_and_integrate               124  8.0     0.98     1.13   324.96   325.03
 cp_gemm                           5732  6.9     0.03     0.04   301.04   316.48
 cp_gemm_fm_gemm                   5732  7.9     0.02     0.03   301.01   316.46
 cp_fm_gemm                        5732  8.9   301.00   316.44   301.00   316.44
 tddfpt_apply_coulomb              1050  7.0     0.01     0.03   256.69   258.83
 tddfpt_compute_residual_vects        5  6.0     0.07     0.11   242.52   255.03
 -------------------------------------------------------------------------------

 The number of warnings for this run is : 1
 
 -------------------------------------------------------------------------------
  **** **** ******  **  PROGRAM ENDED AT                 2019-06-30 10:38:21.845
 ***** ** ***  *** **   PROGRAM RAN ON            blg8210.int.ets1.calculquebec.
 **    ****   ******    PROGRAM RAN BY                                       rzk
 ***** **    ** ** **   PROGRAM PROCESS ID                                187569
  **** **  *******  **  PROGRAM STOPPED IN /scratch/rzk/rzk/GaN-carbene/443-adat
                                           oms-both-2x2/01-Surface/02-GaN-NGa-TD
                                           DFT/02-RKS
[1561905502.565006] [blg8210:187583:0]          mpool.c:38   UCX  WARN  object 0x68a8e80 was not returned to mpool ucp_requests
[1561905502.577118] [blg8210:187579:0]          mpool.c:38   UCX  WARN  object 0x5df6e80 was not returned to mpool ucp_requests
[1561905502.580828] [blg8210:187580:0]          mpool.c:38   UCX  WARN  object 0x58bd680 was not returned to mpool ucp_requests
[1561905502.590230] [blg8210:187587:0]          mpool.c:38   UCX  WARN  object 0x5436140 was not returned to mpool ucp_requests
[1561905502.583014] [blg8210:187588:0]          mpool.c:38   UCX  WARN  object 0x6cdab80 was not returned to mpool ucp_requests
[1561905502.596757] [blg8210:187584:0]          mpool.c:38   UCX  WARN  object 0x68d0800 was not returned to mpool ucp_requests
[1561905502.549829] [blg8210:187577:0]          mpool.c:38   UCX  WARN  object 0x580eb00 was not returned to mpool ucp_requests
[1561905502.580363] [blg8210:187576:0]          mpool.c:38   UCX  WARN  object 0x60cf6c0 was not returned to mpool ucp_requests
[1561905502.585952] [blg8210:187575:0]          mpool.c:38   UCX  WARN  object 0x5c40e00 was not returned to mpool ucp_requests
[1561905502.588486] [blg8210:187571:0]          mpool.c:38   UCX  WARN  object 0x5ec9f00 was not returned to mpool ucp_requests
[1561905502.600919] [blg8210:187572:0]          mpool.c:38   UCX  WARN  object 0x700cf80 was not returned to mpool ucp_requests
[1561905502.601991] [blg8210:187573:0]          mpool.c:38   UCX  WARN  object 0x5a92c80 was not returned to mpool ucp_requests
[1561905502.598789] [blg8210:187569:0]          mpool.c:38   UCX  WARN  object 0x6f50b80 was not returned to mpool ucp_requests
