 DBCSR| Multiplication driver                                               BLAS
 DBCSR| Multrec recursion limit                                              512
 DBCSR| Multiplication stack size                                           1000
 DBCSR| Maximum elements for images                                    UNLIMITED
 DBCSR| Multiplicative factor virtual images                                   1
 DBCSR| Multiplication size stacks                                             3
 DBCSR| Number of 3D layers                                               SINGLE
 DBCSR| Use MPI memory allocation                                              T
 DBCSR| Use RMA algorithm                                                      F
 DBCSR| Use Communication thread                                               T
 DBCSR| Communication thread load                                             87


  **** **** ******  **  PROGRAM STARTED AT               2019-06-24 15:05:44.893
 ***** ** ***  *** **   PROGRAM STARTED ON        blg9224.int.ets1.calculquebec.
 **    ****   ******    PROGRAM STARTED BY                                   rzk
 ***** **    ** ** **   PROGRAM PROCESS ID                                 29875
  **** **  *******  **  PROGRAM STARTED IN /scratch/rzk/rzk/GaN-carbene/443-adat
                                           oms-both-2x2/03-DissMethanol/02-O-GaS
                                           ur-H-NTop

 CP2K| version string:                    CP2K version 7.0 (Development Version)
 CP2K| source code revision number:                                    svn:18619
 CP2K| cp2kflags: libint fftw3 libxc parallel mpi3 scalapack mkl                
 CP2K| is freely available from                            https://www.cp2k.org/
 CP2K| Program compiled at                          Sun Apr  7 00:48:11 EDT 2019
 CP2K| Program compiled on                      beluga2.int.ets1.calculquebec.ca
 CP2K| Program compiled for                    Beluga-Linux-x86-64-intel-openmpi
 CP2K| Data directory path    /home/rzk/projects/def-rzk/group/cp2k/cp2k-mcgill/
 CP2K| Input file name                                                 start.inp
 
 GLOBAL| Force Environment number                                              1
 GLOBAL| Basis set file name                                        BASIS_MOLOPT
 GLOBAL| Potential file name                                      GTH_POTENTIALS
 GLOBAL| MM Potential file name                                     MM_POTENTIAL
 GLOBAL| Coordinate file name                                      __STD_INPUT__
 GLOBAL| Method name                                                        CP2K
 GLOBAL| Project name                                                       TEST
 GLOBAL| Preferred FFT library                                             FFTW3
 GLOBAL| Preferred diagonalization lib.                                       SL
 GLOBAL| Run type                                                        GEO_OPT
 GLOBAL| All-to-all communication in single precision                          F
 GLOBAL| FFTs using library dependent lengths                                  F
 GLOBAL| Global print level                                               MEDIUM
 GLOBAL| MPI I/O enabled                                                       T
 GLOBAL| Total number of message passing processes                            80
 GLOBAL| Number of threads for this process                                    1
 GLOBAL| This output is from process                                           0
 GLOBAL| CPU model name :  Intel(R) Xeon(R) Gold 6148 CPU @ 2.40GHz

 MEMORY| system memory details [Kb]
 MEMORY|                        rank 0           min           max       average
 MEMORY| MemTotal            196614300     196614300     196614300     196614300
 MEMORY| MemFree             180449156     156631460     180451636     168589190
 MEMORY| Buffers                     0             0             0             0
 MEMORY| Cached                1450520       1450520      24038316      12744420
 MEMORY| Slab                  2080068       2080068       3793088       2936578
 MEMORY| SReclaimable           161688        161688        188848        175268
 MEMORY| MemLikelyFree       182061364     180858624     182063844     181508879


 *** Fundamental physical constants (SI units) ***

 *** Literature: B. J. Mohr and B. N. Taylor,
 ***             CODATA recommended values of the fundamental physical
 ***             constants: 2006, Web Version 5.1
 ***             http://physics.nist.gov/constants

 Speed of light in vacuum [m/s]                             2.99792458000000E+08
 Magnetic constant or permeability of vacuum [N/A**2]       1.25663706143592E-06
 Electric constant or permittivity of vacuum [F/m]          8.85418781762039E-12
 Planck constant (h) [J*s]                                  6.62606896000000E-34
 Planck constant (h-bar) [J*s]                              1.05457162825177E-34
 Elementary charge [C]                                      1.60217648700000E-19
 Electron mass [kg]                                         9.10938215000000E-31
 Electron g factor [ ]                                     -2.00231930436220E+00
 Proton mass [kg]                                           1.67262163700000E-27
 Fine-structure constant                                    7.29735253760000E-03
 Rydberg constant [1/m]                                     1.09737315685270E+07
 Avogadro constant [1/mol]                                  6.02214179000000E+23
 Boltzmann constant [J/K]                                   1.38065040000000E-23
 Atomic mass unit [kg]                                      1.66053878200000E-27
 Bohr radius [m]                                            5.29177208590000E-11

 *** Conversion factors ***

 [u] -> [a.u.]                                              1.82288848426455E+03
 [Angstrom] -> [Bohr] = [a.u.]                              1.88972613288564E+00
 [a.u.] = [Bohr] -> [Angstrom]                              5.29177208590000E-01
 [a.u.] -> [s]                                              2.41888432650478E-17
 [a.u.] -> [fs]                                             2.41888432650478E-02
 [a.u.] -> [J]                                              4.35974393937059E-18
 [a.u.] -> [N]                                              8.23872205491840E-08
 [a.u.] -> [K]                                              3.15774647902944E+05
 [a.u.] -> [kJ/mol]                                         2.62549961709828E+03
 [a.u.] -> [kcal/mol]                                       6.27509468713739E+02
 [a.u.] -> [Pa]                                             2.94210107994716E+13
 [a.u.] -> [bar]                                            2.94210107994716E+08
 [a.u.] -> [atm]                                            2.90362800883016E+08
 [a.u.] -> [eV]                                             2.72113838565563E+01
 [a.u.] -> [Hz]                                             6.57968392072181E+15
 [a.u.] -> [1/cm] (wave numbers)                            2.19474631370540E+05
 [a.u./Bohr**2] -> [1/cm]                                   5.14048714338585E+03
 

 CELL_TOP| Volume [angstrom^3]:                                         4586.323
 CELL_TOP| Vector a [angstrom    12.864     0.000     0.000    |a| =      12.864
 CELL_TOP| Vector b [angstrom    -6.432    11.141     0.000    |b| =      12.864
 CELL_TOP| Vector c [angstrom     0.000     0.000    32.000    |c| =      32.000
 CELL_TOP| Angle (b,c), alpha [degree]:                                   90.000
 CELL_TOP| Angle (a,c), beta  [degree]:                                   90.000
 CELL_TOP| Angle (a,b), gamma [degree]:                                  120.000
 CELL_TOP| Numerically orthorhombic:                                          NO
 
 GENERATE|  Preliminary Number of Bonds generated:                             0
 GENERATE|  Achieved consistency in connectivity generation.

 CELL| Volume [angstrom^3]:                                             4586.323
 CELL| Vector a [angstrom]:      12.864     0.000     0.000    |a| =      12.864
 CELL| Vector b [angstrom]:      -6.432    11.141     0.000    |b| =      12.864
 CELL| Vector c [angstrom]:       0.000     0.000    32.000    |c| =      32.000
 CELL| Angle (b,c), alpha [degree]:                                       90.000
 CELL| Angle (a,c), beta  [degree]:                                       90.000
 CELL| Angle (a,b), gamma [degree]:                                      120.000
 CELL| Numerically orthorhombic:                                              NO

 CELL_REF| Volume [angstrom^3]:                                         4670.759
 CELL_REF| Vector a [angstrom    12.982     0.000     0.000    |a| =      12.982
 CELL_REF| Vector b [angstrom    -6.491    11.243     0.000    |b| =      12.982
 CELL_REF| Vector c [angstrom     0.000     0.000    32.000    |c| =      32.000
 CELL_REF| Angle (b,c), alpha [degree]:                                   90.000
 CELL_REF| Angle (a,c), beta  [degree]:                                   90.000
 CELL_REF| Angle (a,b), gamma [degree]:                                  120.000
 CELL_REF| Numerically orthorhombic:                                          NO

 *******************************************************************************
 *******************************************************************************
 **                                                                           **
 **     #####                         ##              ##                      **
 **    ##   ##            ##          ##              ##                      **
 **   ##     ##                       ##            ######                    **
 **   ##     ##  ##   ##  ##   #####  ##  ##   ####   ##    #####    #####    **
 **   ##     ##  ##   ##  ##  ##      ## ##   ##      ##   ##   ##  ##   ##   **
 **   ##  ## ##  ##   ##  ##  ##      ####     ###    ##   ######   ######    **
 **    ##  ###   ##   ##  ##  ##      ## ##      ##   ##   ##       ##        **
 **     #######   #####   ##   #####  ##  ##  ####    ##    #####   ##        **
 **           ##                                                    ##        **
 **                                                                           **
 **                                                ... make the atoms dance   **
 **                                                                           **
 **            Copyright (C) by CP2K developers group (2000 - 2018)           **
 **                                                                           **
 *******************************************************************************

 DFT| Spin unrestricted (spin-polarized) Kohn-Sham calculation               UKS
 DFT| Multiplicity                                                             1
 DFT| Number of spin states                                                    2
 DFT| Charge                                                                   0
 DFT| Self-interaction correction (SIC)                                       NO
 DFT| Cutoffs: density                                              1.000000E-10
 DFT|          gradient                                             1.000000E-10
 DFT|          tau                                                  1.000000E-10
 DFT|          cutoff_smoothing_range                               0.000000E+00
 DFT| XC density smoothing                                                  NONE
 DFT| XC derivatives                                                          PW
 FUNCTIONAL| ROUTINE=NEW
 FUNCTIONAL| PBE:
 FUNCTIONAL| J.P.Perdew, K.Burke, M.Ernzerhof, Phys. Rev. Letter, vol. 77, n 18,
 FUNCTIONAL|  pp. 3865-3868, (1996){spin polarized}                             
 vdW POTENTIAL|                                                   Pair Potential
 vdW POTENTIAL|          DFT-D3 (Version 3.1)
 vdW POTENTIAL|          Potential Form: S. Grimme et al, JCP 132: 154104 (2010)
 vdW POTENTIAL|          Zero Damping
 vdW POTENTIAL|          Cutoff Radius [Bohr]:                             18.90
 vdW POTENTIAL|          s6 Scaling Factor:                               1.0000
 vdW POTENTIAL|          sr6 Scaling Factor:                              1.2170
 vdW POTENTIAL|          s8 Scaling Factor:                               0.7220
 vdW POTENTIAL|          Cutoff for CN calculation:                   0.1000E-05

 QS| Method:                                                                 GPW
 QS| Density plane wave grid type                        NON-SPHERICAL FULLSPACE
 QS| Number of grid levels:                                                    5
 QS| Density cutoff [a.u.]:                                                600.0
 QS| Multi grid cutoff [a.u.]: 1) grid level                               600.0
 QS|                           2) grid level                               200.0
 QS|                           3) grid level                                66.7
 QS|                           4) grid level                                22.2
 QS|                           5) grid level                                 7.4
 QS| Grid level progression factor:                                          3.0
 QS| Relative density cutoff [a.u.]:                                        20.0
 QS| Consistent realspace mapping and integration 
 QS| Interaction thresholds: eps_pgf_orb:                                1.0E-07
 QS|                         eps_filter_matrix:                          0.0E+00
 QS|                         eps_core_charge:                            1.0E-16
 QS|                         eps_rho_gspace:                             1.0E-14
 QS|                         eps_rho_rspace:                             1.0E-14
 QS|                         eps_gvg_rspace:                             1.0E-07
 QS|                         eps_ppl:                                    1.0E-02
 QS|                         eps_ppnl:                                   1.0E-09


 ATOMIC KIND INFORMATION

  1. Atomic kind: N                                     Number of atoms:     100

     Orbital Basis Set                                        DZVP-MOLOPT-SR-GTH

       Number of orbital shell sets:                                           1
       Number of orbital shells:                                               5
       Number of primitive Cartesian functions:                                5
       Number of Cartesian basis functions:                                   14
       Number of spherical basis functions:                                   13
       Norm type:                                                              2

       Normalised Cartesian orbitals:

                        Set   Shell   Orbital            Exponent    Coefficient

                          1       1    2s                7.341988       0.360561
                                                         2.542637       0.139177
                                                         0.888575      -0.289383
                                                         0.333802      -0.182244
                                                         0.112012      -0.019197

                          1       2    3s                7.341988       0.282000
                                                         2.542637       0.177875
                                                         0.888575      -0.278381
                                                         0.333802       0.008577
                                                         0.112012       0.154176

                          1       3    3px               7.341988      -1.188719
                                                         2.542637      -0.973969
                                                         0.888575      -0.501079
                                                         0.333802      -0.144894
                                                         0.112012      -0.013986
                          1       3    3py               7.341988      -1.188719
                                                         2.542637      -0.973969
                                                         0.888575      -0.501079
                                                         0.333802      -0.144894
                                                         0.112012      -0.013986
                          1       3    3pz               7.341988      -1.188719
                                                         2.542637      -0.973969
                                                         0.888575      -0.501079
                                                         0.333802      -0.144894
                                                         0.112012      -0.013986

                          1       4    4px               7.341988      -0.094798
                                                         2.542637       0.050069
                                                         0.888575      -0.114797
                                                         0.333802       0.144793
                                                         0.112012       0.066710
                          1       4    4py               7.341988      -0.094798
                                                         2.542637       0.050069
                                                         0.888575      -0.114797
                                                         0.333802       0.144793
                                                         0.112012       0.066710
                          1       4    4pz               7.341988      -0.094798
                                                         2.542637       0.050069
                                                         0.888575      -0.114797
                                                         0.333802       0.144793
                                                         0.112012       0.066710

                          1       5    4dx2              7.341988       1.354688
                                                         2.542637       0.690378
                                                         0.888575       0.855359
                                                         0.333802       0.091746
                                                         0.112012       0.001253
                          1       5    4dxy              7.341988       2.346389
                                                         2.542637       1.195770
                                                         0.888575       1.481524
                                                         0.333802       0.158910
                                                         0.112012       0.002169
                          1       5    4dxz              7.341988       2.346389
                                                         2.542637       1.195770
                                                         0.888575       1.481524
                                                         0.333802       0.158910
                                                         0.112012       0.002169
                          1       5    4dy2              7.341988       1.354688
                                                         2.542637       0.690378
                                                         0.888575       0.855359
                                                         0.333802       0.091746
                                                         0.112012       0.001253
                          1       5    4dyz              7.341988       2.346389
                                                         2.542637       1.195770
                                                         0.888575       1.481524
                                                         0.333802       0.158910
                                                         0.112012       0.002169
                          1       5    4dz2              7.341988       1.354688
                                                         2.542637       0.690378
                                                         0.888575       0.855359
                                                         0.333802       0.091746
                                                         0.112012       0.001253

     GTH Potential information for                                    GTH-PBE-q5

       Description:                       Goedecker-Teter-Hutter pseudopotential
                                           Goedecker et al., PRB 54, 1703 (1996)
                                          Hartwigsen et al., PRB 58, 3641 (1998)
                                                      Krack, TCA 114, 145 (2005)

       Gaussian exponent of the core charge distribution:               6.208322
       Electronic configuration (s p d ...):                               2   3

       Parameters of the local part of the GTH pseudopotential:

                          rloc        C1          C2          C3          C4
                        0.283791  -12.415226    1.868096

       Parameters of the non-local part of the GTH pseudopotential:

                   l      r(l)      h(i,j,l)

                   0    0.255405   13.630263
                   1    0.245495

  2. Atomic kind: Ga                                    Number of atoms:     100

     Orbital Basis Set                                        DZVP-MOLOPT-SR-GTH

       Number of orbital shell sets:                                           1
       Number of orbital shells:                                               7
       Number of primitive Cartesian functions:                                6
       Number of Cartesian basis functions:                                   30
       Number of spherical basis functions:                                   25
       Norm type:                                                              2

       Normalised Cartesian orbitals:

                        Set   Shell   Orbital            Exponent    Coefficient

                          1       1    2s                7.066654       0.013136
                                                         3.428369      -0.094392
                                                         1.430064       0.265435
                                                         0.571611       0.056465
                                                         0.232197      -0.192187
                                                         0.076562      -0.044987

                          1       2    3s                7.066654      -0.098564
                                                         3.428369       0.010390
                                                         1.430064       0.351249
                                                         0.571611       0.182615
                                                         0.232197      -0.425358
                                                         0.076562       0.190349

                          1       3    3px               7.066654       0.002364
                                                         3.428369       0.019222
                                                         1.430064       0.250132
                                                         0.571611      -0.058486
                                                         0.232197      -0.159451
                                                         0.076562      -0.020696
                          1       3    3py               7.066654       0.002364
                                                         3.428369       0.019222
                                                         1.430064       0.250132
                                                         0.571611      -0.058486
                                                         0.232197      -0.159451
                                                         0.076562      -0.020696
                          1       3    3pz               7.066654       0.002364
                                                         3.428369       0.019222
                                                         1.430064       0.250132
                                                         0.571611      -0.058486
                                                         0.232197      -0.159451
                                                         0.076562      -0.020696

                          1       4    4px               7.066654       0.492448
                                                         3.428369      -0.614736
                                                         1.430064      -0.191654
                                                         0.571611       0.037801
                                                         0.232197       0.302315
                                                         0.076562      -0.071336
                          1       4    4py               7.066654       0.492448
                                                         3.428369      -0.614736
                                                         1.430064      -0.191654
                                                         0.571611       0.037801
                                                         0.232197       0.302315
                                                         0.076562      -0.071336
                          1       4    4pz               7.066654       0.492448
                                                         3.428369      -0.614736
                                                         1.430064      -0.191654
                                                         0.571611       0.037801
                                                         0.232197       0.302315
                                                         0.076562      -0.071336

                          1       5    4dx2              7.066654     -15.264855
                                                         3.428369      -5.345726
                                                         1.430064      -1.022732
                                                         0.571611      -0.123148
                                                         0.232197      -0.006983
                                                         0.076562      -0.000022
                          1       5    4dxy              7.066654     -26.439504
                                                         3.428369      -9.259069
                                                         1.430064      -1.771423
                                                         0.571611      -0.213299
                                                         0.232197      -0.012094
                                                         0.076562      -0.000037
                          1       5    4dxz              7.066654     -26.439504
                                                         3.428369      -9.259069
                                                         1.430064      -1.771423
                                                         0.571611      -0.213299
                                                         0.232197      -0.012094
                                                         0.076562      -0.000037
                          1       5    4dy2              7.066654     -15.264855
                                                         3.428369      -5.345726
                                                         1.430064      -1.022732
                                                         0.571611      -0.123148
                                                         0.232197      -0.006983
                                                         0.076562      -0.000022
                          1       5    4dyz              7.066654     -26.439504
                                                         3.428369      -9.259069
                                                         1.430064      -1.771423
                                                         0.571611      -0.213299
                                                         0.232197      -0.012094
                                                         0.076562      -0.000037
                          1       5    4dz2              7.066654     -15.264855
                                                         3.428369      -5.345726
                                                         1.430064      -1.022732
                                                         0.571611      -0.123148
                                                         0.232197      -0.006983
                                                         0.076562      -0.000022

                          1       6    5dx2              7.066654      -5.739265
                                                         3.428369      -2.129289
                                                         1.430064      -0.700423
                                                         0.571611       0.161606
                                                         0.232197       0.043513
                                                         0.076562       0.011205
                          1       6    5dxy              7.066654      -9.940698
                                                         3.428369      -3.688037
                                                         1.430064      -1.213168
                                                         0.571611       0.279909
                                                         0.232197       0.075368
                                                         0.076562       0.019407
                          1       6    5dxz              7.066654      -9.940698
                                                         3.428369      -3.688037
                                                         1.430064      -1.213168
                                                         0.571611       0.279909
                                                         0.232197       0.075368
                                                         0.076562       0.019407
                          1       6    5dy2              7.066654      -5.739265
                                                         3.428369      -2.129289
                                                         1.430064      -0.700423
                                                         0.571611       0.161606
                                                         0.232197       0.043513
                                                         0.076562       0.011205
                          1       6    5dyz              7.066654      -9.940698
                                                         3.428369      -3.688037
                                                         1.430064      -1.213168
                                                         0.571611       0.279909
                                                         0.232197       0.075368
                                                         0.076562       0.019407
                          1       6    5dz2              7.066654      -5.739265
                                                         3.428369      -2.129289
                                                         1.430064      -0.700423
                                                         0.571611       0.161606
                                                         0.232197       0.043513
                                                         0.076562       0.011205

                          1       7    5fx3              7.066654       0.705879
                                                         3.428369      -0.273976
                                                         1.430064       0.113667
                                                         0.571611       0.132480
                                                         0.232197       0.012437
                                                         0.076562       0.003241
                          1       7    5fx2y             7.066654       1.578393
                                                         3.428369      -0.612629
                                                         1.430064       0.254167
                                                         0.571611       0.296234
                                                         0.232197       0.027811
                                                         0.076562       0.007246
                          1       7    5fx2z             7.066654       1.578393
                                                         3.428369      -0.612629
                                                         1.430064       0.254167
                                                         0.571611       0.296234
                                                         0.232197       0.027811
                                                         0.076562       0.007246
                          1       7    5fxy2             7.066654       1.578393
                                                         3.428369      -0.612629
                                                         1.430064       0.254167
                                                         0.571611       0.296234
                                                         0.232197       0.027811
                                                         0.076562       0.007246
                          1       7    5fxyz             7.066654       2.733856
                                                         3.428369      -1.061105
                                                         1.430064       0.440230
                                                         0.571611       0.513092
                                                         0.232197       0.048170
                                                         0.076562       0.012551
                          1       7    5fxz2             7.066654       1.578393
                                                         3.428369      -0.612629
                                                         1.430064       0.254167
                                                         0.571611       0.296234
                                                         0.232197       0.027811
                                                         0.076562       0.007246
                          1       7    5fy3              7.066654       0.705879
                                                         3.428369      -0.273976
                                                         1.430064       0.113667
                                                         0.571611       0.132480
                                                         0.232197       0.012437
                                                         0.076562       0.003241
                          1       7    5fy2z             7.066654       1.578393
                                                         3.428369      -0.612629
                                                         1.430064       0.254167
                                                         0.571611       0.296234
                                                         0.232197       0.027811
                                                         0.076562       0.007246
                          1       7    5fyz2             7.066654       1.578393
                                                         3.428369      -0.612629
                                                         1.430064       0.254167
                                                         0.571611       0.296234
                                                         0.232197       0.027811
                                                         0.076562       0.007246
                          1       7    5fz3              7.066654       0.705879
                                                         3.428369      -0.273976
                                                         1.430064       0.113667
                                                         0.571611       0.132480
                                                         0.232197       0.012437
                                                         0.076562       0.003241

     GTH Potential information for                                   GTH-PBE-q13

       Description:                       Goedecker-Teter-Hutter pseudopotential
                                           Goedecker et al., PRB 54, 1703 (1996)
                                          Hartwigsen et al., PRB 58, 3641 (1998)
                                                      Krack, TCA 114, 145 (2005)

       Gaussian exponent of the core charge distribution:               2.082466
       Electronic configuration (s p d ...):                           2   1  10

       Parameters of the local part of the GTH pseudopotential:

                          rloc        C1          C2          C3          C4
                        0.490000

       Parameters of the non-local part of the GTH pseudopotential:

                   l      r(l)      h(i,j,l)

                   0    0.416777   10.475690   -4.921768    0.870706
                                   -4.921768    7.770178   -2.248152
                                    0.870706   -2.248152    1.784415
                   1    0.569627    1.777985    0.195860
                                    0.195860   -0.231744
                   2    0.238126  -16.248680

  3. Atomic kind: O                                     Number of atoms:       1

     Orbital Basis Set                                     DZVP-MOLOPT-SR-GTH-q6

       Number of orbital shell sets:                                           1
       Number of orbital shells:                                               5
       Number of primitive Cartesian functions:                                5
       Number of Cartesian basis functions:                                   14
       Number of spherical basis functions:                                   13
       Norm type:                                                              2

       Normalised Cartesian orbitals:

                        Set   Shell   Orbital            Exponent    Coefficient

                          1       1    2s               10.389228       0.396646
                                                         3.849621       0.208811
                                                         1.388401      -0.301641
                                                         0.496955      -0.274061
                                                         0.162492      -0.033677

                          1       2    3s               10.389228       0.303673
                                                         3.849621       0.240943
                                                         1.388401      -0.313066
                                                         0.496955      -0.043055
                                                         0.162492       0.213991

                          1       3    3px              10.389228      -1.530415
                                                         3.849621      -1.371928
                                                         1.388401      -0.761951
                                                         0.496955      -0.253695
                                                         0.162492      -0.035541
                          1       3    3py              10.389228      -1.530415
                                                         3.849621      -1.371928
                                                         1.388401      -0.761951
                                                         0.496955      -0.253695
                                                         0.162492      -0.035541
                          1       3    3pz              10.389228      -1.530415
                                                         3.849621      -1.371928
                                                         1.388401      -0.761951
                                                         0.496955      -0.253695
                                                         0.162492      -0.035541

                          1       4    4px              10.389228      -0.565392
                                                         3.849621      -0.038231
                                                         1.388401      -0.382373
                                                         0.496955       0.179070
                                                         0.162492       0.122714
                          1       4    4py              10.389228      -0.565392
                                                         3.849621      -0.038231
                                                         1.388401      -0.382373
                                                         0.496955       0.179070
                                                         0.162492       0.122714
                          1       4    4pz              10.389228      -0.565392
                                                         3.849621      -0.038231
                                                         1.388401      -0.382373
                                                         0.496955       0.179070
                                                         0.162492       0.122714

                          1       5    4dx2             10.389228       1.867377
                                                         3.849621       0.670994
                                                         1.388401       1.353441
                                                         0.496955       0.273538
                                                         0.162492       0.006620
                          1       5    4dxy             10.389228       3.234392
                                                         3.849621       1.162195
                                                         1.388401       2.344229
                                                         0.496955       0.473781
                                                         0.162492       0.011466
                          1       5    4dxz             10.389228       3.234392
                                                         3.849621       1.162195
                                                         1.388401       2.344229
                                                         0.496955       0.473781
                                                         0.162492       0.011466
                          1       5    4dy2             10.389228       1.867377
                                                         3.849621       0.670994
                                                         1.388401       1.353441
                                                         0.496955       0.273538
                                                         0.162492       0.006620
                          1       5    4dyz             10.389228       3.234392
                                                         3.849621       1.162195
                                                         1.388401       2.344229
                                                         0.496955       0.473781
                                                         0.162492       0.011466
                          1       5    4dz2             10.389228       1.867377
                                                         3.849621       0.670994
                                                         1.388401       1.353441
                                                         0.496955       0.273538
                                                         0.162492       0.006620

     GTH Potential information for                                    GTH-PBE-q6

       Description:                       Goedecker-Teter-Hutter pseudopotential
                                           Goedecker et al., PRB 54, 1703 (1996)
                                          Hartwigsen et al., PRB 58, 3641 (1998)
                                                      Krack, TCA 114, 145 (2005)

       Gaussian exponent of the core charge distribution:               8.360253
       Electronic configuration (s p d ...):                               2   4

       Parameters of the local part of the GTH pseudopotential:

                          rloc        C1          C2          C3          C4
                        0.244554  -16.667215    2.487311

       Parameters of the non-local part of the GTH pseudopotential:

                   l      r(l)      h(i,j,l)

                   0    0.220956   18.337458
                   1    0.211332

  4. Atomic kind: H                                     Number of atoms:       4

     Orbital Basis Set                                     DZVP-MOLOPT-SR-GTH-q1

       Number of orbital shell sets:                                           1
       Number of orbital shells:                                               3
       Number of primitive Cartesian functions:                                5
       Number of Cartesian basis functions:                                    5
       Number of spherical basis functions:                                    5
       Norm type:                                                              2

       Normalised Cartesian orbitals:

                        Set   Shell   Orbital            Exponent    Coefficient

                          1       1    2s               10.068468      -0.133023
                                                         2.680223      -0.177618
                                                         0.791502      -0.258419
                                                         0.239116      -0.107525
                                                         0.082193      -0.014019

                          1       2    3s               10.068468       0.344673
                                                         2.680223       1.819821
                                                         0.791502      -0.999069
                                                         0.239116       0.017430
                                                         0.082193       0.082660

                          1       3    3px              10.068468       0.155326
                                                         2.680223       0.367157
                                                         0.791502       0.311480
                                                         0.239116       0.080105
                                                         0.082193       0.033440
                          1       3    3py              10.068468       0.155326
                                                         2.680223       0.367157
                                                         0.791502       0.311480
                                                         0.239116       0.080105
                                                         0.082193       0.033440
                          1       3    3pz              10.068468       0.155326
                                                         2.680223       0.367157
                                                         0.791502       0.311480
                                                         0.239116       0.080105
                                                         0.082193       0.033440

     GTH Potential information for                                    GTH-PBE-q1

       Description:                       Goedecker-Teter-Hutter pseudopotential
                                           Goedecker et al., PRB 54, 1703 (1996)
                                          Hartwigsen et al., PRB 58, 3641 (1998)
                                                      Krack, TCA 114, 145 (2005)

       Gaussian exponent of the core charge distribution:              12.500000
       Electronic configuration (s p d ...):                                   1

       Parameters of the local part of the GTH pseudopotential:

                          rloc        C1          C2          C3          C4
                        0.200000   -4.178900    0.724463

  5. Atomic kind: C                                     Number of atoms:       1

     Orbital Basis Set                                     DZVP-MOLOPT-SR-GTH-q4

       Number of orbital shell sets:                                           1
       Number of orbital shells:                                               5
       Number of primitive Cartesian functions:                                5
       Number of Cartesian basis functions:                                   14
       Number of spherical basis functions:                                   13
       Norm type:                                                              2

       Normalised Cartesian orbitals:

                        Set   Shell   Orbital            Exponent    Coefficient

                          1       1    2s                5.605331       0.322515
                                                         2.113016       0.213043
                                                         0.769911      -0.209686
                                                         0.348157      -0.219794
                                                         0.128212      -0.022789

                          1       2    3s                5.605331       0.552234
                                                         2.113016       0.082072
                                                         0.769911       0.007843
                                                         0.348157       0.136893
                                                         0.128212       0.074283

                          1       3    3px               5.605331      -0.703879
                                                         2.113016      -0.642521
                                                         0.769911      -0.374851
                                                         0.348157      -0.139743
                                                         0.128212      -0.027849
                          1       3    3py               5.605331      -0.703879
                                                         2.113016      -0.642521
                                                         0.769911      -0.374851
                                                         0.348157      -0.139743
                                                         0.128212      -0.027849
                          1       3    3pz               5.605331      -0.703879
                                                         2.113016      -0.642521
                                                         0.769911      -0.374851
                                                         0.348157      -0.139743
                                                         0.128212      -0.027849

                          1       4    4px               5.605331      -0.480376
                                                         2.113016      -0.552894
                                                         0.769911      -0.316145
                                                         0.348157       0.210505
                                                         0.128212       0.076095
                          1       4    4py               5.605331      -0.480376
                                                         2.113016      -0.552894
                                                         0.769911      -0.316145
                                                         0.348157       0.210505
                                                         0.128212       0.076095
                          1       4    4pz               5.605331      -0.480376
                                                         2.113016      -0.552894
                                                         0.769911      -0.316145
                                                         0.348157       0.210505
                                                         0.128212       0.076095

                          1       5    4dx2              5.605331       0.640026
                                                         2.113016       0.274300
                                                         0.769911       0.446711
                                                         0.348157       0.028674
                                                         0.128212       0.029790
                          1       5    4dxy              5.605331       1.108557
                                                         2.113016       0.475102
                                                         0.769911       0.773726
                                                         0.348157       0.049666
                                                         0.128212       0.051599
                          1       5    4dxz              5.605331       1.108557
                                                         2.113016       0.475102
                                                         0.769911       0.773726
                                                         0.348157       0.049666
                                                         0.128212       0.051599
                          1       5    4dy2              5.605331       0.640026
                                                         2.113016       0.274300
                                                         0.769911       0.446711
                                                         0.348157       0.028674
                                                         0.128212       0.029790
                          1       5    4dyz              5.605331       1.108557
                                                         2.113016       0.475102
                                                         0.769911       0.773726
                                                         0.348157       0.049666
                                                         0.128212       0.051599
                          1       5    4dz2              5.605331       0.640026
                                                         2.113016       0.274300
                                                         0.769911       0.446711
                                                         0.348157       0.028674
                                                         0.128212       0.029790

     GTH Potential information for                                    GTH-PBE-q4

       Description:                       Goedecker-Teter-Hutter pseudopotential
                                           Goedecker et al., PRB 54, 1703 (1996)
                                          Hartwigsen et al., PRB 58, 3641 (1998)
                                                      Krack, TCA 114, 145 (2005)

       Gaussian exponent of the core charge distribution:               4.364419
       Electronic configuration (s p d ...):                               2   2

       Parameters of the local part of the GTH pseudopotential:

                          rloc        C1          C2          C3          C4
                        0.338471   -8.803674    1.339211

       Parameters of the non-local part of the GTH pseudopotential:

                   l      r(l)      h(i,j,l)

                   0    0.302576    9.622487
                   1    0.291507


 MOLECULE KIND INFORMATION


 All atoms are their own molecule, skipping detailed information


 TOTAL NUMBERS AND MAXIMUM NUMBERS

  Total number of            - Atomic kinds:                                   5
                             - Atoms:                                        206
                             - Shell sets:                                   206
                             - Shells:                                      1222
                             - Primitive Cartesian functions:               1130
                             - Cartesian basis functions:                   4448
                             - Spherical basis functions:                   3846

  Maximum angular momentum of- Orbital basis functions:                        3
                             - Local part of the GTH pseudopotential:          2
                             - Non-local part of the GTH pseudopotential:      4


 MODULE QUICKSTEP:  ATOMIC COORDINATES IN angstrom

  Atom  Kind  Element       X           Y           Z          Z(eff)       Mass

       1     1 N    7    0.020634    2.028273    2.475844      5.00      14.0067
       2     2 Ga  31    0.020278    0.047988    2.803973     13.00      69.7230
       3     1 N    7    0.020315    0.047339    4.969314      5.00      14.0067
       4     2 Ga  31    0.020362    1.874807    5.752527     13.00      69.7230
       5     1 N    7    0.020170    1.893193    7.749217      5.00      14.0067
       6     2 Ga  31    0.019625    0.047560    8.397367     13.00      69.7230
       7     1 N    7    0.019572    0.047657   10.371319      5.00      14.0067
       8     2 Ga  31    0.019639    1.886871   11.021454     13.00      69.7230
       9     1 N    7    0.019216    1.867507   13.018087      5.00      14.0067
      10     2 Ga  31    0.016649    0.042782   13.816555     13.00      69.7230
      11     1 N    7    0.018673    0.042738   16.022364      5.00      14.0067
      12     2 Ga  31    0.018746    2.064353   16.412315     13.00      69.7230
      13     2 Ga  31    0.020293    3.762039    1.440109     13.00      69.7230
      14     1 N    7   -1.480645    4.628064    2.476272      5.00      14.0067
      15     2 Ga  31   -1.685332    2.776107    3.241071     13.00      69.7230
      16     1 N    7   -1.588459    2.831938    5.204522      5.00      14.0067
      17     2 Ga  31   -1.613061    4.703761    5.752359     13.00      69.7230
      18     1 N    7   -1.597891    4.695282    7.749081      5.00      14.0067
      19     2 Ga  31   -1.578393    2.838312    8.388885     13.00      69.7230
      20     1 N    7   -1.576804    2.839234   10.383061      5.00      14.0067
      21     2 Ga  31   -1.602900    4.698216   11.020089     13.00      69.7230
      22     1 N    7   -1.620234    4.708464   13.016224      5.00      14.0067
      23     2 Ga  31   -1.578569    2.839555   13.569636     13.00      69.7230
      24     1 N    7   -1.602615    2.827645   15.538087      5.00      14.0067
      25     2 Ga  31   -1.443576    4.606509   16.412513     13.00      69.7230
      26     1 N    7    0.028458    3.758733   17.531930      5.00      14.0067
      27     1 N    7   -3.195766    7.598813    2.475841      5.00      14.0067
      28     2 Ga  31   -3.195751    5.618221    2.804133     13.00      69.7230
      29     1 N    7   -3.195840    5.617717    4.969120      5.00      14.0067
      30     2 Ga  31   -3.196097    7.445392    5.752151     13.00      69.7230
      31     1 N    7   -3.196193    7.463658    7.748606      5.00      14.0067
      32     2 Ga  31   -3.196467    5.618168    8.396948     13.00      69.7230
      33     1 N    7   -3.196135    5.618105   10.371011      5.00      14.0067
      34     2 Ga  31   -3.196553    7.458432   11.019839     13.00      69.7230
      35     1 N    7   -3.196739    7.439600   13.014292      5.00      14.0067
      36     2 Ga  31   -3.200222    5.619248   13.811985     13.00      69.7230
      37     1 N    7   -3.199279    5.618817   16.022057      5.00      14.0067
      38     2 Ga  31   -3.197823    7.658232   16.429740     13.00      69.7230
      39     2 Ga  31   -3.195856    9.332882    1.441247     13.00      69.7230
      40     1 N    7   -4.696818   10.198706    2.476397      5.00      14.0067
      41     2 Ga  31   -4.901971    8.346572    3.240980     13.00      69.7230
      42     1 N    7   -4.804924    8.402621    5.204259      5.00      14.0067
      43     2 Ga  31   -4.829336   10.274538    5.752213     13.00      69.7230
      44     1 N    7   -4.814059   10.265973    7.748742      5.00      14.0067
      45     2 Ga  31   -4.794908    8.408945    8.388256     13.00      69.7230
      46     1 N    7   -4.793447    8.409911   10.381850      5.00      14.0067
      47     2 Ga  31   -4.819111   10.268587   11.020466     13.00      69.7230
      48     1 N    7   -4.836300   10.278268   13.014829      5.00      14.0067
      49     2 Ga  31   -4.794646    8.409608   13.571521     13.00      69.7230
      50     1 N    7   -4.819213    8.395713   15.534227      5.00      14.0067
      51     2 Ga  31   -4.645752   10.167675   16.429841     13.00      69.7230
      52     1 N    7   -3.186483    9.334241   17.560571      5.00      14.0067
      53     1 N    7    3.236699    1.904481    2.565201      5.00      14.0067
      54     2 Ga  31    3.236822    0.161308    3.241721     13.00      69.7230
      55     1 N    7    3.236367    0.048600    5.204798      5.00      14.0067
      56     2 Ga  31    3.236300    1.904459    5.828307     13.00      69.7230
      57     1 N    7    3.236174    1.904481    7.801668      5.00      14.0067
      58     2 Ga  31    3.236167    0.036355    8.389082     13.00      69.7230
      59     1 N    7    3.236277    0.035101   10.383111      5.00      14.0067
      60     2 Ga  31    3.236517    1.904626   10.977227     13.00      69.7230
      61     1 N    7    3.234762    1.904947   12.950731      5.00      14.0067
      62     2 Ga  31    3.235239    0.034865   13.571938     13.00      69.7230
      63     1 N    7    3.231160    0.066181   15.535500      5.00      14.0067
      64     2 Ga  31    3.236441    1.904761   15.816224     13.00      69.7230
      65     1 N    7    1.521539    4.628060    2.476219      5.00      14.0067
      66     2 Ga  31    1.726616    2.776187    3.240994     13.00      69.7230
      67     1 N    7    1.629254    2.831891    5.204535      5.00      14.0067
      68     2 Ga  31    1.653492    4.703674    5.752463     13.00      69.7230
      69     1 N    7    1.637845    4.695126    7.749191      5.00      14.0067
      70     2 Ga  31    1.618481    2.838410    8.389557     13.00      69.7230
      71     1 N    7    1.616892    2.839412   10.384182      5.00      14.0067
      72     2 Ga  31    1.643258    4.698819   11.021775     13.00      69.7230
      73     1 N    7    1.659815    4.709222   13.018365      5.00      14.0067
      74     2 Ga  31    1.616270    2.839929   13.569492     13.00      69.7230
      75     1 N    7    1.640283    2.825174   15.539443      5.00      14.0067
      76     2 Ga  31    1.490884    4.612575   16.411227     13.00      69.7230
      77     1 N    7    0.020379    7.474840    2.565126      5.00      14.0067
      78     2 Ga  31    0.020512    5.731455    3.241427     13.00      69.7230
      79     1 N    7    0.020246    5.618884    5.204784      5.00      14.0067
      80     2 Ga  31    0.020086    7.474831    5.827881     13.00      69.7230
      81     1 N    7    0.019903    7.474849    7.801236      5.00      14.0067
      82     2 Ga  31    0.020029    5.606961    8.388956     13.00      69.7230
      83     1 N    7    0.020171    5.605558   10.383366      5.00      14.0067
      84     2 Ga  31    0.020387    7.475519   10.977665     13.00      69.7230
      85     1 N    7    0.019278    7.474486   12.950582      5.00      14.0067
      86     2 Ga  31    0.019074    5.606665   13.569550     13.00      69.7230
      87     1 N    7    0.016362    5.634547   15.538035      5.00      14.0067
      88     2 Ga  31    0.020633    7.478199   15.815501     13.00      69.7230
      89     1 N    7   -1.694709   10.198621    2.476503      5.00      14.0067
      90     2 Ga  31   -1.489574    8.346476    3.241119     13.00      69.7230
      91     1 N    7   -1.587085    8.402495    5.204448      5.00      14.0067
      92     2 Ga  31   -1.562613   10.274384    5.752368     13.00      69.7230
      93     1 N    7   -1.578229   10.265820    7.748749      5.00      14.0067
      94     2 Ga  31   -1.597778    8.409062    8.389039     13.00      69.7230
      95     1 N    7   -1.598900    8.410016   10.383043      5.00      14.0067
      96     2 Ga  31   -1.572882   10.269081   11.022310     13.00      69.7230
      97     1 N    7   -1.556404   10.278711   13.017252      5.00      14.0067
      98     2 Ga  31   -1.599616    8.409750   13.572452     13.00      69.7230
      99     1 N    7   -1.575276    8.391741   15.536846      5.00      14.0067
     100     2 Ga  31   -1.738580   10.174857   16.428795     13.00      69.7230
     101     1 N    7    6.452930    2.028117    2.476099      5.00      14.0067
     102     2 Ga  31    6.452907    0.047659    2.804679     13.00      69.7230
     103     1 N    7    6.452549    0.047053    4.969035      5.00      14.0067
     104     2 Ga  31    6.452664    1.874595    5.752385     13.00      69.7230
     105     1 N    7    6.452447    1.892912    7.748697      5.00      14.0067
     106     2 Ga  31    6.452320    0.047575    8.397832     13.00      69.7230
     107     1 N    7    6.452446    0.047404   10.371489      5.00      14.0067
     108     2 Ga  31    6.452469    1.887023   11.022043     13.00      69.7230
     109     1 N    7    6.452247    1.867997   13.016000      5.00      14.0067
     110     2 Ga  31    6.455455    0.047225   13.822660     13.00      69.7230
     111     1 N    7    6.455109    0.047285   16.021760      5.00      14.0067
     112     2 Ga  31    6.452100    2.086854   16.435895     13.00      69.7230
     113     2 Ga  31    6.452648    3.761738    1.441031     13.00      69.7230
     114     1 N    7    4.951748    4.627848    2.476360      5.00      14.0067
     115     2 Ga  31    4.746705    2.775893    3.241334     13.00      69.7230
     116     1 N    7    4.843693    2.831728    5.204680      5.00      14.0067
     117     2 Ga  31    4.819128    4.703636    5.752316     13.00      69.7230
     118     1 N    7    4.834339    4.695034    7.748724      5.00      14.0067
     119     2 Ga  31    4.854231    2.838248    8.389291     13.00      69.7230
     120     1 N    7    4.855359    2.838971   10.382910      5.00      14.0067
     121     2 Ga  31    4.829772    4.698272   11.020608     13.00      69.7230
     122     1 N    7    4.812620    4.708525   13.013951      5.00      14.0067
     123     2 Ga  31    4.855269    2.840326   13.572347     13.00      69.7230
     124     1 N    7    4.825037    2.826317   15.533637      5.00      14.0067
     125     2 Ga  31    5.010864    4.594783   16.436377     13.00      69.7230
     126     1 N    7    6.454733    3.752992   17.574244      5.00      14.0067
     127     1 N    7    3.236528    7.598627    2.475629      5.00      14.0067
     128     2 Ga  31    3.236402    5.618163    2.804342     13.00      69.7230
     129     1 N    7    3.236332    5.617489    4.969158      5.00      14.0067
     130     2 Ga  31    3.236263    7.445170    5.752239     13.00      69.7230
     131     1 N    7    3.236030    7.463491    7.748549      5.00      14.0067
     132     2 Ga  31    3.236194    5.618217    8.397477     13.00      69.7230
     133     1 N    7    3.235974    5.618248   10.371352      5.00      14.0067
     134     2 Ga  31    3.236077    7.458531   11.022145     13.00      69.7230
     135     1 N    7    3.235770    7.440344   13.014677      5.00      14.0067
     136     2 Ga  31    3.239882    5.623057   13.818409     13.00      69.7230
     137     1 N    7    3.240760    5.621715   16.021327      5.00      14.0067
     138     2 Ga  31    3.236731    7.677513   16.452022     13.00      69.7230
     139     2 Ga  31    3.236245    9.332740    1.440382     13.00      69.7230
     140     1 N    7    1.735512   10.198507    2.476528      5.00      14.0067
     141     2 Ga  31    1.530546    8.346317    3.240987     13.00      69.7230
     142     1 N    7    1.627372    8.402296    5.204376      5.00      14.0067
     143     2 Ga  31    1.603108   10.274221    5.752174     13.00      69.7230
     144     1 N    7    1.618169   10.265728    7.748524      5.00      14.0067
     145     2 Ga  31    1.637729    8.409017    8.389213     13.00      69.7230
     146     1 N    7    1.638941    8.409838   10.382533      5.00      14.0067
     147     2 Ga  31    1.613785   10.268612   11.022820     13.00      69.7230
     148     1 N    7    1.597053   10.278082   13.015469      5.00      14.0067
     149     2 Ga  31    1.639096    8.410357   13.577073     13.00      69.7230
     150     1 N    7    1.609954    8.392596   15.535023      5.00      14.0067
     151     2 Ga  31    1.803561   10.158916   16.453029     13.00      69.7230
     152     1 N    7    3.236867    9.329875   17.601656      5.00      14.0067
     153     1 N    7    9.669337    1.904262    2.565094      5.00      14.0067
     154     2 Ga  31    9.669329    0.160958    3.241519     13.00      69.7230
     155     1 N    7    9.668781    0.048356    5.204604      5.00      14.0067
     156     2 Ga  31    9.668824    1.904209    5.827977     13.00      69.7230
     157     1 N    7    9.668594    1.904248    7.801084      5.00      14.0067
     158     2 Ga  31    9.668275    0.036142    8.388997     13.00      69.7230
     159     1 N    7    9.668239    0.035006   10.382222      5.00      14.0067
     160     2 Ga  31    9.668443    1.903973   10.977586     13.00      69.7230
     161     1 N    7    9.669168    1.904999   12.950246      5.00      14.0067
     162     2 Ga  31    9.667844    0.034576   13.577241     13.00      69.7230
     163     1 N    7    9.669855    0.068442   15.535487      5.00      14.0067
     164     2 Ga  31    9.666761    1.902557   15.816567     13.00      69.7230
     165     1 N    7    7.953916    4.627847    2.476217      5.00      14.0067
     166     2 Ga  31    8.159261    2.775769    3.241001     13.00      69.7230
     167     1 N    7    8.061651    2.831689    5.204372      5.00      14.0067
     168     2 Ga  31    8.085911    4.703589    5.752092     13.00      69.7230
     169     1 N    7    8.070126    4.694892    7.748512      5.00      14.0067
     170     2 Ga  31    8.050780    2.838029    8.389051     13.00      69.7230
     171     1 N    7    8.049560    2.838588   10.382610      5.00      14.0067
     172     2 Ga  31    8.074201    4.697707   11.019600     13.00      69.7230
     173     1 N    7    8.090716    4.707772   13.013098      5.00      14.0067
     174     2 Ga  31    8.049190    2.839621   13.572965     13.00      69.7230
     175     1 N    7    8.078935    2.826593   15.535009      5.00      14.0067
     176     2 Ga  31    7.894017    4.594956   16.436629     13.00      69.7230
     177     1 N    7    6.452758    7.474761    2.564977      5.00      14.0067
     178     2 Ga  31    6.452820    5.731456    3.241411     13.00      69.7230
     179     1 N    7    6.452539    5.618713    5.204584      5.00      14.0067
     180     2 Ga  31    6.452251    7.474785    5.827387     13.00      69.7230
     181     1 N    7    6.452149    7.474733    7.800398      5.00      14.0067
     182     2 Ga  31    6.452229    5.606821    8.388371     13.00      69.7230
     183     1 N    7    6.452139    5.605669   10.381737      5.00      14.0067
     184     2 Ga  31    6.451931    7.475073   10.977052     13.00      69.7230
     185     1 N    7    6.452221    7.475242   12.949056      5.00      14.0067
     186     2 Ga  31    6.451707    5.606163   13.572115     13.00      69.7230
     187     1 N    7    6.452742    5.636935   15.532653      5.00      14.0067
     188     2 Ga  31    6.450776    7.475892   15.813498     13.00      69.7230
     189     1 N    7    4.737707   10.198462    2.476026      5.00      14.0067
     190     2 Ga  31    4.942523    8.346353    3.240683     13.00      69.7230
     191     1 N    7    4.845148    8.402372    5.204093      5.00      14.0067
     192     2 Ga  31    4.869771   10.274198    5.752259     13.00      69.7230
     193     1 N    7    4.853909   10.265575    7.748529      5.00      14.0067
     194     2 Ga  31    4.834509    8.408691    8.388920     13.00      69.7230
     195     1 N    7    4.833108    8.409597   10.382121      5.00      14.0067
     196     2 Ga  31    4.857935   10.268175   11.021831     13.00      69.7230
     197     1 N    7    4.873989   10.277484   13.014426      5.00      14.0067
     198     2 Ga  31    4.832638    8.409781   13.576794     13.00      69.7230
     199     1 N    7    4.862251    8.393767   15.535178      5.00      14.0067
     200     2 Ga  31    4.667623   10.157369   16.453342     13.00      69.7230
     201     3 O    8    3.232172    5.659903    0.334699      6.00      15.9994
     202     4 H    1    0.062525    2.051531    1.548923      1.00       1.0079
     203     5 C    6    4.018277    6.636815   -0.399923      4.00      12.0107
     204     4 H    1    3.377897    7.270565   -1.032815      1.00       1.0079
     205     4 H    1    4.517245    7.266703    0.344072      1.00       1.0079
     206     4 H    1    4.764437    6.119361   -1.017189      1.00       1.0079




 SCF PARAMETERS         Density guess:                                    ATOMIC
                        --------------------------------------------------------
                        max_scf:                                              80
                        max_scf_history:                                       0
                        max_diis:                                              4
                        --------------------------------------------------------
                        eps_scf:                                        5.00E-06
                        eps_scf_history:                                0.00E+00
                        eps_diis:                                       1.00E-01
                        eps_eigval:                                     1.00E-05
                        --------------------------------------------------------
                        level_shift [a.u.]:                                 0.00
                        --------------------------------------------------------
                        Outer loop SCF in use 
                        No variables optimised in outer loop
                        eps_scf                                         5.00E-06
                        max_scf                                                4
                        No outer loop optimization
                        step_size                                       5.00E-01

 PW_GRID| Information for grid number                                          1
 PW_GRID| Grid distributed over                                    80 processors
 PW_GRID| Real space group dimensions                                    80    1
 PW_GRID| the grid is blocked:                                                NO
 PW_GRID| Cutoff [a.u.]                                                    600.0
 PW_GRID| spherical cutoff:                                                   NO
 PW_GRID|   Bounds   1           -144     143                Points:         288
 PW_GRID|   Bounds   2           -144     143                Points:         288
 PW_GRID|   Bounds   3           -337     337                Points:         675
 PW_GRID| Volume element (a.u.^3)  0.5630E-03     Volume (a.u.^3)     31519.8467
 PW_GRID| Grid span                                                    FULLSPACE
 PW_GRID|   Distribution                         Average         Max         Min
 PW_GRID|   G-Vectors                           699840.0      699840      699840
 PW_GRID|   G-Rays                                2430.0        2430        2430
 PW_GRID|   Real Space Points                   699840.0      777600      583200

 PW_GRID| Information for grid number                                          2
 PW_GRID| Grid distributed over                                    80 processors
 PW_GRID| Real space group dimensions                                    80    1
 PW_GRID| the grid is blocked:                                                NO
 PW_GRID| Cutoff [a.u.]                                                    200.0
 PW_GRID| spherical cutoff:                                                   NO
 PW_GRID|   Bounds   1            -80      79                Points:         160
 PW_GRID|   Bounds   2            -80      79                Points:         160
 PW_GRID|   Bounds   3           -200     199                Points:         400
 PW_GRID| Volume element (a.u.^3)  0.3078E-02     Volume (a.u.^3)     31519.8467
 PW_GRID| Grid span                                                    FULLSPACE
 PW_GRID|   Distribution                         Average         Max         Min
 PW_GRID|   G-Vectors                           128000.0      128160      127840
 PW_GRID|   G-Rays                                 800.0         801         799
 PW_GRID|   Real Space Points                   128000.0      128000      128000

 PW_GRID| Information for grid number                                          3
 PW_GRID| Grid distributed over                                    80 processors
 PW_GRID| Real space group dimensions                                    80    1
 PW_GRID| the grid is blocked:                                                NO
 PW_GRID| Cutoff [a.u.]                                                     66.7
 PW_GRID| spherical cutoff:                                                   NO
 PW_GRID|   Bounds   1            -48      47                Points:          96
 PW_GRID|   Bounds   2            -48      47                Points:          96
 PW_GRID|   Bounds   3           -112     112                Points:         225
 PW_GRID| Volume element (a.u.^3)  0.1520E-01     Volume (a.u.^3)     31519.8467
 PW_GRID| Grid span                                                    FULLSPACE
 PW_GRID|   Distribution                         Average         Max         Min
 PW_GRID|   G-Vectors                            25920.0       26688       24864
 PW_GRID|   G-Rays                                 270.0         278         259
 PW_GRID|   Real Space Points                    25920.0       43200       21600

 PW_GRID| Information for grid number                                          4
 PW_GRID| Grid distributed over                                    80 processors
 PW_GRID| Real space group dimensions                                     8   10
 PW_GRID| the grid is blocked:                                                NO
 PW_GRID| Cutoff [a.u.]                                                     22.2
 PW_GRID| spherical cutoff:                                                   NO
 PW_GRID|   Bounds   1            -27      26                Points:          54
[...]
 flops   235 x    64 x   166         477757030400     100.0%      0.0%      0.0%
 flops   950 x    32 x   166         603953152000     100.0%      0.0%      0.0%
 flops   955 x    32 x   166         607131852800     100.0%      0.0%      0.0%
 flops   963 x    32 x   166         612217774080     100.0%      0.0%      0.0%
 flops   235 x    64 x    32         620466176000     100.0%      0.0%      0.0%
 flops   235 x    32 x    64         620466176000     100.0%      0.0%      0.0%
 flops   978 x    32 x   166         621753876480     100.0%      0.0%      0.0%
 flops    25 x    25 x    43         691079875000     100.0%      0.0%      0.0%
 flops    25 x    11 x    25         723937500000     100.0%      0.0%      0.0%
 flops   235 x    32 x   190         751891712000     100.0%      0.0%      0.0%
 flops   235 x    32 x   202         799379609600     100.0%      0.0%      0.0%
 flops   950 x    64 x   166         878477312000     100.0%      0.0%      0.0%
 flops   955 x    64 x   166         883100876800     100.0%      0.0%      0.0%
 flops   963 x    64 x   166         890498580480     100.0%      0.0%      0.0%
 flops   235 x    64 x    64         902496256000     100.0%      0.0%      0.0%
 flops   978 x    64 x   166         904369274880     100.0%      0.0%      0.0%
 flops   224 x    32 x   166         939249991680     100.0%      0.0%      0.0%
 flops   235 x    64 x   190        1093660672000     100.0%      0.0%      0.0%
 flops   235 x    64 x   202        1162733977600     100.0%      0.0%      0.0%
 flops   224 x    32 x    32        1219810099200     100.0%      0.0%      0.0%
 flops   224 x    64 x   166        1366181806080     100.0%      0.0%      0.0%
 flops   950 x    32 x   190        1382543360000     100.0%      0.0%      0.0%
 flops   955 x    32 x   190        1389819904000     100.0%      0.0%      0.0%
 flops   963 x    32 x   190        1401462374400     100.0%      0.0%      0.0%
 flops   978 x    32 x   190        1423292006400     100.0%      0.0%      0.0%
 flops    13 x    13 x    32        1452083281792     100.0%      0.0%      0.0%
 flops   950 x    32 x   202        1469861888000     100.0%      0.0%      0.0%
 flops   955 x    32 x   202        1477598003200     100.0%      0.0%      0.0%
 flops   963 x    32 x   202        1489975787520     100.0%      0.0%      0.0%
 flops   978 x    32 x   202        1513184133120     100.0%      0.0%      0.0%
 flops   224 x    32 x    64        1774269235200     100.0%      0.0%      0.0%
 flops   224 x    64 x    32        1774269235200     100.0%      0.0%      0.0%
 flops   950 x    32 x    32        1894170009600     100.0%      0.0%      0.0%
 flops   955 x    32 x    32        1904139325440     100.0%      0.0%      0.0%
 flops   963 x    32 x    32        1920090230784     100.0%      0.0%      0.0%
 flops   978 x    32 x    32        1949998178304     100.0%      0.0%      0.0%
 flops   950 x    64 x   190        2010972160000     100.0%      0.0%      0.0%
 flops   955 x    64 x   190        2021556224000     100.0%      0.0%      0.0%
 flops   963 x    64 x   190        2038490726400     100.0%      0.0%      0.0%
 flops   978 x    64 x   190        2070242918400     100.0%      0.0%      0.0%
 flops    13 x    13 x    64        2112121137152     100.0%      0.0%      0.0%
 flops   950 x    64 x   202        2137980928000     100.0%      0.0%      0.0%
 flops   955 x    64 x   202        2149233459200     100.0%      0.0%      0.0%
 flops   224 x    32 x   190        2150090342400     100.0%      0.0%      0.0%
 flops   963 x    64 x   202        2167237509120     100.0%      0.0%      0.0%
 flops   978 x    64 x   202        2200995102720     100.0%      0.0%      0.0%
 flops   224 x    32 x   202        2285885521920     100.0%      0.0%      0.0%
 flops   224 x    64 x    64        2580755251200     100.0%      0.0%      0.0%
 flops   950 x    32 x    64        2755156377600     100.0%      0.0%      0.0%
 flops   950 x    64 x    32        2755156377600     100.0%      0.0%      0.0%
 flops   955 x    64 x    32        2769657200640     100.0%      0.0%      0.0%
 flops   955 x    32 x    64        2769657200640     100.0%      0.0%      0.0%
 flops   963 x    32 x    64        2792858517504     100.0%      0.0%      0.0%
 flops   963 x    64 x    32        2792858517504     100.0%      0.0%      0.0%
 flops   978 x    32 x    64        2836360986624     100.0%      0.0%      0.0%
 flops   978 x    64 x    32        2836360986624     100.0%      0.0%      0.0%
 flops    25 x    13 x    32        2906694876800     100.0%      0.0%      0.0%
 flops    13 x    25 x    32        2913221168000     100.0%      0.0%      0.0%
 flops   224 x    64 x   190        3127404134400     100.0%      0.0%      0.0%
 flops   224 x    64 x   202        3324924395520     100.0%      0.0%      0.0%
 flops   950 x    64 x    64        4007500185600     100.0%      0.0%      0.0%
 flops   955 x    64 x    64        4028592291840     100.0%      0.0%      0.0%
 flops   963 x    64 x    64        4062339661824     100.0%      0.0%      0.0%
 flops   978 x    64 x    64        4125615980544     100.0%      0.0%      0.0%
 flops    25 x    13 x    64        4227919820800     100.0%      0.0%      0.0%
 flops    13 x    25 x    64        4237412608000     100.0%      0.0%      0.0%
 flops    25 x    25 x    32        5657212000000     100.0%      0.0%      0.0%
 flops    25 x    25 x    64        8228672000000     100.0%      0.0%      0.0%
 flops    13 x    32 x    13       15123885084672     100.0%      0.0%      0.0%
 flops    25 x    32 x    13       30633175372800     100.0%      0.0%      0.0%
 flops    13 x    32 x    25       30633175372800     100.0%      0.0%      0.0%
 flops    25 x    32 x    25       58968000000000     100.0%      0.0%      0.0%
 flops inhomo. stacks              68580541853600     100.0%      0.0%      0.0%
 flops total                       357.098619E+12     100.0%      0.0%      0.0%
 flops max/rank                      6.241756E+12     100.0%      0.0%      0.0%
 matmuls inhomo. stacks                   6960000     100.0%      0.0%      0.0%
 matmuls total                         7313652656     100.0%      0.0%      0.0%
 number of processed stacks             107969560     100.0%      0.0%      0.0%
 average stack size                                    67.7       0.0       0.0
 marketing flops                   384.334310E+12
 -------------------------------------------------------------------------------
 # multiplications                          32214
 max memory usage/rank               1.521545E+09
 # max total images/rank                        5
 # max 3D layers                                1
 # MPI messages exchanged               293791680
 MPI messages size (bytes):
  total size                        38.172864E+12
  min size                           0.000000E+00
  max size                           1.862112E+06
  average size                     129.931742E+03
 MPI breakdown and total messages size (bytes):
             size <=      128             2712440                        0
       128 < size <=     8192            35372623             289772527616
      8192 < size <=    32768            81510057            1632984519768
     32768 < size <=   131072           136617600            9670481446984
    131072 < size <=  4194304            37578960           26576422451904
   4194304 < size <= 16777216                   0                        0
  16777216 < size                               0                        0
 -------------------------------------------------------------------------------

 *** WARNING in dbcsr/mm/dbcsr_mm.F:268 :: Using a non-square number of ***
 *** MPI ranks might lead to poor performance.                          ***
 *** Used ranks: 80                                                     ***
 *** Suggested: 81 169                                                  ***

 -------------------------------------------------------------------------------
 
 MEMORY| Estimated peak process memory [MiB]                                1473

 -------------------------------------------------------------------------------
 ----                             MULTIGRID INFO                            ----
 -------------------------------------------------------------------------------
 count for grid        1:        1175495          cutoff [a.u.]          600.00
 count for grid        2:        9206772          cutoff [a.u.]          200.00
 count for grid        3:        8322539          cutoff [a.u.]           66.67
 count for grid        4:       12349172          cutoff [a.u.]           22.22
 count for grid        5:       11166286          cutoff [a.u.]            7.41
 total gridlevel count  :       42220264

 -------------------------------------------------------------------------------
 -                                                                             -
 -                         MESSAGE PASSING PERFORMANCE                         -
 -                                                                             -
 -------------------------------------------------------------------------------

 ROUTINE             CALLS      AVE VOLUME [Bytes]
 MP_Group             3352
 MP_Bcast            23779                  40837.
 MP_Allreduce       235945                    222.
 MP_Sync              1100
 MP_Alltoall        188869                5510703.
 MP_SendRecv         24648                   5432.
 MP_ISendRecv       886380                 133520.
 MP_Wait           7288326
 MP_comm_split        1095
 MP_ISend          8312240                 123758.
 MP_IRecv          8312240                 123316.
 MP_Recv              1463                 153264.
 MP_Memory         3570952
 -------------------------------------------------------------------------------


 -------------------------------------------------------------------------------
 -                                                                             -
 -                           R E F E R E N C E S                               -
 -                                                                             -
 -------------------------------------------------------------------------------
 
 CP2K version 7.0 (Development Version), the CP2K developers group (2018).
 CP2K is freely available from https://www.cp2k.org/ .

 Schuett, Ole; Messmer, Peter; Hutter, Juerg; VandeVondele, Joost. 
 Electronic Structure Calculations on Graphics Processing Units, John Wiley & Sons, Ltd, 173-190 (2016). 
 GPU-Accelerated Sparse Matrix-Matrix Multiplication for Linear Scaling Density Functional Theory.
 http://dx.doi.org/10.1002/9781118670712.ch8


 Borstnik, U; VandeVondele, J; Weber, V; Hutter, J. 
 PARALLEL COMPUTING, 40 (5-6), 47-58 (2014). 
 Sparse matrix multiplication: The distributed block-compressed sparse
 row library.
 http://dx.doi.org/10.1016/j.parco.2014.03.012


 Hutter, J; Iannuzzi, M; Schiffmann, F; VandeVondele, J. 
 WILEY INTERDISCIPLINARY REVIEWS-COMPUTATIONAL MOLECULAR SCIENCE, 4 (1), 15-25 (2014). 
 CP2K: atomistic simulations of condensed matter systems.
 http://dx.doi.org/10.1002/wcms.1159


 Grimme, S; Ehrlich, S; Goerigk, L. 
 JOURNAL OF COMPUTATIONAL CHEMISTRY, 32, 1456 (2011). 
 Effect of the damping function in dispersion corrected density functional theory.
 http://dx.doi.org/10.1002/jcc.21759


 Grimme, S; Antony, J; Ehrlich, S; Krieg, H. 
 JOURNAL OF CHEMICAL PHYSICS, 132 (15), 154104 (2010). 
 A consistent and accurate ab initio parametrization of density
 functional dispersion correction (DFT-D) for the 94 elements H-Pu.
 http://dx.doi.org/10.1063/1.3382344


 VandeVondele, J; Hutter, J. 
 JOURNAL OF CHEMICAL PHYSICS, 127 (11), 114105 (2007). 
 Gaussian basis sets for accurate calculations on molecular systems in
 gas and condensed phases.
 http://dx.doi.org/10.1063/1.2770708


 Krack, M. 
 THEORETICAL CHEMISTRY ACCOUNTS, 114 (1-3), 145-152 (2005). 
 Pseudopotentials for H to Kr optimized for gradient-corrected
 exchange-correlation functionals.
 http://dx.doi.org/10.1007/s00214-005-0655-y


 VandeVondele, J; Krack, M; Mohamed, F; Parrinello, M; Chassaing, T;
 Hutter, J. COMPUTER PHYSICS COMMUNICATIONS, 167 (2), 103-128 (2005). 
 QUICKSTEP: Fast and accurate density functional calculations using a
 mixed Gaussian and plane waves approach.
 http://dx.doi.org/10.1016/j.cpc.2004.12.014


 Frigo, M; Johnson, SG. 
 PROCEEDINGS OF THE IEEE, 93 (2), 216-231 (2005). 
 The design and implementation of FFTW3.
 http://dx.doi.org/10.1109/JPROC.2004.840301


 Kolafa, J. 
 JOURNAL OF COMPUTATIONAL CHEMISTRY, 25 (3), 335-342 (2004). 
 Time-reversible always stable predictor-corrector method for molecular dynamics of polarizable molecules.
 http://dx.doi.org/10.1002/jcc.10385


 VandeVondele, J; Hutter, J. 
 JOURNAL OF CHEMICAL PHYSICS, 118 (10), 4365-4369 (2003). 
 An efficient orbital transformation method for electronic structure
 calculations.
 http://dx.doi.org/10.1063/1.1543154


 Hartwigsen, C; Goedecker, S; Hutter, J. 
 PHYSICAL REVIEW B, 58 (7), 3641-3662 (1998). 
 Relativistic separable dual-space Gaussian pseudopotentials from H to Rn.
 http://dx.doi.org/10.1103/PhysRevB.58.3641


 Lippert, G; Hutter, J; Parrinello, M. 
 MOLECULAR PHYSICS, 92 (3), 477-487 (1997). 
 A hybrid Gaussian and plane wave density functional scheme.
 http://dx.doi.org/10.1080/002689797170220


 Perdew, JP; Burke, K; Ernzerhof, M. 
 PHYSICAL REVIEW LETTERS, 77 (18), 3865-3868 (1996). 
 Generalized gradient approximation made simple.
 http://dx.doi.org/10.1103/PhysRevLett.77.3865


 Goedecker, S; Teter, M; Hutter, J. 
 PHYSICAL REVIEW B, 54 (3), 1703-1710 (1996). 
 Separable dual-space Gaussian pseudopotentials.
 http://dx.doi.org/10.1103/PhysRevB.54.1703


 -------------------------------------------------------------------------------
 -                                                                             -
 -                                T I M I N G                                  -
 -                                                                             -
 -------------------------------------------------------------------------------
 SUBROUTINE                       CALLS  ASD         SELF TIME        TOTAL TIME
                                MAXIMUM       AVERAGE  MAXIMUM  AVERAGE  MAXIMUM
 CP2K                                 1  1.0     0.06     0.07 17372.79 17372.80
 cp_geo_opt                           1  2.0     0.00     0.00 17371.82 17371.83
 geoopt_bfgs                          1  3.0     0.06     0.12 17371.81 17371.82
 cp_eval_at                          79  4.0     0.02     0.04 17340.77 17340.80
 qs_forces                           78  5.0     0.03     0.07 17244.65 17244.66
 qs_energies                         79  6.0     0.04     0.08 15774.22 15774.34
 scf_env_do_scf                      79  7.0     0.04     0.10 14782.05 14782.11
 scf_env_do_scf_inner_loop         1116  8.0     0.08     0.12 13132.22 13132.30
 rebuild_ks_matrix                 1194  9.8     0.01     0.02  7641.92  7644.18
 qs_ks_build_kohn_sham_matrix      1194 10.8     0.42     0.88  7641.91  7644.17
 qs_ks_update_qs_env               1199  9.0     0.01     0.02  6247.25  6249.17
 qs_rho_update_rho                 1195  9.1     0.01     0.02  6085.24  6088.46
 calculate_rho_elec                2390 10.1  3013.90  3126.35  6085.23  6088.44
 sum_up_and_integrate               675 11.6    10.06    11.23  4252.71  4254.54
 integrate_v_rspace                1350 12.6  2404.77  2495.34  4242.64  4245.48
 pw_transfer                      37990 13.3     4.04     4.63  3744.33  3763.88
 fft_wrap_pw1pw2                  35602 14.4     0.41     0.46  3725.45  3744.82
 fft_wrap_pw1pw2_600              20642 15.6   229.48   259.42  3468.23  3483.56
 fft3d_ps                         35602 16.4  1054.46  1175.12  3192.87  3232.98
 rs_pw_transfer                   19094 12.9     0.25     0.33  3109.97  3190.46
 density_rs2pw                     2390 11.1     0.17     0.19  2761.58  2853.14
 qs_vxc_create                     1194 11.8     0.04     0.07  2613.82  2614.44
 dbcsr_multiply_generic           32214 13.6     2.20     2.98  2342.24  2350.84
 mp_waitall_1                   6595414 16.6  2113.36  2238.16  2113.36  2238.16
 mp_alltoall_z22v                 35602 18.4  1842.56  2065.83  1842.56  2065.83
 xc_vxc_pw_create                   675 12.6   108.19   129.41  1958.72  1959.06
 qs_scf_new_mos                    1116  9.0     0.01     0.03  1949.55  1951.50
 qs_scf_loop_do_ot                 1116 10.0     0.05     0.10  1949.54  1951.49
 multiply_cannon                  32214 14.6    10.22    10.84  1837.47  1878.06
 ot_scf_mini                       1116 11.0     0.18     0.36  1779.06  1780.41
 init_scf_loop                       83  8.0     0.02     0.04  1647.13  1647.17
 mp_waitany                      692912 14.9  1373.62  1530.53  1373.62  1530.53
 potential_pw2rs                   1350 13.6     0.99     1.16  1451.13  1454.06
 xc_rho_set_and_dset_create        1194 13.8    19.34    22.53  1421.82  1448.18
 qs_ks_update_qs_env_forces          78  6.0     0.00     0.00  1404.04  1404.38
 rs_pw_transfer_RS2PW_600          2548 13.0   500.77   544.67  1280.97  1363.45
 multiply_cannon_metrocomm3      644280 15.6     1.68     1.83  1094.78  1289.08
 x_to_yz                          15473 18.0   166.58   191.33  1207.36  1285.21
 yz_to_x                          12649 16.8   104.42   109.85   904.59  1021.45
 ot_mini                           1116 12.0     0.01     0.02   947.83   949.52
 rs_pw_transfer_PW2RS_600          1586 15.1   355.94   390.64   896.86   920.36
 prepare_preconditioner              83  9.0     0.00     0.00   857.24   857.56
 make_preconditioner                166 10.0     0.01     0.04   786.75   786.85
 make_full_all                      166 11.0     0.07     0.17   717.30   717.57
 xc_exc_calc                        519 13.0     2.28     2.83   655.07   655.37
 init_scf_run                        79  7.0     0.00     0.01   612.81   612.83
 scf_env_initial_rho_setup           79  8.0     0.00     0.01   612.81   612.82
 wfi_extrapolate                     79  9.0     0.05     0.11   605.53   605.56
 qs_ot_get_derivative              1194 13.0     0.02     0.03   584.68   585.81
 multiply_cannon_metrocomm1      644280 15.6     2.02     2.19   414.52   577.22
 mp_alltoall_d11v                 39465 14.8   489.06   561.62   489.06   561.62
 rs_distribute_matrix              3896 12.0     4.76    10.39   455.58   524.90
 cp_fm_syevd                       1095 13.0     0.01     0.01   495.39   496.29
 cp_fm_redistribute_end            1095 14.0   138.33   482.51   141.06   484.50
 cp_fm_syevd_base                  1095 13.8   341.25   470.15   341.25   470.15
 apply_preconditioner_dbcsr        1360 14.0     0.00     0.00   399.59   402.18
 apply_all                         1360 15.0     0.15     0.22   399.59   402.17
 mp_sum_d                         34614 14.2   275.07   357.14   275.07   357.14
 ot_new_cg_direction                597 13.0     0.02     0.04   355.20   355.25
 -------------------------------------------------------------------------------

 The number of warnings for this run is : 2
 
 -------------------------------------------------------------------------------
  **** **** ******  **  PROGRAM ENDED AT                 2019-06-24 19:55:41.977
 ***** ** ***  *** **   PROGRAM RAN ON            blg9224.int.ets1.calculquebec.
 **    ****   ******    PROGRAM RAN BY                                       rzk
 ***** **    ** ** **   PROGRAM PROCESS ID                                 29875
  **** **  *******  **  PROGRAM STOPPED IN /scratch/rzk/rzk/GaN-carbene/443-adat
                                           oms-both-2x2/03-DissMethanol/02-O-GaS
                                           ur-H-NTop
