     206
 i =        1, E =     -8480.4764052488
  N         0.0260291438        2.0216497841        2.4926337423
 Ga         0.0188795867       -0.0161739024        2.8712871928
  N         0.0198222294        0.0516043276        4.9849302300
 Ga         0.0197042015        1.8689894977        5.7735517718
  N         0.0196586002        1.8924333709        7.7586856108
 Ga         0.0196242753        0.0459588677        8.3984783494
  N         0.0196163133        0.0481121659       10.3707003679
 Ga         0.0197598694        1.8869434744       11.0218992931
  N         0.0192964905        1.8681054641       13.0177150850
 Ga         0.0168420310        0.0437783811       13.8167494972
  N         0.0198951749        0.0426297692       16.0234885411
 Ga         0.0190286207        2.0642324209       16.4116332817
 Ga         0.0268785395        3.8672316884        1.3662442687
  N        -1.4811093282        4.6402641448        2.4931512401
 Ga        -1.7243161480        2.8157908678        3.2410583837
  N        -1.5794994910        2.8251275373        5.1995279552
 Ga        -1.6139385436        4.7045522018        5.7505508109
  N        -1.5982809735        4.6929498741        7.7470613644
 Ga        -1.5786220773        2.8387379961        8.3915908276
  N        -1.5765621275        2.8387966546       10.3834491015
 Ga        -1.6028880019        4.6978639083       11.0202533379
  N        -1.6203012618        4.7081335745       13.0160058748
 Ga        -1.5786521734        2.8393654891       13.5701381965
  N        -1.6009394829        2.8268594129       15.5383009160
 Ga        -1.4458160604        4.6066685144       16.4113513405
  N         0.0281239397        3.7598443602       17.5355143543
  N        -3.1972562632        7.6016400120        2.4764905150
 Ga        -3.1997858342        5.6202856699        2.8081614345
  N        -3.1974370834        5.6188989166        4.9718159256
 Ga        -3.1963974936        7.4455939171        5.7536709124
  N        -3.1965719052        7.4644554255        7.7489193179
 Ga        -3.1958543963        5.6183762484        8.3961924108
  N        -3.1961383221        5.6176764330       10.3702334417
 Ga        -3.1968108354        7.4582618725       11.0200772326
  N        -3.1970878809        7.4386848527       13.0147139473
 Ga        -3.2004061203        5.6180371015       13.8133014290
  N        -3.2022902839        5.6184661279       16.0214779101
 Ga        -3.1956965909        7.6578853392       16.4316116968
 Ga        -3.1837301404        9.3273342457        1.4319455074
  N        -4.6859494256       10.1985649425        2.4660819572
 Ga        -4.9027864196        8.3455495278        3.2420319375
  N        -4.8051518225        8.4039435617        5.2044487010
 Ga        -4.8288294136       10.2731362922        5.7543901686
  N        -4.8150177911       10.2666819307        7.7473120527
 Ga        -4.7947454752        8.4098580161        8.3881507011
  N        -4.7936749199        8.4102047229       10.3810642645
 Ga        -4.8191845420       10.2687939992       11.0208574152
  N        -4.8362127347       10.2785785483       13.0151859631
 Ga        -4.7948019170        8.4096761927       13.5725264623
  N        -4.8204994191        8.3957418586       15.5350461874
 Ga        -4.6437710786       10.1677791501       16.4302287625
  N        -3.1873384551        9.3340476510       17.5585131417
  N         3.2372276787        1.8916890906        2.5566158349
 Ga         3.2438465509        0.1552488184        3.2475248851
  N         3.2350992172        0.0473266364        5.2076803069
 Ga         3.2359832195        1.9025477719        5.8310755538
  N         3.2353071426        1.9041783385        7.8025383968
 Ga         3.2352853261        0.0355890770        8.3893602400
  N         3.2360367723        0.0354670820       10.3823488598
 Ga         3.2362589676        1.9047457907       10.9777510520
  N         3.2341457447        1.9048778214       12.9497579858
 Ga         3.2354541164        0.0356211193       13.5722433750
  N         3.2306816700        0.0673408751       15.5351952225
 Ga         3.2359961578        1.9054544458       15.8160702293
  N         1.5003154537        4.6237392047        2.5280021011
 Ga         1.7693956047        2.8107905057        3.2515491075
  N         1.6202867533        2.8235975978        5.2072420148
 Ga         1.6559885894        4.7066165762        5.7476353172
  N         1.6371533104        4.6929046662        7.7477926403
 Ga         1.6185890021        2.8381013932        8.3921092595
  N         1.6166464365        2.8389742974       10.3845205992
 Ga         1.6431431168        4.6982848456       11.0219079438
  N         1.6599083056        4.7087855531       13.0180194026
 Ga         1.6167229639        2.8396336699       13.5698027720
  N         1.6386810567        2.8248421448       15.5391228790
 Ga         1.4927697399        4.6121070787       16.4104004981
  N         0.0173442972        7.4787360045        2.5658412533
 Ga         0.0173821420        5.7418560639        3.2499937534
  N         0.0183106294        5.6203825177        5.2097411724
 Ga         0.0193539033        7.4762071308        5.8278619960
  N         0.0195910190        7.4751390367        7.8005157638
 Ga         0.0192461409        5.6069357738        8.3881803354
  N         0.0201781764        5.6050785252       10.3827706822
 Ga         0.0204229434        7.4753072073       10.9778690066
  N         0.0195679881        7.4741063836       12.9512695245
 Ga         0.0191786966        5.6056911632       13.5701059593
  N         0.0168141734        5.6336853649       15.5392518542
 Ga         0.0205522453        7.4782994637       15.8158338701
  N        -1.6939036808       10.1974164805        2.4764890183
 Ga        -1.4898823830        8.3453963253        3.2432133284
  N        -1.5885967967        8.4028101137        5.2045805901
 Ga        -1.5622505851       10.2732005722        5.7526934597
  N        -1.5787651182       10.2663552211        7.7479251621
 Ga        -1.5977403131        8.4090512436        8.3889794625
  N        -1.5989991676        8.4101766105       10.3827786446
 Ga        -1.5731598370       10.2693299498       11.0229035992
  N        -1.5560563761       10.2794306268       13.0176668298
 Ga        -1.5999555583        8.4102140961       13.5721873630
  N        -1.5741890573        8.3919760164       15.5366113795
 Ga        -1.7395077388       10.1753173126       16.4288320206
  N         6.4539908407        2.0261773449        2.4744027680
 Ga         6.4536790495        0.0462072149        2.8030945857
  N         6.4527214478        0.0462232762        4.9673453741
 Ga         6.4533682823        1.8740276904        5.7522983141
  N         6.4525448331        1.8925345809        7.7483096508
 Ga         6.4523648227        0.0468677824        8.3982536070
  N         6.4523722893        0.0478582864       10.3714117500
 Ga         6.4523776103        1.8873774340       11.0232135282
  N         6.4520280692        1.8682349779       13.0158044323
 Ga         6.4551969123        0.0486048618       13.8241398150
  N         6.4534734185        0.0508164115       16.0216618675
 Ga         6.4522664986        2.0951016815       16.4392833463
 Ga         6.4472630309        3.7635246788        1.4416037373
  N         4.9648593183        4.6222814019        2.4990902694
 Ga         4.7460068387        2.7710195488        3.2386985821
  N         4.8422286789        2.8307380540        5.2024487736
 Ga         4.8164622747        4.7065409880        5.7527472290
  N         4.8352911290        4.6941446523        7.7512257963
 Ga         4.8540504351        2.8373635887        8.3910683538
  N         4.8552181667        2.8387048698       10.3835320034
 Ga         4.8299095477        4.6980417002       11.0212263719
  N         4.8124862535        4.7082613642       13.0136477098
 Ga         4.8545284117        2.8397818064       13.5721203481
  N         4.8230486730        2.8244565951       15.5306916691
 Ga         5.0169083464        4.5901145658       16.4405120961
  N         6.4544896400        3.7541839909       17.5846459643
  N         3.2352770560        7.6320923550        2.5315037356
 Ga         3.2286031607        5.6283808910        2.7060345622
  N         3.2384178900        5.6183963107        4.9415576053
 Ga         3.2362446492        7.4430379707        5.7503101781
  N         3.2363702478        7.4650366108        7.7491941780
 Ga         3.2355243173        5.6185099571        8.3972888943
  N         3.2359563183        5.6178271487       10.3716145915
 Ga         3.2363644713        7.4585011980       11.0221009482
  N         3.2359327461        7.4393997963       13.0150039931
 Ga         3.2399980587        5.6216523576       13.8190158061
  N         3.2435394757        5.6196138049       16.0208227112
 Ga         3.2370159269        7.6726316376       16.4508494502
 Ga         3.2263546480        9.3176292849        1.4386221980
  N         1.7351974330       10.1985189503        2.4755928950
 Ga         1.5213208243        8.3504529767        3.2469527328
  N         1.6262860914        8.4035717677        5.2067850610
 Ga         1.6033200163       10.2737388187        5.7525833566
  N         1.6187540895       10.2667050455        7.7476431929
 Ga         1.6370216929        8.4095195421        8.3893006334
  N         1.6390824969        8.4100361681       10.3825593379
 Ga         1.6139283035       10.2688481705       11.0232760944
  N         1.5966867776       10.2787277496       13.0160286203
 Ga         1.6396575663        8.4107742446       13.5771244297
  N         1.6113912605        8.3933746288       15.5366387739
 Ga         1.7991513234       10.1620391900       16.4510825206
  N         3.2366675687        9.3299639326       17.5951488710
  N         9.6676121091        1.8943292962        2.5566396947
 Ga         9.6622401903        0.1548626505        3.2466869014
  N         9.6700273096        0.0487584081        5.2067838281
 Ga         9.6698614605        1.9032767230        5.8305402803
  N         9.6697410771        1.9044272299        7.8017893012
 Ga         9.6691100098        0.0355910640        8.3891452551
  N         9.6684654021        0.0353101450       10.3814844644
 Ga         9.6685558057        1.9040883446       10.9780779518
  N         9.6696805850        1.9047377681       12.9498006823
 Ga         9.6676746617        0.0349914979       13.5777876533
  N         9.6703109943        0.0667221174       15.5369289950
 Ga         9.6672525828        1.9023843729       15.8149661873
  N         7.9537697017        4.6262697033        2.4726839560
 Ga         8.1587085495        2.7764970026        3.2390711635
  N         8.0640913997        2.8311671327        5.2026643537
 Ga         8.0864471711        4.7043900859        5.7537428732
  N         8.0701779575        4.6944518954        7.7492713301
 Ga         8.0509828773        2.8380080591        8.3898689158
  N         8.0495786709        2.8383608883       10.3824830666
 Ga         8.0741406341        4.6975902847       11.0202146961
  N         8.0907879544        4.7076274024       13.0127849669
 Ga         8.0494105272        2.8392576068       13.5725197725
  N         8.0811330903        2.8243299800       15.5316610716
 Ga         7.8883556134        4.5899381995       16.4403541057
  N         6.4515506704        7.4772361234        2.5629944521
 Ga         6.4588457922        5.7343211504        3.2428438757
  N         6.4535722693        5.6196193601        5.2048003701
 Ga         6.4528001528        7.4753130680        5.8287893747
  N         6.4525412718        7.4755527544        7.8005106090
 Ga         6.4529947038        5.6076579541        8.3894156019
  N         6.4521407907        5.6055759781       10.3820024063
 Ga         6.4518275191        7.4751432595       10.9773984039
  N         6.4520969194        7.4758176566       12.9486362904
 Ga         6.4517429793        5.6063195637       13.5712889118
  N         6.4530788812        5.6387725532       15.5305566423
 Ga         6.4492533974        7.4749754500       15.8123508075
  N         4.7265884481       10.2007307783        2.4674412112
 Ga         4.9486975739        8.3534913869        3.2489343666
  N         4.8471239134        8.4047825051        5.2084473952
 Ga         4.8685645767       10.2735574875        5.7546099565
  N         4.8548299295       10.2667995653        7.7471068139
 Ga         4.8350740269        8.4100449196        8.3888034806
  N         4.8332798031        8.4099823945       10.3814312117
 Ga         4.8581533657       10.2683742407       11.0219873551
  N         4.8740006686       10.2779070493       13.0148045965
 Ga         4.8327087410        8.4098725265       13.5767921854
  N         4.8602693765        8.3958377256       15.5363823213
 Ga         4.6707878355       10.1600175256       16.4517368863
  O         3.2304145053        5.6509651902        0.3173672832
  H         0.0584827951        1.9608256201        1.4782165983
  C         4.0165451698        6.6104915244       -0.3718374478
  H         3.3809541490        7.2425635369       -1.0225699935
  H         4.5436528657        7.2886803232        0.3239991922
  H         4.7606122216        6.1346221665       -1.0312869488
     206
 i =        2, E =     -8480.4988482570
  N         0.0289618326        1.9988783973        2.4801240561
 Ga         0.0227492639       -0.0494201087        2.9339223885
  N         0.0195466348        0.0397051931        5.0012067351
 Ga         0.0190099180        1.8760445249        5.7657949992
  N         0.0187445570        1.8907847056        7.7546386974
 Ga         0.0198763571        0.0451437785        8.4033215145
  N         0.0196997488        0.0463700450       10.3751538330
 Ga         0.0195582825        1.8864092448       11.0217322007
  N         0.0192184193        1.8668895543       13.0187673761
 Ga         0.0171762533        0.0422778272       13.8157794721
  N         0.0165142817        0.0405892404       16.0236848212
 Ga         0.0185419255        2.0589695141       16.4098227177
 Ga         0.0350502399        3.9691168331        1.2909325941
  N        -1.4882446505        4.6522001416        2.5096639872
 Ga        -1.7208384919        2.8370650068        3.2210218200
  N        -1.5831580238        2.8232105098        5.1807403784
 Ga        -1.6134634768        4.7014209079        5.7496004750
  N        -1.5995068014        4.6929293269        7.7478253403
 Ga        -1.5799639784        2.8399582920        8.3931646825
  N        -1.5772355815        2.8392178217       10.3863044706
 Ga        -1.6029629530        4.6993647355       11.0200070006
  N        -1.6207505401        4.7083447458       13.0177305798
 Ga        -1.5779367648        2.8393424939       13.5700251544
  N        -1.5999445629        2.8285604369       15.5409364249
 Ga        -1.4495903072        4.6095212360       16.4100099801
  N         0.0282667286        3.7599152366       17.5288130528
  N        -3.1945842993        7.6016491953        2.4762020248
 Ga        -3.2008544060        5.6247471440        2.8103892420
  N        -3.1995407533        5.6180946138        4.9777913036
 Ga        -3.1970822827        7.4453657216        5.7542780661
  N        -3.1961069468        7.4648488454        7.7501393597
 Ga        -3.1963129512        5.6183993678        8.3956086246
  N        -3.1960714314        5.6185279632       10.3705407089
 Ga        -3.1965791294        7.4586221026       11.0194597055
  N        -3.1972068023        7.4395051839       13.0146958191
 Ga        -3.2016471576        5.6194608282       13.8130084928
  N        -3.2003323067        5.6190458740       16.0229050685
 Ga        -3.1985211498        7.6564092333       16.4282614297
 Ga        -3.1851785668        9.3271419103        1.4323978316
  N        -4.6904399021       10.1963751240        2.4766304955
 Ga        -4.8952895927        8.3393617268        3.2388691690
  N        -4.8066288758        8.4034816476        5.2018260429
 Ga        -4.8202942506       10.2681585561        5.7611051064
  N        -4.8145438450       10.2663624043        7.7519610733
 Ga        -4.7939383596        8.4082465096        8.3892859406
  N        -4.7934749198        8.4101644384       10.3822700657
 Ga        -4.8183502290       10.2676495829       11.0213009019
  N        -4.8363839962       10.2782599327       13.0153165546
 Ga        -4.7945616120        8.4099832577       13.5720862885
  N        -4.8204260043        8.3954962389       15.5345821611
 Ga        -4.6462263171       10.1663025789       16.4282032217
  N        -3.1851667137        9.3341165750       17.5569220483
  N         3.2329894839        1.8985429332        2.5656260648
 Ga         3.2414291852        0.1566114357        3.2445488461
  N         3.2362780936        0.0476565104        5.2053239853
 Ga         3.2355581503        1.9021132877        5.8336806685
  N         3.2362937825        1.9030042315        7.8056272933
 Ga         3.2373741363        0.0350617162        8.3901910338
  N         3.2360346715        0.0342709508       10.3835689311
 Ga         3.2368758269        1.9037131866       10.9778273946
  N         3.2343012084        1.9046045827       12.9521986841
 Ga         3.2349044957        0.0340682266       13.5723175879
  N         3.2298250708        0.0670684249       15.5371908820
 Ga         3.2370946792        1.9061400974       15.8163609328
  N         1.4870483534        4.6269844708        2.5624799719
 Ga         1.7671349324        2.8315898158        3.2418343732
  N         1.6242675156        2.8182859097        5.1974285250
 Ga         1.6615475792        4.7080620125        5.7365442933
  N         1.6374161651        4.6935710058        7.7446485160
 Ga         1.6194855417        2.8402800666        8.3917073072
  N         1.6169490119        2.8390287895       10.3866924234
 Ga         1.6429545759        4.6998856762       11.0209807146
  N         1.6600962351        4.7089858888       13.0192565404
 Ga         1.6157760765        2.8398200052       13.5699686641
  N         1.6376858567        2.8261252553       15.5424951201
 Ga         1.4971171086        4.6160458120       16.4087025096
  N         0.0175030718        7.4745088957        2.5728324889
 Ga         0.0142683075        5.7391547009        3.2721706244
  N         0.0151304770        5.6257017014        5.2285576354
 Ga         0.0174384579        7.4785941924        5.8351567986
  N         0.0188084884        7.4769072700        7.8070924479
 Ga         0.0197285342        5.6066669860        8.3849698706
  N         0.0196554635        5.6058760571       10.3820554811
 Ga         0.0204367899        7.4756912371       10.9771272657
  N         0.0188941711        7.4741535844       12.9518645925
 Ga         0.0192046838        5.6059687598       13.5700974337
  N         0.0162337255        5.6314815901       15.5414211251
 Ga         0.0200364547        7.4773215786       15.8161629490
  N        -1.6948926631       10.1972028128        2.4799832400
 Ga        -1.4907679564        8.3448162367        3.2445326894
  N        -1.5895945050        8.4034031697        5.2064468390
 Ga        -1.5618081239       10.2729427205        5.7533267493
  N        -1.5776632445       10.2658711979        7.7490314659
 Ga        -1.5981724966        8.4093077789        8.3898052509
  N        -1.5990959763        8.4102000029       10.3839106581
 Ga        -1.5727705967       10.2687817700       11.0222818718
  N        -1.5562796216       10.2792629462       13.0178855568
 Ga        -1.6004628233        8.4102292973       13.5723865551
  N        -1.5755218027        8.3911275940       15.5383360253
 Ga        -1.7362378795       10.1766682892       16.4267464488
  N         6.4540308088        2.0241159840        2.4722691223
 Ga         6.4502409939        0.0496971327        2.7992146236
  N         6.4531502986        0.0463123050        4.9670107715
 Ga         6.4542012572        1.8752433879        5.7502584824
  N         6.4528517289        1.8917070771        7.7471686954
 Ga         6.4520970310        0.0476143439        8.3985597479
  N         6.4524095670        0.0469258176       10.3718403734
 Ga         6.4525462855        1.8862916233       11.0222359330
  N         6.4520166544        1.8680574277       13.0159192559
 Ga         6.4548712893        0.0485412904       13.8243088033
  N         6.4571733720        0.0469790111       16.0220559499
 Ga         6.4521360495        2.0889374468       16.4394737769
 Ga         6.4456757916        3.7659186007        1.4448405721
  N         4.9802126406        4.6128835947        2.5132765723
 Ga         4.7513586966        2.7685792054        3.2415690659
  N         4.8415513808        2.8275816153        5.2055805114
 Ga         4.8095582921        4.7103145399        5.7425024544
  N         4.8360583260        4.6939873685        7.7476842658
 Ga         4.8553744895        2.8386506906        8.3899882333
  N         4.8555481119        2.8383770136       10.3842571303
 Ga         4.8296981572        4.6986334571       11.0197457413
  N         4.8129513980        4.7082599829       13.0133924247
 Ga         4.8554971476        2.8406304220       13.5734045197
  N         4.8248659842        2.8267187234       15.5343571363
 Ga         5.0138219302        4.5938965916       16.4405516607
  N         6.4549971368        3.7528132270       17.5748915987
  N         3.2261955858        7.6543403248        2.5638805301
 Ga         3.2261455185        5.6353872045        2.5614077041
  N         3.2389858555        5.6171576342        4.9151602680
 Ga         3.2363309841        7.4340675996        5.7399541573
  N         3.2358239184        7.4657489946        7.7461185800
 Ga         3.2360539554        5.6185819230        8.3946037210
  N         3.2359149736        5.6187108200       10.3715252990
 Ga         3.2359816780        7.4590749062       11.0208539301
  N         3.2360665820        7.4396803555       13.0144790480
 Ga         3.2413176664        5.6223817133       13.8183269367
  N         3.2425725875        5.6242075719       16.0218069970
 Ga         3.2374171765        7.6778664816       16.4506252564
 Ga         3.2307217522        9.3114301261        1.4664175450
  N         1.7308581749       10.2031382371        2.4765920041
 Ga         1.5157408011        8.3542178391        3.2595215159
  N         1.6225428638        8.4077144984        5.2179439557
 Ga         1.6023192905       10.2759375928        5.7568897469
  N         1.6179341567       10.2671524115        7.7512331739
 Ga         1.6378431698        8.4090861561        8.3890658584
  N         1.6387164114        8.4104268374       10.3833406708
 Ga         1.6136151163       10.2684276028       11.0227145332
  N         1.5962342291       10.2789268535       13.0159798084
 Ga         1.6398165443        8.4107192991       13.5754122994
  N         1.6093707646        8.3917830201       15.5344719484
 Ga         1.8028246469       10.1597052976       16.4513053926
  N         3.2356479793        9.3301074187       17.6017706299
  N         9.6713159983        1.9022279208        2.5613770104
 Ga         9.6642346522        0.1579953849        3.2424059806
  N         9.6685999798        0.0494303270        5.2029537209
 Ga         9.6715770179        1.9038593528        5.8297493660
  N         9.6693501904        1.9041866555        7.8016472438
 Ga         9.6670420411        0.0363361197        8.3906966839
  N         9.6683009975        0.0345647547       10.3829538453
 Ga         9.6678539045        1.9031667212       10.9779728177
  N         9.6694268003        1.9050848008       12.9512096446
 Ga         9.6678766202        0.0339129510       13.5759149479
  N         9.6708217631        0.0695532171       15.5348455667
 Ga         9.6660021187        1.9041196304       15.8154536743
  N         7.9557868576        4.6280181870        2.4760353150
 Ga         8.1525459950        2.7764244937        3.2366123264
  N         8.0664267323        2.8300811170        5.2012816028
 Ga         8.0859244592        4.7028568515        5.7553585366
  N         8.0701151141        4.6942441387        7.7510919448
 Ga         8.0500799321        2.8380942086        8.3891528990
  N         8.0494942923        2.8383513629       10.3829202171
 Ga         8.0745305185        4.6980995295       11.0191292192
  N         8.0904060624        4.7075337350       13.0129137737
 Ga         8.0485589107        2.8396560614       13.5740343966
  N         8.0788499456        2.8274433998       15.5355569880
 Ga         7.8910507013        4.5943025352       16.4405431445
  N         6.4486637181        7.4810120470        2.5689993834
 Ga         6.4592350917        5.7339483889        3.2469399811
  N         6.4564033941        5.6199867515        5.2085698738
 Ga         6.4541095394        7.4734513114        5.8319762658
  N         6.4532575031        7.4754712769        7.8037685766
 Ga         6.4522280744        5.6064260240        8.3890525698
  N         6.4525400690        5.6064713120       10.3830317741
 Ga         6.4520194708        7.4757753020       10.9773414679
  N         6.4525809606        7.4756839692       12.9494755880
 Ga         6.4515367399        5.6062754200       13.5723044240
  N         6.4527406998        5.6363940873       15.5322390560
 Ga         6.4507198537        7.4733494589       15.8137444327
  N         4.7375537946       10.2033344813        2.4793344482
 Ga         4.9416596233        8.3500907307        3.2588049065
  N         4.8517602702        8.4083019633        5.2160436535
 Ga         4.8604283460       10.2715339840        5.7650913328
  N         4.8541108928       10.2674717979        7.7544352284
 Ga         4.8337854140        8.4077840626        8.3887945243
  N         4.8336027320        8.4101581558       10.3824554408
 Ga         4.8571780471       10.2675728060       11.0221431909
  N         4.8745847782       10.2781220447       13.0145892176
 Ga         4.8326089606        8.4100809479       13.5749786891
  N         4.8630787972        8.3935876149       15.5336551590
 Ga         4.6666802610       10.1561463254       16.4519060935
  O         3.2606908596        5.6595247085        0.3485259729
  H         0.0499278299        1.8700181921        1.4288620747
  C         3.9993186909        6.5947396578       -0.3495631870
  H         3.3701112098        7.2126092180       -1.0273888365
  H         4.5746246081        7.2932160052        0.3085071250
  H         4.7479558940        6.1343828503       -1.0291704224
     206
 i =        3, E =     -8480.5162197325
  N         0.0279216636        1.9504621844        2.4579912488
 Ga         0.0192190133       -0.0865101654        2.9947339333
  N         0.0208451210        0.0233018950        5.0203334451
 Ga         0.0186750720        1.8850852404        5.7545680811
  N         0.0177593297        1.8907094786        7.7491685644
 Ga         0.0202253613        0.0462694255        8.4047346696
  N         0.0203496479        0.0464263500       10.3774100002
 Ga         0.0199523465        1.8868924172       11.0226799034
  N         0.0191630679        1.8668900525       13.0214161560
 Ga         0.0160474639        0.0410180751       13.8142638160
  N         0.0162612578        0.0400447627       16.0238643345
 Ga         0.0177941154        2.0565016482       16.4067731191
 Ga         0.0467363987        4.1071848964        1.1988352345
  N        -1.4951424655        4.6721375162        2.5215230400
 Ga        -1.6999555321        2.8467771756        3.1814458990
  N        -1.5827339963        2.8247784690        5.1530730281
 Ga        -1.6166833691        4.6965709441        5.7505785487
  N        -1.6016752788        4.6910827821        7.7511133269
 Ga        -1.5808785692        2.8394851174        8.3939691350
  N        -1.5773932948        2.8391745766       10.3885277982
 Ga        -1.6026260342        4.7002924267       11.0195650681
  N        -1.6201986416        4.7082698271       13.0191836814
 Ga        -1.5783184792        2.8393669238       13.5693847219
  N        -1.6002852017        2.8294308563       15.5420295244
 Ga        -1.4504846080        4.6107365255       16.4073507971
  N         0.0288407269        3.7590785963       17.5296779125
  N        -3.1950622550        7.5987183741        2.4766777234
 Ga        -3.1985975368        5.6245783588        2.8153238572
  N        -3.2033888402        5.6193562067        4.9847077970
 Ga        -3.1966562597        7.4424938392        5.7585630113
  N        -3.1960768787        7.4654657540        7.7540177245
 Ga        -3.1967558742        5.6177731186        8.3953701670
  N        -3.1960564743        5.6187972556       10.3718298470
 Ga        -3.1962009933        7.4582588858       11.0196830987
  N        -3.1971391662        7.4402529926       13.0158549456
 Ga        -3.2019005010        5.6197146080       13.8103094046
  N        -3.2006980287        5.6196955562       16.0241043696
 Ga        -3.1984852403        7.6584397022       16.4271505209
 Ga        -3.1910536651        9.3277118901        1.4474988898
  N        -4.6946323833       10.1905435698        2.4987638840
 Ga        -4.8929451783        8.3287666014        3.2409471800
  N        -4.8039054522        8.4005402490        5.2044113235
 Ga        -4.8112633552       10.2599725147        5.7736107827
  N        -4.8121490843       10.2645900618        7.7608892007
 Ga        -4.7937957937        8.4056669224        8.3925767790
  N        -4.7928716629        8.4099215111       10.3853663901
 Ga        -4.8177046340       10.2671112212       11.0219434062