     212
 i =       69, E =     -8504.7346626404
  N         0.0493220015        1.9946787849        2.4910830258
 Ga         0.0521634618        0.0280641505        2.8260813941
  N         0.0514177558       -0.0069854688        5.0111181428
 Ga         0.0522494824        1.8188822384        5.7952144984
  N         0.0508025674        1.8325502820        7.7961983652
 Ga         0.0505893235       -0.0129070216        8.4391559687
  N         0.0502770737       -0.0138277209       10.4144421462
 Ga         0.0503042888        1.8261731673       11.0658385986
  N         0.0509017199        1.8066459377       13.0601386065
 Ga         0.0502519067       -0.0134621658       13.8653642019
  N         0.0497986120       -0.0131389752       16.0653898061
 Ga         0.0507513809        2.0292804792       16.4792732132
 Ga         0.0194770180        3.6941900723        1.3620814498
  N        -1.4345335398        4.5663728841        2.5156611938
 Ga        -1.6289109749        2.7277025377        3.2781050868
  N        -1.5586538717        2.7733852538        5.2549449132
 Ga        -1.5878193950        4.6394317698        5.8049676702
  N        -1.5671328506        4.6361188265        7.7997005998
 Ga        -1.5475780476        2.7757121066        8.4339366458
  N        -1.5474744787        2.7780053569       10.4287412550
 Ga        -1.5734737435        4.6361813482       11.0681657356
  N        -1.5890794276        4.6470529355       13.0612098498
 Ga        -1.5462327521        2.7778218691       13.6173202917
  N        -1.5752695614        2.7624742000       15.5789390769
 Ga        -1.3954658909        4.5356072805       16.4797423117
  N         0.0444939323        3.6958286180       17.6122058752
  N        -3.1611403376        7.5370966471        2.5121740123
 Ga        -3.1389008739        5.5413650565        2.8406918524
  N        -3.1637170633        5.5587769713        5.0176493007
 Ga        -3.1713700203        7.3808633903        5.7984747255
  N        -3.1643539528        7.4044640954        7.7920567525
 Ga        -3.1658973032        5.5578531231        8.4449422120
  N        -3.1660282807        5.5583651293       10.4175566694
 Ga        -3.1677347319        7.3974194859       11.0686513408
  N        -3.1655448106        7.3776493494       13.0615054217
 Ga        -3.1649984864        5.5568312252       13.8654064407
  N        -3.1653732401        5.5574633545       16.0661657865
 Ga        -3.1651949515        7.5989283097       16.4781201237
 Ga        -3.1824223086        9.2818700907        1.4314396604
  N        -4.6695136620       10.1433909165        2.5088025597
 Ga        -4.8736052690        8.2953296241        3.2707467739
  N        -4.7719544411        8.3447067191        5.2393461226
 Ga        -4.8016620556       10.2183697288        5.7893595888
  N        -4.7830411472       10.2051974746        7.7889977991
 Ga        -4.7656264077        8.3500259730        8.4307766254
  N        -4.7635079731        8.3485677961       10.4255010466
 Ga        -4.7893198760       10.2076450050       11.0658004332
  N        -4.8049746007       10.2174884990       13.0599913709
 Ga        -4.7625562712        8.3490872321       13.6178936655
  N        -4.7905040261        8.3325121793       15.5801856460
 Ga        -4.6154516297       10.1089258860       16.4774733959
  N        -3.1731788025        9.2684346338       17.6093240139
  N         3.2571982879        1.8502579784        2.6138377312
 Ga         3.2606954079        0.1024155855        3.2723327903
  N         3.2690465627       -0.0144270636        5.2411818806
 Ga         3.2600008128        1.8449237187        5.8657904990
  N         3.2671952071        1.8427363069        7.8434755580
 Ga         3.2646514717       -0.0233511081        8.4323287442
  N         3.2663796165       -0.0265567596       10.4263757137
 Ga         3.2660446300        1.8430546714       11.0225477047
  N         3.2674633911        1.8434691518       12.9942325099
 Ga         3.2670491112       -0.0256678294       13.6175174020
  N         3.2691735967        0.0065559927       15.5788001346
 Ga         3.2675245004        1.8444057887       15.8599934056
  N         1.5415936541        4.5698824792        2.5153133242
 Ga         1.7295000195        2.7348537256        3.2638442066
  N         1.6602415118        2.7732130037        5.2473742332
 Ga         1.6894738663        4.6371646534        5.8030732345
  N         1.6685701534        4.6357220016        7.7983132726
 Ga         1.6491754446        2.7755979988        8.4332564602
  N         1.6478546737        2.7782249785       10.4278401613
 Ga         1.6741336646        4.6362801483       11.0674691527
  N         1.6907627246        4.6470415132       13.0603157565
 Ga         1.6481441448        2.7781593501       13.6176227669
  N         1.6773684572        2.7640275653       15.5783828302
 Ga         1.4915217998        4.5325503401       16.4804510739
  N         0.0466647564        7.3996276451        2.6851096434
 Ga         0.0568806789        5.5573600062        3.3300530055
  N         0.0509873239        5.5721737775        5.2674680702
 Ga         0.0524938294        7.4125690731        5.9010703931
  N         0.0509784783        7.4165020254        7.8595690966
 Ga         0.0508795528        5.5430499015        8.4418124187
  N         0.0503331243        5.5442769169       10.4318430160
 Ga         0.0498606988        7.4133895895       11.0262713536
  N         0.0506635581        7.4144888514       12.9960359034
 Ga         0.0511980530        5.5444501257       13.6184099420
  N         0.0522913530        5.5772779880       15.5787594601
 Ga         0.0515984480        7.4144720813       15.8600486913
  N        -1.6575551636       10.1339070594        2.5127546170
 Ga        -1.5303318824        8.3237245335        3.3146910470
  N        -1.5446913021        8.3370618103        5.2485403680
 Ga        -1.5328412540       10.2212970796        5.8012392604
  N        -1.5481084026       10.2031572816        7.7936232870
 Ga        -1.5705086565        8.3499896466        8.4425897487
  N        -1.5694622939        8.3490229863       10.4313050984
 Ga        -1.5435151810       10.2089488455       11.0677192803
  N        -1.5255814500       10.2176714729       13.0603276718
 Ga        -1.5682620922        8.3492277660       13.6185787464
  N        -1.5396361303        8.3348316455       15.5797345811
 Ga        -1.7226732806       10.1045088173       16.4786696200
  N         6.4833722656        1.9701336740        2.5304649558
 Ga         6.4846787474       -0.0070899925        2.8589572871
  N         6.4826953303       -0.0115125376        5.0199415854
 Ga         6.4822222849        1.8188479435        5.8008655696
  N         6.4825903624        1.8320800694        7.7963983664
 Ga         6.4829207394       -0.0133370787        8.4430873588
  N         6.4827373847       -0.0136742772       10.4160565352
 Ga         6.4822994846        1.8272171704       11.0661157530
  N         6.4829983726        1.8065677275       13.0607012392
 Ga         6.4828391192       -0.0141779615       13.8645374743
  N         6.4822441295       -0.0140864217       16.0663830937
 Ga         6.4837465398        2.0213218938       16.4732201518
 Ga         6.4860890856        3.7011295491        1.5146886085
  N         4.9820268387        4.5692011450        2.5259189899
 Ga         4.7659203859        2.7158326709        3.2909318974
  N         4.8732877878        2.7730365587        5.2525930756
 Ga         4.8506674865        4.6450614833        5.7987188511
  N         4.8650471252        4.6354913950        7.7948343415
 Ga         4.8829304803        2.7771226482        8.4335479814
  N         4.8850601265        2.7783982232       10.4277921090
 Ga         4.8600912537        4.6372888932       11.0661662482
  N         4.8433178205        4.6471742334       13.0607415704
 Ga         4.8862655279        2.7783246658       13.6166910084
  N         4.8608089965        2.7638877552       15.5814461274
 Ga         5.0278318441        4.5414479317       16.4731172948
  N         6.4758843760        3.6973161453       17.6069823808
  N         3.2562562575        7.5365215421        2.4725955359
  N         3.2674633515        5.5602110426        5.0204986904
 Ga         3.2709160130        7.3829960431        5.7983478114
  N         3.2643557841        7.4050269446        7.7916986006
 Ga         3.2670756800        5.5578802774        8.4438415408
  N         3.2667936702        5.5584381012       10.4168860434
 Ga         3.2681760166        7.3972699124       11.0687878273
  N         3.2672120614        7.3777195123       13.0615297096
 Ga         3.2659270159        5.5569803523       13.8650450500
  N         3.2651164938        5.5575932552       16.0664102441
 Ga         3.2673244132        7.5984694815       16.4787190157
 Ga         3.2999287784        9.3212676720        1.4219451016
  N         1.7618367708       10.1387907343        2.5128277462
 Ga         1.6375895053        8.3222597316        3.2973067719
  N         1.6462001234        8.3353120652        5.2365445480
 Ga         1.6323386952       10.2175092369        5.7995398944
  N         1.6483363552       10.2016259885        7.7925697872
 Ga         1.6711625833        8.3498747997        8.4444427698
  N         1.6697451520        8.3489027470       10.4326355610
 Ga         1.6441941276       10.2089949898       11.0684417478
  N         1.6273420446       10.2176487236       13.0611848981
 Ga         1.6702368312        8.3490046373       13.6186763168
  N         1.6433350193        8.3342544803       15.5811514833
 Ga         1.8187484739       10.1081906041       16.4786530576
  N         3.2613138710        9.2678116333       17.6156037343
  N         9.7085463056        1.8495036247        2.6243789798
 Ga         9.7040359510        0.1038318650        3.2852394030
  N         9.6962730435       -0.0145800660        5.2495120370
 Ga         9.7041112993        1.8453505832        5.8708841158
  N         9.6979518505        1.8429914837        7.8468233572
 Ga         9.7005652262       -0.0244474519        8.4310606308
  N         9.6983925621       -0.0269617100       10.4257503565
 Ga         9.6981777890        1.8426474743       11.0220561304
  N         9.6982068825        1.8431715038       12.9942900491
 Ga         9.6997918367       -0.0258421842       13.6175859924
  N         9.7003968593        0.0051609035       15.5788402072
 Ga         9.6992592344        1.8437253996       15.8586095819
  N         7.9864984974        4.5698845574        2.5273909477
 Ga         8.1993333463        2.7168506537        3.2946454420
  N         8.0916753107        2.7733688857        5.2556448070
 Ga         8.1168400597        4.6461635616        5.7982488459
  N         8.1008498466        4.6359492477        7.7950324910
 Ga         8.0817514142        2.7777171925        8.4341616592
  N         8.0793487630        2.7786829000       10.4280621265
 Ga         8.1048694565        4.6374758853       11.0662043775
  N         8.1226469623        4.6471245923       13.0602498291
 Ga         8.0801260607        2.7784725476       13.6164046298
  N         8.1066343145        2.7653317094       15.5798295035
 Ga         7.9330009991        4.5377520868       16.4733104385
  N         6.4801156437        7.4175866336        2.6043619293
 Ga         6.4834706725        5.6788353210        3.2883582587
  N         6.4833485044        5.5610955141        5.2496680738
 Ga         6.4809527548        7.4198046467        5.8630653395
  N         6.4822272438        7.4157346968        7.8392736353
 Ga         6.4827999487        5.5483020853        8.4323734770
  N         6.4824571629        5.5450743714       10.4266169029
 Ga         6.4819557605        7.4139861825       11.0219361851
  N         6.4826951361        7.4139424318       12.9941316098
 Ga         6.4833470630        5.5446508059       13.6166279910
  N         6.4848911050        5.5745084684       15.5799855671
 Ga         6.4828238215        7.4142898333       15.8595599540
  N         4.7754235916       10.1484607489        2.5215112135
 Ga         4.9599160385        8.2869975082        3.2630705981
  N         4.8707062988        8.3435682054        5.2351936829
 Ga         4.9043559663       10.2162972307        5.7881977272
  N         4.8848552729       10.2047117709        7.7885303512
 Ga         4.8659922085        8.3500585400        8.4308141254
  N         4.8633940031        8.3486737961       10.4251451940
 Ga         4.8895696384       10.2077003499       11.0652056311
  N         4.9063365988       10.2173378424       13.0590651210
 Ga         4.8643294768        8.3494346252       13.6180106640
  N         4.8916741473        8.3350922515       15.5794499434
 Ga         4.7118187080       10.1059061442       16.4785066648
  O         0.0350347833        4.0333740624       -0.4464553218
  H         0.0513382905        5.8211746798       -0.3632956066
  C         1.1132708199        3.4513856990       -1.2044231007
  H         2.1010165666        3.7013373978       -0.7835680539
  H         1.0229591098        2.3553501954       -1.2513402504
  H         1.0545454040        3.8489132518       -2.2276872950
 Ga         3.2423540907        5.5389270511        2.8568774463
  O         0.1969682678        6.7952680956       -0.2235876962
  H         0.0261125509        7.3270855739        1.6472380344
  C         1.5868486599        7.0429944425       -0.4827570539
  H         1.6866981620        8.1005026759       -0.7780267867
  H         2.2121986299        6.8736890612        0.4148621720
  H         1.9673129400        6.4277253578       -1.3105176505
