     212
 i =       22, E =     -8504.7332032383
  N         0.0723801856        1.9817312011        2.4832095088
 Ga         0.0762121348        0.0167889888        2.8280481971
  N         0.0753902320       -0.0235363872        5.0032670380
 Ga         0.0765999949        1.8046937087        5.7957988775
  N         0.0759109604        1.8177930350        7.7919852590
 Ga         0.0760626524       -0.0261260955        8.4434593549
  N         0.0763330900       -0.0275916371       10.4126883480
 Ga         0.0766997606        1.8115077294       11.0717533632
  N         0.0767615534        1.7920419294       13.0609617699
 Ga         0.0770051151       -0.0291485113       13.8757740859
  N         0.0766234914       -0.0278683267       16.0635327897
 Ga         0.0765300077        2.0142618578       16.4746505154
 Ga         0.0437321917        3.6882829413        1.3609126752
  N        -1.4127192510        4.5503725544        2.5149377279
 Ga        -1.6068268917        2.7117054345        3.2757572668
  N        -1.5350081953        2.7566838089        5.2499460335
 Ga        -1.5641218613        4.6219482980        5.8084984697
  N        -1.5425517587        4.6209828442        7.7978778618
 Ga        -1.5222155974        2.7609760277        8.4385579422
  N        -1.5204533111        2.7643820253       10.4270707723
 Ga        -1.5479482353        4.6227789003       11.0744578057
  N        -1.5643332596        4.6339827002       13.0627005728
 Ga        -1.5215514095        2.7635458792       13.6200717038
  N        -1.5518291937        2.7468015722       15.5782291242
 Ga        -1.3720375978        4.5231781476       16.4750147314
  N         0.0763471545        3.6864799006       17.5920438315
  N        -3.1387084086        7.5217151398        2.5156439361
 Ga        -3.1171370607        5.5209606792        2.8478951628
  N        -3.1398462179        5.5435247410        5.0149123870
 Ga        -3.1490098354        7.3636966794        5.8057152488
  N        -3.1399822070        7.3894668439        7.7922554883
 Ga        -3.1409284501        5.5424406654        8.4493448425
  N        -3.1399599588        5.5438780353       10.4161227252
 Ga        -3.1414194061        7.3825968904       11.0736709111
  N        -3.1398072033        7.3635425379       13.0595121684
 Ga        -3.1419163914        5.5447560325       13.8771416380
  N        -3.1407986753        5.5444652886       16.0641696666
 Ga        -3.1405132871        7.5953492577       16.4879368479
 Ga        -3.1561076185        9.2606400180        1.4601012040
  N        -4.6450325829       10.1259273366        2.5076220086
 Ga        -4.8542288064        8.2754420463        3.2780883633
  N        -4.7484434267        8.3289339232        5.2398854297
 Ga        -4.7772728736       10.2029986652        5.7931081184
  N        -4.7584491206       10.1909273631        7.7863706046
 Ga        -4.7405090574        8.3359616078        8.4366521343
  N        -4.7369315765        8.3352731101       10.4239071499
 Ga        -4.7630531985       10.1945496666       11.0707137029
  N        -4.7793666267       10.2042575007       13.0576267992
 Ga        -4.7363623736        8.3358371419       13.6214893310
  N        -4.7631045345        8.3203231201       15.5764299818
 Ga        -4.5798655169       10.0882895430       16.4874368812
  N        -3.1356216677        9.2605327757       17.6350308978
  N         3.2805465274        1.8355862231        2.6066042435
 Ga         3.2831541342        0.0931097780        3.2764345214
  N         3.2929248935       -0.0295982199        5.2391847984
 Ga         3.2835813344        1.8314002254        5.8691169572
  N         3.2917664131        1.8284812927        7.8411494082
 Ga         3.2898218533       -0.0371106213        8.4367611172
  N         3.2924948675       -0.0404303472       10.4237719057
 Ga         3.2930805172        1.8296842841       11.0252825901
  N         3.2930916618        1.8296856480       12.9904540894
 Ga         3.2923235020       -0.0392776400       13.6218119361
  N         3.2908944253       -0.0091596929       15.5775999303
 Ga         3.2965657750        1.8283568283       15.8601925294
  N         1.5642540230        4.5570800360        2.5140506949
 Ga         1.7533891943        2.7205443148        3.2616090068
  N         1.6842196639        2.7577646116        5.2421166074
 Ga         1.7137063752        4.6208785309        5.8066287298
  N         1.6939378386        4.6209566432        7.7965397944
 Ga         1.6739377562        2.7613808804        8.4380435193
  N         1.6734896172        2.7644267566       10.4266378308
 Ga         1.7008679652        4.6226831946       11.0742459980
  N         1.7178616109        4.6340430354       13.0625216590
 Ga         1.6748050593        2.7638163666       13.6203286664
  N         1.7051856592        2.7467462539       15.5784661878
 Ga         1.5248227526        4.5230341929       16.4750180005
  N         0.0644333296        7.3810733389        2.6934537806
 Ga         0.0780296303        5.5380184445        3.3364121822
  N         0.0745659083        5.5558185674        5.2694317576
 Ga         0.0753809083        7.3949350336        5.9089727384
  N         0.0757708703        7.4012641818        7.8612671056
 Ga         0.0759777707        5.5270175152        8.4476301346
  N         0.0763989629        5.5300627556       10.4317708040
 Ga         0.0762534431        7.4004271638       11.0297536539
  N         0.0765048852        7.4007709420       12.9933721394
 Ga         0.0768094886        5.5315885663       13.6214395063
  N         0.0766168605        5.5677003254       15.5793179737
 Ga         0.0765189498        7.4051256564       15.8608241166
  N        -1.6355317622       10.1145588687        2.5139265892
 Ga        -1.5079462195        8.3044966797        3.3292212185
  N        -1.5225005828        8.3215209832        5.2554135159
 Ga        -1.5094583363       10.2066649686        5.8063546095
  N        -1.5226398212       10.1894046962        7.7919640735
 Ga        -1.5456814375        8.3359301033        8.4480543413
  N        -1.5438628172        8.3355010820       10.4299212481
 Ga        -1.5172746003       10.1955020742       11.0735544593
  N        -1.4992940879       10.2045795572       13.0599271610
 Ga        -1.5430779163        8.3354133068       13.6227025219
  N        -1.5174927895        8.3191208596       15.5783025226
 Ga        -1.6966529945       10.0909487793       16.4880318957
  N         6.5060881102        1.9534043810        2.5283110480
 Ga         6.5064852145       -0.0194847218        2.8653081760
  N         6.5068253485       -0.0291835577        5.0139884076
 Ga         6.5064668904        1.8041767709        5.8013627484
  N         6.5076158920        1.8167799946        7.7917733968
 Ga         6.5081253718       -0.0269432380        8.4475799464
  N         6.5087010590       -0.0278713917       10.4142707628
 Ga         6.5086092828        1.8127966911       11.0709505203
  N         6.5088676264        1.7926991615       13.0583827666
 Ga         6.5088291285       -0.0262507114       13.8772813986
  N         6.5087600918       -0.0264153600       16.0632413572
 Ga         6.5086891532        2.0207307826       16.4871043473
 Ga         6.5088947933        3.6853556963        1.5098617351
  N         5.0043842463        4.5536416190        2.5233905171
 Ga         4.7888364027        2.7006538536        3.2898158458
  N         4.8970437670        2.7569822136        5.2487039932
 Ga         4.8752841724        4.6287854038        5.8011295166
  N         4.8900725855        4.6209549915        7.7920843814
 Ga         4.9082911897        2.7625164765        8.4366510839
  N         4.9119365928        2.7646575052       10.4240110257
 Ga         4.8861289072        4.6235240601       11.0707586143
  N         4.8689171327        4.6336683643       13.0577271623
 Ga         4.9118245464        2.7649042831       13.6207474816
  N         4.8850699037        2.7516585175       15.5767647703
 Ga         5.0693773552        4.5189284788       16.4867715754
  N         6.5085641772        3.6818620562       17.6345157187
  N         3.2810491892        7.5233412328        2.4939624936
  N         3.2914949517        5.5449475783        5.0180098764
 Ga         3.2947187819        7.3657973507        5.8044112492
  N         3.2895074050        7.3903348222        7.7911278630
 Ga         3.2923155105        5.5426867138        8.4481369271
  N         3.2925372376        5.5439892057       10.4152636198
 Ga         3.2945110437        7.3822757497       11.0740855302
  N         3.2932083063        7.3632890317       13.0597551580
 Ga         3.2955175330        5.5444335374       13.8773130190
  N         3.2938661586        5.5443637093       16.0639636033
 Ga         3.2936487163        7.5948732869       16.4873663614
 Ga         3.3199174806        9.2844063640        1.4623506521
  N         1.7848814598       10.1177834582        2.5105782280
 Ga         1.6499835024        8.3023671755        3.3085233149
  N         1.6688736387        8.3191273190        5.2407592701
 Ga         1.6570565115       10.2019818559        5.8043850577
  N         1.6732316000       10.1873621794        7.7906945232
 Ga         1.6962212143        8.3353807780        8.4500219395
  N         1.6966108265        8.3355162439       10.4310798689
 Ga         1.6699656799       10.1957223544       11.0743069163
  N         1.6526921656       10.2046060947       13.0604573701
 Ga         1.6962549761        8.3351319895       13.6224735127
  N         1.6706903105        8.3189890086       15.5781647523
 Ga         1.8493685737       10.0910351617       16.4875650130
  N         3.2885361718        9.2603167129       17.6353334282
  N         9.7310198091        1.8336581902        2.6158496746
 Ga         9.7272558932        0.0933597414        3.2869627667
  N         9.7203526863       -0.0312482179        5.2461845777
 Ga         9.7285660375        1.8303498191        5.8742125111
  N         9.7232117429        1.8279672804        7.8445701631
 Ga         9.7257532375       -0.0386211262        8.4365881251
  N         9.7244664140       -0.0409905972       10.4237116435
 Ga         9.7244209527        1.8294337016       11.0250207669
  N         9.7245260179        1.8295436907       12.9903288785
 Ga         9.7258695198       -0.0392810081       13.6218672062
  N         9.7269871249       -0.0091174878       15.5777726993
 Ga         9.7213270341        1.8285456203       15.8604821737
  N         8.0089697111        4.5532651624        2.5261063102
 Ga         8.2224625150        2.7003729816        3.2931151673
  N         8.1163549802        2.7567002045        5.2516268357
 Ga         8.1405438699        4.6292681746        5.8003326608
  N         8.1260672015        4.6211633387        7.7919274411
 Ga         8.1066200789        2.7630963650        8.4374309470
  N         8.1050987061        2.7646893296       10.4245526260
 Ga         8.1310273431        4.6234120850       11.0712542845
  N         8.1489493729        4.6336936480       13.0580971434
 Ga         8.1059194099        2.7649704007       13.6209141121
  N         8.1326497219        2.7516427687       15.5769975696
 Ga         7.9481154974        4.5189866816       16.4870063118
  N         6.5038105109        7.3997109731        2.5998411099
 Ga         6.5063961549        5.6604403620        3.2890924360
  N         6.5074818417        5.5457038523        5.2476789718
 Ga         6.5060985152        7.4021953722        5.8713430130
  N         6.5073382801        7.4009759025        7.8400778368
 Ga         6.5082172896        5.5326128762        8.4371773337
  N         6.5086270361        5.5315296534       10.4245682125
 Ga         6.5087693498        7.4006609268       11.0260016788
  N         6.5087914654        7.4006233229       12.9922713200
 Ga         6.5089659322        5.5302165580       13.6208222171
  N         6.5088236463        5.5620329576       15.5760170089
 Ga         6.5090700552        7.4008415051       15.8536689326
  N         4.7972336455       10.1292156354        2.5184524724
 Ga         4.9943533789        8.2699794387        3.2780304930
  N         4.8954398804        8.3281908673        5.2398037701
 Ga         4.9286259303       10.2020929442        5.7935423457
  N         4.9104533782       10.1907067558        7.7866971695
 Ga         4.8910336711        8.3358669644        8.4366694391
  N         4.8895115913        8.3349272078       10.4238459198
 Ga         4.9159149365       10.1942590115       11.0706771612
  N         4.9330001032       10.2043291467       13.0576378990
 Ga         4.8896379819        8.3360379891       13.6215491069
  N         4.9165355544        8.3202883038       15.5765498021
 Ga         4.7334305026       10.0884055809       16.4872654112
  O         0.0799550722        4.0905524573       -0.4375192288
  H        -0.0748980040        5.8698459496       -0.3398613398
  C         1.2511188237        3.6614905684       -1.1594074738
  H         2.1833039709        3.9995581498       -0.6776399812
  H         1.2854288741        2.5653287650       -1.2512489455
  H         1.1989693316        4.0932284735       -2.1689164915
 Ga         3.2646046638        5.5200389415        2.8599923746
  O        -0.0672327048        6.8578411799       -0.2097801594
  H         0.0167329151        7.3111275383        1.6567089040
  C         1.2054788714        7.3355707283       -0.6627301644
  H         1.1417035683        8.4317678292       -0.7190218863
  H         2.0183256996        7.0637510136        0.0371866609
  H         1.4580421777        6.9557116411       -1.6632873931
