     212
 i =       58, E =     -8504.7805070044
  N         0.0907270700        2.1100784084        2.5766875323
 Ga         0.1039380494        0.1512532421        3.0136379466
  N         0.0881686008        0.1323947357        5.1228465668
 Ga         0.0643362439        1.9509436825        5.8736755544
  N         0.0732140656        1.9715808863        7.8627829076
 Ga         0.0675243882        0.1160443849        8.4874973095
  N         0.0713887833        0.1199011591       10.4650495194
 Ga         0.0693777106        1.9587001728       11.1173990866
  N         0.0718014414        1.9407040479       13.1118517088
 Ga         0.0708302053        0.1204046829       13.9114692674
  N         0.0712392798        0.1220597561       16.1165080940
 Ga         0.0717235626        2.1664799051       16.5274835195
 Ga         0.1086621559        3.8267675677        1.4388484709
  N        -1.3964960273        4.6920113322        2.5331995859
 Ga        -1.6040729764        2.8405649833        3.3150646302
  N        -1.5342760175        2.9066749516        5.2950580234
 Ga        -1.5696871083        4.7727625070        5.8511864238
  N        -1.5442228990        4.7693652607        7.8468943799
 Ga        -1.5320999493        2.9117465832        8.4861426648
  N        -1.5257497659        2.9136559675       10.4805569412
 Ga        -1.5515296957        4.7726167663       11.1152971768
  N        -1.5671874412        4.7816490813       13.1107126140
 Ga        -1.5254468956        2.9119764592       13.6662861923
  N        -1.5510176547        2.8962095785       15.6291192621
 Ga        -1.3787207912        4.6719292392       16.5268551615
  N         0.0723770828        3.8432175173       17.6605948751
  N        -3.1364196835        7.6594453929        2.5615164271
 Ga        -3.1202951912        5.6930485190        2.8756639252
  N        -3.1392068710        5.6842114032        5.0585476033
 Ga        -3.1493641282        7.5141810677        5.8302108579
  N        -3.1426069487        7.5362186393        7.8331245443
 Ga        -3.1448541189        5.6925841399        8.4860823790
  N        -3.1440264622        5.6919865143       10.4628617207
 Ga        -3.1451488527        7.5308337371       11.1133157379
  N        -3.1439200573        7.5119007850       13.1090483597
 Ga        -3.1440253412        5.6917699814       13.9112292437
  N        -3.1443186233        5.6925227715       16.1165471464
 Ga        -3.1441084912        7.7335111972       16.5253694807
 Ga        -3.1807480035        9.3948693096        1.3080049763
  N        -4.6456313053       10.2942156056        2.5870587124
 Ga        -4.8360511296        8.4451778235        3.2877112370
  N        -4.7502657059        8.4796044990        5.2786567998
 Ga        -4.7770068252       10.3393676578        5.8627999432
  N        -4.7564709366       10.3381300923        7.8552086408
 Ga        -4.7464704241        8.4763807352        8.4718815751
  N        -4.7413687450        8.4807643801       10.4712176279
 Ga        -4.7700546034       10.3382782979       11.1159064690
  N        -4.7842152690       10.3504232837       13.1116547888
 Ga        -4.7411417618        8.4816484104       13.6665301005
  N        -4.7662216465        8.4661982226       15.6300552218
 Ga        -4.5976392860       10.2437835398       16.5244689400
  N        -3.1438390254        9.4130699890       17.6573053885
  N         3.2769029292        1.9677889967        2.6640356938
 Ga         3.2893652737        0.1141862257        3.3757098144
  N         3.2893481269        0.1364242111        5.3152876185
 Ga         3.2861362044        1.9688622859        5.9774596059
  N         3.2898890138        1.9765280271        7.9315088347
 Ga         3.2873312526        0.1025614881        8.5066269318
  N         3.2885094005        0.1077193858       10.4936668286
 Ga         3.2891869858        1.9784805204       11.0826811172
  N         3.2887725675        1.9777583061       13.0530345744
 Ga         3.2885505164        0.1060358153       13.6678311207
  N         3.2883145448        0.1386821806       15.6327935161
 Ga         3.2889270559        1.9780161150       15.9080430945
  N         1.5656363767        4.6949405043        2.6263934959
 Ga         1.6908660030        2.8822905421        3.3899490201
  N         1.7002045194        2.8948387083        5.3261967234
 Ga         1.7032176202        4.7764675876        5.8761776518
  N         1.6875984254        4.7669417432        7.8589308314
 Ga         1.6670240057        2.9129498520        8.5068367182
  N         1.6696127031        2.9138800705       10.4930586277
 Ga         1.6958916699        4.7759822701       11.1181998332
  N         1.7127877015        4.7828335077       13.1126378791
 Ga         1.6680341027        2.9130737331       13.6682501990
  N         1.6951661829        2.8955991850       15.6308179179
 Ga         1.5236178141        4.6726743220       16.5271629145
  N         0.0747152661        7.5516604173        2.7076048235
 Ga         0.0714937779        5.7153698523        3.3810999432
  N         0.0706567225        5.7064343108        5.3148635555
 Ga         0.0928666194        7.5650362002        5.9157366118
  N         0.0776544389        7.5531958666        7.8884731857
 Ga         0.0691046561        5.6857841390        8.4854998202
  N         0.0719481283        5.6811721194       10.4789451365
 Ga         0.0737782099        7.5499613956       11.0729519696
  N         0.0727705960        7.5487670858       13.0456422255
 Ga         0.0722428785        5.6790794328       13.6680275474
  N         0.0716470927        5.7108615008       15.6318365234
 Ga         0.0731581577        7.5490768133       15.9093359445
  N        -1.6420514081       10.2879068588        2.5742241494
 Ga        -1.5296204443        8.4848316973        3.3406992607
  N        -1.5227345497        8.4743100368        5.2891211121
 Ga        -1.5072669040       10.3501657803        5.8703698386
  N        -1.5321125895       10.3356738078        7.8592618578
 Ga        -1.5461362513        8.4772680167        8.4836291718
  N        -1.5462875546        8.4808254105       10.4779654234
 Ga        -1.5174295833       10.3399485797       11.1174054292
  N        -1.5025575563       10.3510496905       13.1125992683
 Ga        -1.5468966309        8.4820301139       13.6669543888
  N        -1.5214268946        8.4659245314       15.6305806812
 Ga        -1.6900599597       10.2439145157       16.5247426073
  N         6.4834663460        2.1105396028        2.5673115830
 Ga         6.5071571483        0.1013570601        2.9534037495
  N         6.4830487904        0.1356601441        5.1234952068
 Ga         6.5146137632        1.9470536934        5.8692441393
  N         6.5050063447        1.9734434401        7.8590855207
 Ga         6.5102564640        0.1167832171        8.4856283375
  N         6.5058849921        0.1202895889       10.4637149262
 Ga         6.5085305171        1.9592279355       11.1171523621
  N         6.5057395056        1.9406625588       13.1114916203
 Ga         6.5067177984        0.1210433263       13.9127148992
  N         6.5056003503        0.1226756959       16.1174354332
 Ga         6.5051724943        2.1678001427       16.5280610749
 Ga         6.4762325556        3.8594552577        1.5867788010
  N         5.0097576212        4.7000703979        2.6514648392
 Ga         4.8526827845        2.8627756742        3.3941943466
  N         4.8781446905        2.8930603728        5.3193019763
 Ga         4.8824606062        4.7793976042        5.8678206191
  N         4.8892289421        4.7651149156        7.8535940832
 Ga         4.9116815310        2.9140989762        8.5063880130
  N         4.9086110075        2.9140727037       10.4924744776
 Ga         4.8843142410        4.7772159061       11.1154355625
  N         4.8656795226        4.7829979082       13.1106918594
 Ga         4.9096009043        2.9134742594       13.6675928818
  N         4.8818528434        2.8960445259       15.6300791400
 Ga         5.0545131125        4.6723839774       16.5276474362
  N         6.5050392145        3.8436437174       17.6606386390
  N         3.2823499392        7.5278047154        2.5665485262
  N         3.2903749042        5.6741566995        5.1157329823
 Ga         3.2924888576        7.5418595716        5.8135578116
  N         3.2879624994        7.5414871377        7.8204873137
 Ga         3.2901913024        5.7002699513        8.4866794751
  N         3.2891506373        5.6939046396       10.4624338518
 Ga         3.2901594139        7.5329069093       11.1140909414
  N         3.2889626281        7.5121377791       13.1086928500
 Ga         3.2895738650        5.6933711679       13.9140823551
  N         3.2889774199        5.6936419391       16.1169001150
 Ga         3.2888280944        7.7382242870       16.5282115519
 Ga         4.1529474162       10.8960912908        0.6797338564
  N         1.7135053382       10.3474200676        2.5738278389
 Ga         1.6998192140        8.5619506760        3.2081237490
  N         1.6776274453        8.4646638499        5.2070624513
 Ga         1.6543109397       10.3389081367        5.8133339472
  N         1.6694032278       10.3312712833        7.8274641583
 Ga         1.6950176367        8.4851068709        8.4804859693
  N         1.6929015417        8.4824343639       10.4754932061
 Ga         1.6684492175       10.3426444565       11.1116984621
  N         1.6496996310       10.3515600374       13.1081859418
 Ga         1.6924319356        8.4832790040       13.6662492485
  N         1.6655068174        8.4668910566       15.6286247004
 Ga         1.8394586523       10.2419749314       16.5281757880
  N         3.2892182870        9.4129692550       17.6630036605
  N         9.7471940855        1.9383985766        2.6492311252
 Ga         9.6687693127        0.1441881188        3.2978677505
  N         9.7184442923        0.1199676846        5.2889370052
 Ga         9.7238915292        1.9677456275        5.9039766805
  N         9.7193754862        1.9780013957        7.8882485070
 Ga         9.7193599303        0.1058195930        8.4649988472
  N         9.7203219482        0.1086468559       10.4682308423
 Ga         9.7208619525        1.9760775231       11.0701931490
  N         9.7207932195        1.9769312350       13.0439978907
 Ga         9.7210457621        0.1075832301       13.6665902126
  N         9.7208045272        0.1398076473       15.6303037737
 Ga         9.7207407721        1.9776018630       15.9089978155
  N         8.0019263261        4.7035463357        2.5669910453
 Ga         8.2294849482        2.8277424993        3.3037810712
  N         8.1125889060        2.9020482186        5.2763042276
 Ga         8.1426921933        4.7745333293        5.8344935071
  N         8.1234693561        4.7678670455        7.8364201901
 Ga         8.1087062869        2.9143863828        8.4854941359
  N         8.1031409641        2.9142647101       10.4798167449
 Ga         8.1268137818        4.7735655252       11.1133989881
  N         8.1439682005        4.7817991197       13.1093995050
 Ga         8.1025677078        2.9124650494       13.6661655008
  N         8.1283892140        2.8962348099       15.6289006838
 Ga         7.9546895603        4.6717702526       16.5271895602
  N         6.4967936427        7.5717794649        2.6371841390
 Ga         6.5062190352        5.8457653483        3.3475065611
  N         6.5066555034        5.6974602597        5.3045320622
 Ga         6.4834319820        7.5750895291        5.8741257686
  N         6.4975067696        7.5546277294        7.8669550268
 Ga         6.5092065715        5.6900316690        8.4704854448
  N         6.5061580295        5.6821140234       10.4699679400
 Ga         6.5043883463        7.5496354939       11.0684537246
  N         6.5046968249        7.5486300561       13.0424547018
 Ga         6.5053127632        5.6797431623       13.6675150690
  N         6.5052146257        5.7112952940       15.6311188808
 Ga         6.5040525027        7.5490554606       15.9093474198
  N         4.8640499800       10.3808472081        2.5374774850
 Ga         4.9488908211        8.5119827422        3.1576237398
  N         4.8814374013        8.4867605023        5.1950740916
 Ga         4.9126955076       10.3390301458        5.8188668158
  N         4.9062096031       10.3348968033        7.8301246578
 Ga         4.8859219526        8.4839860029        8.4726964475
  N         4.8853567275        8.4821240485       10.4710384673
 Ga         4.9085578149       10.3413927678       11.1098209256
  N         4.9273463483       10.3513279566       13.1070828184
 Ga         4.8857699183        8.4831708774       13.6653723775
  N         4.9118050461        8.4668523295       15.6278078020
 Ga         4.7379919476       10.2418813309       16.5275734164
  O         0.7501088717        3.7109696691       -0.2817355872
  H         2.5630596785        3.3898108157        0.1866298066
  C         0.1651305403        2.7418412520       -1.1699760252
  H         0.0321619597        1.7576139978       -0.6876486505
  H        -0.8128475449        3.0796237303       -1.5446849815
  H         0.8443045195        2.6183490629       -2.0253469767
 Ga         3.2694658630        5.6088352425        3.0466879284
  O         3.4525692877        3.0658791667        0.4767989202
  H         0.0102043066        7.5086860981        1.6834804777
  C         3.2858192799        1.8424875602        1.1687541736
  H         4.1357860915        1.2005919491        0.8914387888
  H         3.2805133537        7.5836943856        1.7308579434
  H         2.3519352216        1.3456798925        0.8605876166
