     212
 i =       87, E =     -8504.7102977299
  N         0.0261499921        1.9813311637        2.5046401681
 Ga        -0.0011128399        0.0216992491        2.8951353729
  N         0.0267070508       -0.0177460418        5.0447716450
 Ga         0.0081915924        1.7998899804        5.8232164814
  N         0.0107812382        1.8169328674        7.8201276927
 Ga         0.0075956389       -0.0342243150        8.4464829124
  N         0.0131733060       -0.0309797709       10.4239459664
 Ga         0.0130795101        1.8085635217       11.0742531844
  N         0.0145608886        1.7903836590       13.0693506155
 Ga         0.0140240936       -0.0295452638       13.8677945074
  N         0.0154791492       -0.0278666429       16.0734054018
 Ga         0.0156801525        2.0158573850       16.4820950221
 Ga         0.0476365497        3.6890889468        1.4060055048
  N        -1.4570461266        4.5537730470        2.5139941134
 Ga        -1.6616934620        2.6966755194        3.2717467411
  N        -1.5958114980        2.7570579442        5.2534025272
 Ga        -1.6230211467        4.6233020102        5.8073575034
  N        -1.6042444995        4.6203644017        7.8048036067
 Ga        -1.5862041046        2.7624894559        8.4486747161
  N        -1.5826982097        2.7648176844       10.4421689894
 Ga        -1.6094232426        4.6229288968       11.0759123312
  N        -1.6251525773        4.6320165122       13.0705463658
 Ga        -1.5822964384        2.7618249372       13.6229789496
  N        -1.6073221705        2.7457626565       15.5862902922
 Ga        -1.4358998383        4.5224639128       16.4817013206
  N         0.0153938435        3.6933471848       17.6159439399
  N        -3.1946196960        7.5270804450        2.5322568186
 Ga        -3.1727955379        5.5180194349        2.8497192654
  N        -3.1989960107        5.5435719535        5.0143153527
 Ga        -3.2101137638        7.3646060327        5.8023970868
  N        -3.2018123036        7.3878582737        7.7959813318
 Ga        -3.2033812381        5.5415916543        8.4476681419
  N        -3.2016904061        5.5423453268       10.4225501532
 Ga        -3.2043211340        7.3812649422       11.0718593185
  N        -3.2017894732        7.3620526256       13.0669510887
 Ga        -3.2017676864        5.5424549432       13.8699870247
  N        -3.2005951791        5.5429551072       16.0734788298
 Ga        -3.2004578102        7.5863952191       16.4835818827
 Ga        -3.2241326649        9.2821683593        1.5467261993
  N        -4.7043221994       10.1355154549        2.5474287841
 Ga        -4.9448011291        8.2776227833        3.2876576224
  N        -4.8145409325        8.3272073291        5.2466749283
 Ga        -4.8396862564       10.1994917076        5.8133794200
  N        -4.8187523381       10.1878789700        7.8083946804
 Ga        -4.8088307144        8.3293980956        8.4299028446
  N        -4.8002089202        8.3309184316       10.4282483738
 Ga        -4.8270275587       10.1889525220       11.0721000516
  N        -4.8414984061       10.2004860459       13.0681672297
 Ga        -4.7983967972        8.3324527363       13.6240662518
  N        -4.8235448568        8.3159337089       15.5867990407
 Ga        -4.6517970191       10.0928704377       16.4823174362
  N        -3.2003453052        9.2636220597       17.6166666627
  N         3.2222478621        1.8368031878        2.6484537281
 Ga         3.2269059929        0.0984373668        3.3220816183
  N         3.2313621130       -0.0324977001        5.2779543293
 Ga         3.2259222322        1.8256065474        5.9072686271
  N         3.2322100290        1.8250842735        7.8785431737
 Ga         3.2273324699       -0.0437558209        8.4559383272
  N         3.2302566390       -0.0429260467       10.4470091042
 Ga         3.2307517934        1.8279636366       11.0372166308
  N         3.2314554908        1.8275438766       13.0091111582
 Ga         3.2306021929       -0.0435317953       13.6245791685
  N         3.2314769383       -0.0104438610       15.5886874746
 Ga         3.2319786877        1.8282285076       15.8623105133
  N         1.5132032641        4.5332677958        2.5982580857
 Ga         1.6886027782        2.7010886861        3.3193836586
  N         1.6228118690        2.7463425081        5.2935519722
 Ga         1.6417371892        4.6120231430        5.8413758982
  N         1.6278047268        4.6170091666        7.8271317223
 Ga         1.6102053437        2.7577890058        8.4565116930
  N         1.6116554874        2.7621910833       10.4480639633
 Ga         1.6385011630        4.6239512733       11.0732636122
  N         1.6551553642        4.6321798653       13.0692573221
 Ga         1.6109784974        2.7626384446       13.6238224107
  N         1.6383223523        2.7460594731       15.5868967688
 Ga         1.4676907812        4.5226181417       16.4820772050
  N         0.0299573879        7.3977531623        2.6718998755
 Ga         0.0344444149        5.5591606344        3.3483549540
  N         0.0149996628        5.5599665109        5.2827830631
 Ga         0.0442187017        7.4102675166        5.8892348069
  N         0.0195530599        7.4031698177        7.8569511974
 Ga         0.0108801241        5.5333298322        8.4486134423
  N         0.0128857723        5.5313375126       10.4410953816
 Ga         0.0160378267        7.3999063035       11.0329377964
  N         0.0157457923        7.3990103714       13.0052764632
 Ga         0.0153174638        5.5285503964       13.6248298832
  N         0.0158780208        5.5604725249       15.5888908271
 Ga         0.0159479098        7.3987159135       15.8647317479
  N        -1.7023092830       10.1224745777        2.5437021928
 Ga        -1.5394116273        8.3078221640        3.3376639742
  N        -1.5792139123        8.3200262962        5.2631852319
 Ga        -1.5692055887       10.2040733314        5.8317369407
  N        -1.5873446535       10.1848556310        7.8193260106
 Ga        -1.6033981235        8.3292275856        8.4481072842
  N        -1.6047293861        8.3310964024       10.4394012901
 Ga        -1.5771832901       10.1911444490       11.0759965866
  N        -1.5607191086       10.2011655039       13.0706631222
 Ga        -1.6046368532        8.3322162638       13.6243135649
  N        -1.5776398204        8.3157023775       15.5870147053
 Ga        -1.7487970024       10.0930172257       16.4821535226
  N         6.4441744975        1.9532440663        2.5608100322
 Ga         6.4781267184       -0.0270042159        2.9028971759
  N         6.4277832851       -0.0214705100        5.0671318212
 Ga         6.4537494618        1.7983546517        5.8279750330
  N         6.4505836731        1.8181286981        7.8213983527
 Ga         6.4515665284       -0.0327945191        8.4526401846
  N         6.4482998426       -0.0304986137       10.4276188619
 Ga         6.4494368405        1.8100554628       11.0753304361
  N         6.4483610445        1.7907349692       13.0697560731
 Ga         6.4484445140       -0.0287461431       13.8697825528
  N         6.4484673584       -0.0275249897       16.0738049387
 Ga         6.4483631277        2.0174044402       16.4831507791
 Ga         6.4383812199        3.6763202378        1.5751913235
  N         4.9468077385        4.5315192974        2.5739907289
 Ga         4.7394714679        2.6823383794        3.3379823989
  N         4.8395626865        2.7497480810        5.2933521595
 Ga         4.8282338955        4.6194731117        5.8385571770
  N         4.8343945758        4.6165888399        7.8239309381
 Ga         4.8514163950        2.7597854790        8.4583460461
  N         4.8505775076        2.7625223085       10.4486405134
 Ga         4.8260424609        4.6254731820       11.0707172269
  N         4.8082876122        4.6326015671       13.0673076339
 Ga         4.8519963314        2.7634450065       13.6234910475
  N         4.8251533097        2.7461952796       15.5863457433
 Ga         4.9978001599        4.5220424682       16.4830158923
  N         6.4486954618        3.6936292460       17.6172892224
  N         3.2053969344        7.3443847557        2.5705000208
  N         3.2348851993        5.5112387908        5.0976354943
 Ga         3.2361511765        7.3874751133        5.7602324081
  N         3.2296877416        7.3920564813        7.7758555167
 Ga         3.2314833981        5.5507715553        8.4449667268
  N         3.2313805309        5.5445784004       10.4223550305
 Ga         3.2330264939        7.3818196704       11.0733535057
  N         3.2319178220        7.3621910802       13.0680810832
 Ga         3.2320029065        5.5423398373       13.8690039090
  N         3.2323028538        5.5430526725       16.0737329372
 Ga         3.2322490949        7.5869187388       16.4834928719
 Ga         3.6276070090       10.6438227578        0.7052370273
  N         1.6913798785       10.2020226866        2.5120136666
 Ga         1.6587089559        8.4006695764        3.1650828963
  N         1.6160349530        8.3230107192        5.1728201056
 Ga         1.5919598609       10.1860395829        5.7895820550
  N         1.6096408010       10.1810031002        7.7956176942
 Ga         1.6403363969        8.3330351456        8.4438315991
  N         1.6356991449        8.3319317300       10.4373735152
 Ga         1.6118063889       10.1922567135       11.0712406154
  N         1.5925210240       10.2016261653       13.0676713588
 Ga         1.6356500901        8.3335185700       13.6241313208
  N         1.6090464045        8.3163044687       15.5869500509
 Ga         1.7811741279       10.0929451983       16.4827898682
  N         3.2323752351        9.2639137552       17.6167919640
  N         9.6860243441        1.7796242172        2.6242885011
 Ga         9.6352567580        0.0028280714        3.3214389781
  N         9.6598504080       -0.0286151965        5.2835437573
 Ga         9.6717021247        1.8257460143        5.8832257939
  N         9.6632531290        1.8296521471        7.8603406577
 Ga         9.6649073214       -0.0458591639        8.4228406090
  N         9.6636278822       -0.0422262082       10.4268050700
 Ga         9.6632473387        1.8260846898       11.0273114936
  N         9.6635782735        1.8266268465       13.0019241341
 Ga         9.6638684692       -0.0424653969       13.6238315475
  N         9.6644865470       -0.0101859068       15.5880660125
 Ga         9.6640585374        1.8278927756       15.8640629538
  N         7.9497220336        4.5509452069        2.5454883359
 Ga         8.1797274421        2.6744169821        3.2943880658
  N         8.0617147018        2.7528682539        5.2570133091
 Ga         8.0782950355        4.6293173150        5.7934307701
  N         8.0647490936        4.6207596626        7.7951646308
 Ga         8.0490115821        2.7649793208        8.4466209007
  N         8.0448935927        2.7654762679       10.4404209061
 Ga         8.0693893791        4.6241234814       11.0735465453
  N         8.0868435847        4.6320371566       13.0686952541
 Ga         8.0451900640        2.7622183298       13.6230035219
  N         8.0715306377        2.7459786923       15.5858763432
 Ga         7.8987360926        4.5220564525       16.4826518889
  N         6.4305690063        7.4101721632        2.5701402493
 Ga         6.4258015824        5.6846517356        3.2939888002
  N         6.4437690588        5.5480904668        5.2534798841
 Ga         6.4081576710        7.4192318828        5.8334535797
  N         6.4379474497        7.4032708808        7.8238500555
 Ga         6.4508410601        5.5404877937        8.4349216755
  N         6.4496270983        5.5332543816       10.4320958602
 Ga         6.4457448246        7.4006895640       11.0276453441
  N         6.4471148147        7.3991594688       13.0012838765
 Ga         6.4472288643        5.5294562394       13.6238688718
  N         6.4479725026        5.5608528155       15.5876842737
 Ga         6.4476414021        7.3985475140       15.8653816044
  N         4.7676298934       10.2266581464        2.4672357147
 Ga         4.8613493157        8.3499211748        3.0498859254
  N         4.8217110979        8.3336538228        5.1316552254
 Ga         4.8654689810       10.1794334496        5.7684617322
  N         4.8508450083       10.1814997704        7.7836230058
 Ga         4.8255169564        8.3326370937        8.4298656064
  N         4.8272246820        8.3319826205       10.4288691767
 Ga         4.8513041788       10.1907939551       11.0684068833
  N         4.8700023628       10.2009956528       13.0657793196
 Ga         4.8283340808        8.3332177711       13.6234045485
  N         4.8549958325        8.3165364686       15.5862021946
 Ga         4.6832835411       10.0928856781       16.4826059953
  O         0.4090880776        4.1375701731       -0.3578094537
  H         1.0405350620        5.7085399272       -0.2180891526
  C         1.3160071345        3.2529894075       -1.0519099617
  H         2.2327899613        3.0568242518       -0.4705593562
  H         0.8320820340        2.2906733784       -1.2770510155
  H         1.5908453101        3.7339816482       -2.0013273617
 Ga         3.2041327095        5.4412873617        3.0272455831
  O         1.2499111871        6.6983161669       -0.1809573781
  H         0.0041369555        7.3457143670        1.6437908560
  C         2.6011948118        6.9427702633       -0.0414556246
  H         2.8823145587        7.8941519530       -0.5149806246
  H         2.9298049006        7.1966923773        1.2069646145
  H         3.2622699040        6.1040659573       -0.2965731269
