 DBCSR| Multiplication driver                                               BLAS
 DBCSR| Multrec recursion limit                                              512
 DBCSR| Multiplication stack size                                           1000
 DBCSR| Maximum elements for images                                    UNLIMITED
 DBCSR| Multiplicative factor virtual images                                   1
 DBCSR| Multiplication size stacks                                             3
 DBCSR| Number of 3D layers                                               SINGLE
 DBCSR| Use MPI memory allocation                                              T
 DBCSR| Use RMA algorithm                                                      F
 DBCSR| Use Communication thread                                               T
 DBCSR| Communication thread load                                             87


  **** **** ******  **  PROGRAM STARTED AT               2019-07-13 15:55:01.558
 ***** ** ***  *** **   PROGRAM STARTED ON        blg7528.int.ets1.calculquebec.
 **    ****   ******    PROGRAM STARTED BY                                   rzk
 ***** **    ** ** **   PROGRAM PROCESS ID                                 11335
  **** **  *******  **  PROGRAM STARTED IN /lustre04/scratch/rzk/rzk/GaN-carbene
                                           /443-adatoms-both-2x2/09-BondBreaking
                                           -CH/02-0401-CH-to-NTop-PES

 CP2K| version string:                    CP2K version 7.0 (Development Version)
 CP2K| source code revision number:                                    svn:18619
 CP2K| cp2kflags: libint fftw3 libxc parallel mpi3 scalapack mkl                
 CP2K| is freely available from                            https://www.cp2k.org/
 CP2K| Program compiled at                          Sun Apr  7 00:48:11 EDT 2019
 CP2K| Program compiled on                      beluga2.int.ets1.calculquebec.ca
 CP2K| Program compiled for                    Beluga-Linux-x86-64-intel-openmpi
 CP2K| Data directory path    /home/rzk/projects/def-rzk/group/cp2k/cp2k-mcgill/
 CP2K| Input file name                                            TEST-1.restart
 
 GLOBAL| Force Environment number                                              1
 GLOBAL| Basis set file name                                        BASIS_MOLOPT
 GLOBAL| Potential file name                                      GTH_POTENTIALS
 GLOBAL| MM Potential file name                                     MM_POTENTIAL
 GLOBAL| Coordinate file name                                      __STD_INPUT__
 GLOBAL| Method name                                                        CP2K
 GLOBAL| Project name                                                       TEST
 GLOBAL| Preferred FFT library                                             FFTW3
 GLOBAL| Preferred diagonalization lib.                                       SL
 GLOBAL| Run type                                                        GEO_OPT
 GLOBAL| All-to-all communication in single precision                          F
 GLOBAL| FFTs using library dependent lengths                                  F
 GLOBAL| Global print level                                               MEDIUM
 GLOBAL| MPI I/O enabled                                                       T
 GLOBAL| Total number of message passing processes                            80
 GLOBAL| Number of threads for this process                                    1
 GLOBAL| This output is from process                                           0
 GLOBAL| CPU model name :  Intel(R) Xeon(R) Gold 6148 CPU @ 2.40GHz

 MEMORY| system memory details [Kb]
 MEMORY|                        rank 0           min           max       average
 MEMORY| MemTotal            196614300     196614300     196614300     196614300
 MEMORY| MemFree             175031540     175023740     179423228     177176661
 MEMORY| Buffers                    56            56            76            66
 MEMORY| Cached                1415732       1396748       1415732       1406471
 MEMORY| Slab                  4356764       4356764       4723612       4540174
 MEMORY| SReclaimable           793596        515552        793596        654574
 MEMORY| MemLikelyFree       177240924     177233124     181335604     179237772


 *** Fundamental physical constants (SI units) ***

 *** Literature: B. J. Mohr and B. N. Taylor,
 ***             CODATA recommended values of the fundamental physical
 ***             constants: 2006, Web Version 5.1
 ***             http://physics.nist.gov/constants

 Speed of light in vacuum [m/s]                             2.99792458000000E+08
 Magnetic constant or permeability of vacuum [N/A**2]       1.25663706143592E-06
 Electric constant or permittivity of vacuum [F/m]          8.85418781762039E-12
 Planck constant (h) [J*s]                                  6.62606896000000E-34
 Planck constant (h-bar) [J*s]                              1.05457162825177E-34
 Elementary charge [C]                                      1.60217648700000E-19
 Electron mass [kg]                                         9.10938215000000E-31
 Electron g factor [ ]                                     -2.00231930436220E+00
 Proton mass [kg]                                           1.67262163700000E-27
 Fine-structure constant                                    7.29735253760000E-03
 Rydberg constant [1/m]                                     1.09737315685270E+07
 Avogadro constant [1/mol]                                  6.02214179000000E+23
 Boltzmann constant [J/K]                                   1.38065040000000E-23
 Atomic mass unit [kg]                                      1.66053878200000E-27
 Bohr radius [m]                                            5.29177208590000E-11

 *** Conversion factors ***

 [u] -> [a.u.]                                              1.82288848426455E+03
 [Angstrom] -> [Bohr] = [a.u.]                              1.88972613288564E+00
 [a.u.] = [Bohr] -> [Angstrom]                              5.29177208590000E-01
 [a.u.] -> [s]                                              2.41888432650478E-17
 [a.u.] -> [fs]                                             2.41888432650478E-02
 [a.u.] -> [J]                                              4.35974393937059E-18
 [a.u.] -> [N]                                              8.23872205491840E-08
 [a.u.] -> [K]                                              3.15774647902944E+05
 [a.u.] -> [kJ/mol]                                         2.62549961709828E+03
 [a.u.] -> [kcal/mol]                                       6.27509468713739E+02
 [a.u.] -> [Pa]                                             2.94210107994716E+13
 [a.u.] -> [bar]                                            2.94210107994716E+08
 [a.u.] -> [atm]                                            2.90362800883016E+08
 [a.u.] -> [eV]                                             2.72113838565563E+01
 [a.u.] -> [Hz]                                             6.57968392072181E+15
 [a.u.] -> [1/cm] (wave numbers)                            2.19474631370540E+05
 [a.u./Bohr**2] -> [1/cm]                                   5.14048714338585E+03
 
          ----------------------------------------------------------------------
 COLVARS| COLVAR INPUT INDEX:        1
 COLVARS| BOND          >>> ATOMS:                                   127     211
          ----------------------------------------------------------------------

 CELL_TOP| Volume [angstrom^3]:                                         4586.323
 CELL_TOP| Vector a [angstrom    12.864     0.000     0.000    |a| =      12.864
 CELL_TOP| Vector b [angstrom    -6.432    11.141     0.000    |b| =      12.864
 CELL_TOP| Vector c [angstrom     0.000     0.000    32.000    |c| =      32.000
 CELL_TOP| Angle (b,c), alpha [degree]:                                   90.000
 CELL_TOP| Angle (a,c), beta  [degree]:                                   90.000
 CELL_TOP| Angle (a,b), gamma [degree]:                                  120.000
 CELL_TOP| Numerically orthorhombic:                                          NO
 RESTRAINT| Active restraint on COLLECTIVE section Nr.     1. K [a.u.]= 2.000000
 
 GENERATE|  Preliminary Number of Bonds generated:                             0
 GENERATE|  Achieved consistency in connectivity generation.

 CELL| Volume [angstrom^3]:                                             4586.323
 CELL| Vector a [angstrom]:      12.864     0.000     0.000    |a| =      12.864
 CELL| Vector b [angstrom]:      -6.432    11.141     0.000    |b| =      12.864
 CELL| Vector c [angstrom]:       0.000     0.000    32.000    |c| =      32.000
 CELL| Angle (b,c), alpha [degree]:                                       90.000
 CELL| Angle (a,c), beta  [degree]:                                       90.000
 CELL| Angle (a,b), gamma [degree]:                                      120.000
 CELL| Numerically orthorhombic:                                              NO

 CELL_REF| Volume [angstrom^3]:                                         4670.759
 CELL_REF| Vector a [angstrom    12.982     0.000     0.000    |a| =      12.982
 CELL_REF| Vector b [angstrom    -6.491    11.243     0.000    |b| =      12.982
 CELL_REF| Vector c [angstrom     0.000     0.000    32.000    |c| =      32.000
 CELL_REF| Angle (b,c), alpha [degree]:                                   90.000
 CELL_REF| Angle (a,c), beta  [degree]:                                   90.000
 CELL_REF| Angle (a,b), gamma [degree]:                                  120.000
 CELL_REF| Numerically orthorhombic:                                          NO

 *******************************************************************************
 *******************************************************************************
 **                                                                           **
 **     #####                         ##              ##                      **
 **    ##   ##            ##          ##              ##                      **
 **   ##     ##                       ##            ######                    **
 **   ##     ##  ##   ##  ##   #####  ##  ##   ####   ##    #####    #####    **
 **   ##     ##  ##   ##  ##  ##      ## ##   ##      ##   ##   ##  ##   ##   **
 **   ##  ## ##  ##   ##  ##  ##      ####     ###    ##   ######   ######    **
 **    ##  ###   ##   ##  ##  ##      ## ##      ##   ##   ##       ##        **
 **     #######   #####   ##   #####  ##  ##  ####    ##    #####   ##        **
 **           ##                                                    ##        **
 **                                                                           **
 **                                                ... make the atoms dance   **
 **                                                                           **
 **            Copyright (C) by CP2K developers group (2000 - 2018)           **
 **                                                                           **
 *******************************************************************************

 DFT| Spin unrestricted (spin-polarized) Kohn-Sham calculation               UKS
 DFT| Multiplicity                                                             1
 DFT| Number of spin states                                                    2
 DFT| Charge                                                                   0
 DFT| Self-interaction correction (SIC)                                       NO
 DFT| Cutoffs: density                                              1.000000E-10
 DFT|          gradient                                             1.000000E-10
 DFT|          tau                                                  1.000000E-10
 DFT|          cutoff_smoothing_range                               0.000000E+00
 DFT| XC density smoothing                                                  NONE
 DFT| XC derivatives                                                          PW
 FUNCTIONAL| ROUTINE=NEW
 FUNCTIONAL| PBE:
 FUNCTIONAL| J.P.Perdew, K.Burke, M.Ernzerhof, Phys. Rev. Letter, vol. 77, n 18,
 FUNCTIONAL|  pp. 3865-3868, (1996){spin polarized}                             
 vdW POTENTIAL|                                                   Pair Potential
 vdW POTENTIAL|          DFT-D3 (Version 3.1)
 vdW POTENTIAL|          Potential Form: S. Grimme et al, JCP 132: 154104 (2010)
 vdW POTENTIAL|          Zero Damping
 vdW POTENTIAL|          Cutoff Radius [Bohr]:                             18.90
 vdW POTENTIAL|          s6 Scaling Factor:                               1.0000
 vdW POTENTIAL|          sr6 Scaling Factor:                              1.2170
 vdW POTENTIAL|          s8 Scaling Factor:                               0.7220
 vdW POTENTIAL|          Cutoff for CN calculation:                   0.1000E-05

 QS| Method:                                                                 GPW
 QS| Density plane wave grid type                        NON-SPHERICAL FULLSPACE
 QS| Number of grid levels:                                                    5
 QS| Density cutoff [a.u.]:                                                600.0
 QS| Multi grid cutoff [a.u.]: 1) grid level                               600.0
 QS|                           2) grid level                               200.0
 QS|                           3) grid level                                66.7
 QS|                           4) grid level                                22.2
 QS|                           5) grid level                                 7.4
 QS| Grid level progression factor:                                          3.0
 QS| Relative density cutoff [a.u.]:                                        20.0
 QS| Consistent realspace mapping and integration 
 QS| Interaction thresholds: eps_pgf_orb:                                1.0E-07
 QS|                         eps_filter_matrix:                          0.0E+00
 QS|                         eps_core_charge:                            1.0E-16
 QS|                         eps_rho_gspace:                             1.0E-14
 QS|                         eps_rho_rspace:                             1.0E-14
 QS|                         eps_gvg_rspace:                             1.0E-07
 QS|                         eps_ppl:                                    1.0E-02
 QS|                         eps_ppnl:                                   1.0E-09


 ATOMIC KIND INFORMATION

  1. Atomic kind: N                                     Number of atoms:     100

     Orbital Basis Set                                        DZVP-MOLOPT-SR-GTH

       Number of orbital shell sets:                                           1
       Number of orbital shells:                                               5
       Number of primitive Cartesian functions:                                5
       Number of Cartesian basis functions:                                   14
       Number of spherical basis functions:                                   13
       Norm type:                                                              2

       Normalised Cartesian orbitals:

                        Set   Shell   Orbital            Exponent    Coefficient

                          1       1    2s                7.341988       0.360561
                                                         2.542637       0.139177
                                                         0.888575      -0.289383
                                                         0.333802      -0.182244
                                                         0.112012      -0.019197

                          1       2    3s                7.341988       0.282000
                                                         2.542637       0.177875
                                                         0.888575      -0.278381
                                                         0.333802       0.008577
                                                         0.112012       0.154176

                          1       3    3px               7.341988      -1.188719
                                                         2.542637      -0.973969
                                                         0.888575      -0.501079
                                                         0.333802      -0.144894
                                                         0.112012      -0.013986
                          1       3    3py               7.341988      -1.188719
                                                         2.542637      -0.973969
                                                         0.888575      -0.501079
                                                         0.333802      -0.144894
                                                         0.112012      -0.013986
                          1       3    3pz               7.341988      -1.188719
                                                         2.542637      -0.973969
                                                         0.888575      -0.501079
                                                         0.333802      -0.144894
                                                         0.112012      -0.013986

                          1       4    4px               7.341988      -0.094798
                                                         2.542637       0.050069
                                                         0.888575      -0.114797
                                                         0.333802       0.144793
                                                         0.112012       0.066710
                          1       4    4py               7.341988      -0.094798
                                                         2.542637       0.050069
                                                         0.888575      -0.114797
                                                         0.333802       0.144793
                                                         0.112012       0.066710
                          1       4    4pz               7.341988      -0.094798
                                                         2.542637       0.050069
                                                         0.888575      -0.114797
                                                         0.333802       0.144793
                                                         0.112012       0.066710

                          1       5    4dx2              7.341988       1.354688
                                                         2.542637       0.690378
                                                         0.888575       0.855359
                                                         0.333802       0.091746
                                                         0.112012       0.001253
                          1       5    4dxy              7.341988       2.346389
                                                         2.542637       1.195770
                                                         0.888575       1.481524
                                                         0.333802       0.158910
                                                         0.112012       0.002169
                          1       5    4dxz              7.341988       2.346389
                                                         2.542637       1.195770
                                                         0.888575       1.481524
                                                         0.333802       0.158910
                                                         0.112012       0.002169
                          1       5    4dy2              7.341988       1.354688
                                                         2.542637       0.690378
                                                         0.888575       0.855359
                                                         0.333802       0.091746
                                                         0.112012       0.001253
                          1       5    4dyz              7.341988       2.346389
                                                         2.542637       1.195770
                                                         0.888575       1.481524
                                                         0.333802       0.158910
                                                         0.112012       0.002169
                          1       5    4dz2              7.341988       1.354688
                                                         2.542637       0.690378
                                                         0.888575       0.855359
                                                         0.333802       0.091746
                                                         0.112012       0.001253

     GTH Potential information for                                    GTH-PBE-q5

       Description:                       Goedecker-Teter-Hutter pseudopotential
                                           Goedecker et al., PRB 54, 1703 (1996)
                                          Hartwigsen et al., PRB 58, 3641 (1998)
                                                      Krack, TCA 114, 145 (2005)

       Gaussian exponent of the core charge distribution:               6.208322
       Electronic configuration (s p d ...):                               2   3

       Parameters of the local part of the GTH pseudopotential:

                          rloc        C1          C2          C3          C4
                        0.283791  -12.415226    1.868096

       Parameters of the non-local part of the GTH pseudopotential:

                   l      r(l)      h(i,j,l)

                   0    0.255405   13.630263
                   1    0.245495

  2. Atomic kind: Ga                                    Number of atoms:     100

     Orbital Basis Set                                        DZVP-MOLOPT-SR-GTH

       Number of orbital shell sets:                                           1
       Number of orbital shells:                                               7
       Number of primitive Cartesian functions:                                6
       Number of Cartesian basis functions:                                   30
       Number of spherical basis functions:                                   25
       Norm type:                                                              2

       Normalised Cartesian orbitals:

                        Set   Shell   Orbital            Exponent    Coefficient

                          1       1    2s                7.066654       0.013136
                                                         3.428369      -0.094392
                                                         1.430064       0.265435
                                                         0.571611       0.056465
                                                         0.232197      -0.192187
                                                         0.076562      -0.044987

                          1       2    3s                7.066654      -0.098564
                                                         3.428369       0.010390
                                                         1.430064       0.351249
                                                         0.571611       0.182615
                                                         0.232197      -0.425358
                                                         0.076562       0.190349

                          1       3    3px               7.066654       0.002364
                                                         3.428369       0.019222
                                                         1.430064       0.250132
                                                         0.571611      -0.058486
                                                         0.232197      -0.159451
                                                         0.076562      -0.020696
                          1       3    3py               7.066654       0.002364
                                                         3.428369       0.019222
                                                         1.430064       0.250132
                                                         0.571611      -0.058486
                                                         0.232197      -0.159451
                                                         0.076562      -0.020696
                          1       3    3pz               7.066654       0.002364
                                                         3.428369       0.019222
                                                         1.430064       0.250132
                                                         0.571611      -0.058486
                                                         0.232197      -0.159451
                                                         0.076562      -0.020696

                          1       4    4px               7.066654       0.492448
                                                         3.428369      -0.614736
                                                         1.430064      -0.191654
                                                         0.571611       0.037801
                                                         0.232197       0.302315
                                                         0.076562      -0.071336
                          1       4    4py               7.066654       0.492448
                                                         3.428369      -0.614736
                                                         1.430064      -0.191654
                                                         0.571611       0.037801
                                                         0.232197       0.302315
                                                         0.076562      -0.071336
                          1       4    4pz               7.066654       0.492448
                                                         3.428369      -0.614736
                                                         1.430064      -0.191654
                                                         0.571611       0.037801
                                                         0.232197       0.302315
                                                         0.076562      -0.071336

                          1       5    4dx2              7.066654     -15.264855
                                                         3.428369      -5.345726
                                                         1.430064      -1.022732
                                                         0.571611      -0.123148
                                                         0.232197      -0.006983
                                                         0.076562      -0.000022
                          1       5    4dxy              7.066654     -26.439504
                                                         3.428369      -9.259069
                                                         1.430064      -1.771423
                                                         0.571611      -0.213299
                                                         0.232197      -0.012094
                                                         0.076562      -0.000037
                          1       5    4dxz              7.066654     -26.439504
                                                         3.428369      -9.259069
                                                         1.430064      -1.771423
                                                         0.571611      -0.213299
                                                         0.232197      -0.012094
                                                         0.076562      -0.000037
                          1       5    4dy2              7.066654     -15.264855
                                                         3.428369      -5.345726
                                                         1.430064      -1.022732
                                                         0.571611      -0.123148
                                                         0.232197      -0.006983
                                                         0.076562      -0.000022
                          1       5    4dyz              7.066654     -26.439504
                                                         3.428369      -9.259069
                                                         1.430064      -1.771423
                                                         0.571611      -0.213299
                                                         0.232197      -0.012094
                                                         0.076562      -0.000037
                          1       5    4dz2              7.066654     -15.264855
                                                         3.428369      -5.345726
                                                         1.430064      -1.022732
                                                         0.571611      -0.123148
                                                         0.232197      -0.006983
                                                         0.076562      -0.000022

                          1       6    5dx2              7.066654      -5.739265
                                                         3.428369      -2.129289
                                                         1.430064      -0.700423
                                                         0.571611       0.161606
                                                         0.232197       0.043513
                                                         0.076562       0.011205
                          1       6    5dxy              7.066654      -9.940698
                                                         3.428369      -3.688037
                                                         1.430064      -1.213168
                                                         0.571611       0.279909
                                                         0.232197       0.075368
                                                         0.076562       0.019407
                          1       6    5dxz              7.066654      -9.940698
                                                         3.428369      -3.688037
                                                         1.430064      -1.213168
                                                         0.571611       0.279909
                                                         0.232197       0.075368
                                                         0.076562       0.019407
                          1       6    5dy2              7.066654      -5.739265
                                                         3.428369      -2.129289
                                                         1.430064      -0.700423
                                                         0.571611       0.161606
                                                         0.232197       0.043513
                                                         0.076562       0.011205
                          1       6    5dyz              7.066654      -9.940698
                                                         3.428369      -3.688037
                                                         1.430064      -1.213168
                                                         0.571611       0.279909
                                                         0.232197       0.075368
                                                         0.076562       0.019407
                          1       6    5dz2              7.066654      -5.739265
                                                         3.428369      -2.129289
                                                         1.430064      -0.700423
                                                         0.571611       0.161606
                                                         0.232197       0.043513
                                                         0.076562       0.011205

                          1       7    5fx3              7.066654       0.705879
                                                         3.428369      -0.273976
                                                         1.430064       0.113667
                                                         0.571611       0.132480
                                                         0.232197       0.012437
                                                         0.076562       0.003241
                          1       7    5fx2y             7.066654       1.578393
                                                         3.428369      -0.612629
                                                         1.430064       0.254167
                                                         0.571611       0.296234
                                                         0.232197       0.027811
                                                         0.076562       0.007246
                          1       7    5fx2z             7.066654       1.578393
                                                         3.428369      -0.612629
                                                         1.430064       0.254167
                                                         0.571611       0.296234
                                                         0.232197       0.027811
                                                         0.076562       0.007246
                          1       7    5fxy2             7.066654       1.578393
                                                         3.428369      -0.612629
                                                         1.430064       0.254167
                                                         0.571611       0.296234
                                                         0.232197       0.027811
                                                         0.076562       0.007246
                          1       7    5fxyz             7.066654       2.733856
                                                         3.428369      -1.061105
                                                         1.430064       0.440230
                                                         0.571611       0.513092
                                                         0.232197       0.048170
                                                         0.076562       0.012551
                          1       7    5fxz2             7.066654       1.578393
                                                         3.428369      -0.612629
                                                         1.430064       0.254167
                                                         0.571611       0.296234
                                                         0.232197       0.027811
                                                         0.076562       0.007246
                          1       7    5fy3              7.066654       0.705879
                                                         3.428369      -0.273976
                                                         1.430064       0.113667
                                                         0.571611       0.132480
                                                         0.232197       0.012437
                                                         0.076562       0.003241
                          1       7    5fy2z             7.066654       1.578393
                                                         3.428369      -0.612629
                                                         1.430064       0.254167
                                                         0.571611       0.296234
                                                         0.232197       0.027811
                                                         0.076562       0.007246
                          1       7    5fyz2             7.066654       1.578393
                                                         3.428369      -0.612629
                                                         1.430064       0.254167
                                                         0.571611       0.296234
                                                         0.232197       0.027811
                                                         0.076562       0.007246
                          1       7    5fz3              7.066654       0.705879
                                                         3.428369      -0.273976
                                                         1.430064       0.113667
                                                         0.571611       0.132480
                                                         0.232197       0.012437
                                                         0.076562       0.003241

     GTH Potential information for                                   GTH-PBE-q13

       Description:                       Goedecker-Teter-Hutter pseudopotential
                                           Goedecker et al., PRB 54, 1703 (1996)
                                          Hartwigsen et al., PRB 58, 3641 (1998)
                                                      Krack, TCA 114, 145 (2005)

       Gaussian exponent of the core charge distribution:               2.082466
       Electronic configuration (s p d ...):                           2   1  10

       Parameters of the local part of the GTH pseudopotential:

                          rloc        C1          C2          C3          C4
                        0.490000

       Parameters of the non-local part of the GTH pseudopotential:

                   l      r(l)      h(i,j,l)

                   0    0.416777   10.475690   -4.921768    0.870706
                                   -4.921768    7.770178   -2.248152
                                    0.870706   -2.248152    1.784415
                   1    0.569627    1.777985    0.195860
                                    0.195860   -0.231744
                   2    0.238126  -16.248680

  3. Atomic kind: O                                     Number of atoms:       2

     Orbital Basis Set                                     DZVP-MOLOPT-SR-GTH-q6

       Number of orbital shell sets:                                           1
       Number of orbital shells:                                               5
       Number of primitive Cartesian functions:                                5
       Number of Cartesian basis functions:                                   14
       Number of spherical basis functions:                                   13
       Norm type:                                                              2

       Normalised Cartesian orbitals:

                        Set   Shell   Orbital            Exponent    Coefficient

                          1       1    2s               10.389228       0.396646
                                                         3.849621       0.208811
                                                         1.388401      -0.301641
                                                         0.496955      -0.274061
                                                         0.162492      -0.033677

                          1       2    3s               10.389228       0.303673
                                                         3.849621       0.240943
                                                         1.388401      -0.313066
                                                         0.496955      -0.043055
                                                         0.162492       0.213991

                          1       3    3px              10.389228      -1.530415
                                                         3.849621      -1.371928
                                                         1.388401      -0.761951
                                                         0.496955      -0.253695
                                                         0.162492      -0.035541
                          1       3    3py              10.389228      -1.530415
                                                         3.849621      -1.371928
                                                         1.388401      -0.761951
                                                         0.496955      -0.253695
                                                         0.162492      -0.035541
                          1       3    3pz              10.389228      -1.530415
                                                         3.849621      -1.371928
                                                         1.388401      -0.761951
                                                         0.496955      -0.253695
                                                         0.162492      -0.035541

                          1       4    4px              10.389228      -0.565392
                                                         3.849621      -0.038231
                                                         1.388401      -0.382373
                                                         0.496955       0.179070
                                                         0.162492       0.122714
                          1       4    4py              10.389228      -0.565392
                                                         3.849621      -0.038231
                                                         1.388401      -0.382373
                                                         0.496955       0.179070
                                                         0.162492       0.122714
                          1       4    4pz              10.389228      -0.565392
                                                         3.849621      -0.038231
                                                         1.388401      -0.382373
                                                         0.496955       0.179070
                                                         0.162492       0.122714

                          1       5    4dx2             10.389228       1.867377
                                                         3.849621       0.670994
                                                         1.388401       1.353441
                                                         0.496955       0.273538
                                                         0.162492       0.006620
                          1       5    4dxy             10.389228       3.234392
                                                         3.849621       1.162195
                                                         1.388401       2.344229
                                                         0.496955       0.473781
                                                         0.162492       0.011466
                          1       5    4dxz             10.389228       3.234392
                                                         3.849621       1.162195
                                                         1.388401       2.344229
                                                         0.496955       0.473781
                                                         0.162492       0.011466
                          1       5    4dy2             10.389228       1.867377
                                                         3.849621       0.670994
                                                         1.388401       1.353441
                                                         0.496955       0.273538
                                                         0.162492       0.006620
                          1       5    4dyz             10.389228       3.234392
                                                         3.849621       1.162195
                                                         1.388401       2.344229
                                                         0.496955       0.473781
                                                         0.162492       0.011466
                          1       5    4dz2             10.389228       1.867377
                                                         3.849621       0.670994
                                                         1.388401       1.353441
                                                         0.496955       0.273538
                                                         0.162492       0.006620

     GTH Potential information for                                    GTH-PBE-q6

       Description:                       Goedecker-Teter-Hutter pseudopotential
                                           Goedecker et al., PRB 54, 1703 (1996)
                                          Hartwigsen et al., PRB 58, 3641 (1998)
                                                      Krack, TCA 114, 145 (2005)

       Gaussian exponent of the core charge distribution:               8.360253
       Electronic configuration (s p d ...):                               2   4

       Parameters of the local part of the GTH pseudopotential:

                          rloc        C1          C2          C3          C4
                        0.244554  -16.667215    2.487311

       Parameters of the non-local part of the GTH pseudopotential:

                   l      r(l)      h(i,j,l)

                   0    0.220956   18.337458
                   1    0.211332

  4. Atomic kind: H                                     Number of atoms:       8

     Orbital Basis Set                                     DZVP-MOLOPT-SR-GTH-q1

       Number of orbital shell sets:                                           1
       Number of orbital shells:                                               3
       Number of primitive Cartesian functions:                                5
       Number of Cartesian basis functions:                                    5
       Number of spherical basis functions:                                    5
       Norm type:                                                              2

       Normalised Cartesian orbitals:

                        Set   Shell   Orbital            Exponent    Coefficient

                          1       1    2s               10.068468      -0.133023
                                                         2.680223      -0.177618
                                                         0.791502      -0.258419
                                                         0.239116      -0.107525
                                                         0.082193      -0.014019

                          1       2    3s               10.068468       0.344673
                                                         2.680223       1.819821
                                                         0.791502      -0.999069
                                                         0.239116       0.017430
                                                         0.082193       0.082660

                          1       3    3px              10.068468       0.155326
                                                         2.680223       0.367157
                                                         0.791502       0.311480
                                                         0.239116       0.080105
                                                         0.082193       0.033440
                          1       3    3py              10.068468       0.155326
                                                         2.680223       0.367157
                                                         0.791502       0.311480
                                                         0.239116       0.080105
                                                         0.082193       0.033440
                          1       3    3pz              10.068468       0.155326
                                                         2.680223       0.367157
                                                         0.791502       0.311480
                                                         0.239116       0.080105
                                                         0.082193       0.033440

     GTH Potential information for                                    GTH-PBE-q1

       Description:                       Goedecker-Teter-Hutter pseudopotential
                                           Goedecker et al., PRB 54, 1703 (1996)
                                          Hartwigsen et al., PRB 58, 3641 (1998)
                                                      Krack, TCA 114, 145 (2005)

       Gaussian exponent of the core charge distribution:              12.500000
       Electronic configuration (s p d ...):                                   1

       Parameters of the local part of the GTH pseudopotential:

                          rloc        C1          C2          C3          C4
                        0.200000   -4.178900    0.724463

  5. Atomic kind: C                                     Number of atoms:       2

     Orbital Basis Set                                     DZVP-MOLOPT-SR-GTH-q4

       Number of orbital shell sets:                                           1
       Number of orbital shells:                                               5
       Number of primitive Cartesian functions:                                5
       Number of Cartesian basis functions:                                   14
       Number of spherical basis functions:                                   13
       Norm type:                                                              2

       Normalised Cartesian orbitals:

                        Set   Shell   Orbital            Exponent    Coefficient

                          1       1    2s                5.605331       0.322515
                                                         2.113016       0.213043
                                                         0.769911      -0.209686
                                                         0.348157      -0.219794
                                                         0.128212      -0.022789

                          1       2    3s                5.605331       0.552234
                                                         2.113016       0.082072
                                                         0.769911       0.007843
                                                         0.348157       0.136893
                                                         0.128212       0.074283

                          1       3    3px               5.605331      -0.703879
                                                         2.113016      -0.642521
                                                         0.769911      -0.374851
                                                         0.348157      -0.139743
                                                         0.128212      -0.027849
                          1       3    3py               5.605331      -0.703879
                                                         2.113016      -0.642521
                                                         0.769911      -0.374851
                                                         0.348157      -0.139743
                                                         0.128212      -0.027849
                          1       3    3pz               5.605331      -0.703879
                                                         2.113016      -0.642521
                                                         0.769911      -0.374851
                                                         0.348157      -0.139743
                                                         0.128212      -0.027849

                          1       4    4px               5.605331      -0.480376
                                                         2.113016      -0.552894
                                                         0.769911      -0.316145
                                                         0.348157       0.210505
                                                         0.128212       0.076095
                          1       4    4py               5.605331      -0.480376
                                                         2.113016      -0.552894
                                                         0.769911      -0.316145
                                                         0.348157       0.210505
                                                         0.128212       0.076095
                          1       4    4pz               5.605331      -0.480376
                                                         2.113016      -0.552894
                                                         0.769911      -0.316145
                                                         0.348157       0.210505
                                                         0.128212       0.076095

                          1       5    4dx2              5.605331       0.640026
                                                         2.113016       0.274300
                                                         0.769911       0.446711
                                                         0.348157       0.028674
                                                         0.128212       0.029790
                          1       5    4dxy              5.605331       1.108557
                                                         2.113016       0.475102
                                                         0.769911       0.773726
                                                         0.348157       0.049666
                                                         0.128212       0.051599
                          1       5    4dxz              5.605331       1.108557
                                                         2.113016       0.475102
                                                         0.769911       0.773726
                                                         0.348157       0.049666
                                                         0.128212       0.051599
                          1       5    4dy2              5.605331       0.640026
                                                         2.113016       0.274300
                                                         0.769911       0.446711
                                                         0.348157       0.028674
                                                         0.128212       0.029790
                          1       5    4dyz              5.605331       1.108557
                                                         2.113016       0.475102
                                                         0.769911       0.773726
                                                         0.348157       0.049666
                                                         0.128212       0.051599
                          1       5    4dz2              5.605331       0.640026
                                                         2.113016       0.274300
                                                         0.769911       0.446711
                                                         0.348157       0.028674
                                                         0.128212       0.029790

     GTH Potential information for                                    GTH-PBE-q4

       Description:                       Goedecker-Teter-Hutter pseudopotential
                                           Goedecker et al., PRB 54, 1703 (1996)
                                          Hartwigsen et al., PRB 58, 3641 (1998)
                                                      Krack, TCA 114, 145 (2005)

       Gaussian exponent of the core charge distribution:               4.364419
       Electronic configuration (s p d ...):                               2   2

       Parameters of the local part of the GTH pseudopotential:

                          rloc        C1          C2          C3          C4
                        0.338471   -8.803674    1.339211

       Parameters of the non-local part of the GTH pseudopotential:

                   l      r(l)      h(i,j,l)

                   0    0.302576    9.622487
                   1    0.291507


 MOLECULE KIND INFORMATION


 All atoms are their own molecule, skipping detailed information


 TOTAL NUMBERS AND MAXIMUM NUMBERS

  Total number of            - Atomic kinds:                                   5
                             - Atoms:                                        212
                             - Shell sets:                                   212
                             - Shells:                                      1244
                             - Primitive Cartesian functions:               1160
                             - Cartesian basis functions:                   4496
                             - Spherical basis functions:                   3892

  Maximum angular momentum of- Orbital basis functions:                        3
                             - Local part of the GTH pseudopotential:          2
                             - Non-local part of the GTH pseudopotential:      4


 MODULE QUICKSTEP:  ATOMIC COORDINATES IN angstrom

  Atom  Kind  Element       X           Y           Z          Z(eff)       Mass

       1     1 N    7    0.091458    2.109040    2.579764      5.00      14.0067
       2     2 Ga  31    0.104482    0.150553    3.016431     13.00      69.7230
       3     1 N    7    0.088533    0.132239    5.125543      5.00      14.0067
       4     2 Ga  31    0.064243    1.950498    5.876406     13.00      69.7230
       5     1 N    7    0.072558    1.971794    7.865389      5.00      14.0067
       6     2 Ga  31    0.067009    0.116334    8.490481     13.00      69.7230
       7     1 N    7    0.070737    0.120792   10.467680      5.00      14.0067
       8     2 Ga  31    0.068497    1.959221   11.121033     13.00      69.7230
       9     1 N    7    0.071338    1.942672   13.115423      5.00      14.0067
      10     2 Ga  31    0.070374    0.121845   13.913815     13.00      69.7230
      11     1 N    7    0.069856    0.122104   16.118113      5.00      14.0067
      12     2 Ga  31    0.071457    2.162548   16.529352     13.00      69.7230
      13     2 Ga  31    0.110040    3.824175    1.441571     13.00      69.7230
      14     1 N    7   -1.395727    4.690656    2.535154      5.00      14.0067
      15     2 Ga  31   -1.603359    2.839649    3.318305     13.00      69.7230
      16     1 N    7   -1.534349    2.906335    5.297697      5.00      14.0067
      17     2 Ga  31   -1.569585    4.772552    5.853242     13.00      69.7230
      18     1 N    7   -1.544751    4.769448    7.849049      5.00      14.0067
      19     2 Ga  31   -1.532635    2.912103    8.489389     13.00      69.7230
      20     1 N    7   -1.526643    2.914129   10.483803      5.00      14.0067
      21     2 Ga  31   -1.552235    4.773205   11.118404     13.00      69.7230
      22     1 N    7   -1.567286    4.783256   13.113330      5.00      14.0067
      23     2 Ga  31   -1.525481    2.914421   13.669408     13.00      69.7230
      24     1 N    7   -1.552870    2.899268   15.632972      5.00      14.0067
      25     2 Ga  31   -1.377920    4.673724   16.529141     13.00      69.7230
      26     1 N    7    0.063724    3.832520   17.664842      5.00      14.0067
      27     1 N    7   -3.135508    7.658977    2.563527      5.00      14.0067
      28     2 Ga  31   -3.119518    5.692475    2.878036     13.00      69.7230
      29     1 N    7   -3.138979    5.684078    5.060858      5.00      14.0067
      30     2 Ga  31   -3.149009    7.513726    5.833039     13.00      69.7230
      31     1 N    7   -3.142954    7.536488    7.835787      5.00      14.0067
      32     2 Ga  31   -3.145189    5.692828    8.488687     13.00      69.7230
      33     1 N    7   -3.144357    5.692919   10.465318      5.00      14.0067
      34     2 Ga  31   -3.145851    7.531583   11.116707     13.00      69.7230
      35     1 N    7   -3.144147    7.513713   13.112447      5.00      14.0067
      36     2 Ga  31   -3.143725    5.693251   13.913816     13.00      69.7230
      37     1 N    7   -3.145202    5.692471   16.118412      5.00      14.0067
      38     2 Ga  31   -3.144031    7.730172   16.527424     13.00      69.7230
      39     2 Ga  31   -3.180266    9.395162    1.312502     13.00      69.7230
      40     1 N    7   -4.644496   10.293684    2.590182      5.00      14.0067
      41     2 Ga  31   -4.834614    8.444457    3.290640     13.00      69.7230
      42     1 N    7   -4.749728    8.479207    5.281343      5.00      14.0067
      43     2 Ga  31   -4.777129   10.339230    5.865317     13.00      69.7230
      44     1 N    7   -4.756996   10.338218    7.857804      5.00      14.0067
      45     2 Ga  31   -4.746914    8.476573    8.474854     13.00      69.7230
      46     1 N    7   -4.742275    8.481265   10.474284      5.00      14.0067
      47     2 Ga  31   -4.771119   10.339058   11.118958     13.00      69.7230
      48     1 N    7   -4.784457   10.352063   13.114344      5.00      14.0067
      49     2 Ga  31   -4.741251    8.483924   13.669559     13.00      69.7230
      50     1 N    7   -4.768083    8.468874   15.633777      5.00      14.0067
      51     2 Ga  31   -4.596542   10.245508   16.527451     13.00      69.7230
      52     1 N    7   -3.152081    9.402086   17.661827      5.00      14.0067
      53     1 N    7    3.278922    1.967040    2.667637      5.00      14.0067
      54     2 Ga  31    3.290238    0.113549    3.379177     13.00      69.7230
      55     1 N    7    3.289709    0.136011    5.318449      5.00      14.0067
      56     2 Ga  31    3.286666    1.968820    5.980264     13.00      69.7230
      57     1 N    7    3.289546    1.976679    7.934257      5.00      14.0067
      58     2 Ga  31    3.286961    0.102554    8.509070     13.00      69.7230
      59     1 N    7    3.287566    0.107845   10.495921      5.00      14.0067
      60     2 Ga  31    3.287555    1.978299   11.085599     13.00      69.7230
      61     1 N    7    3.287778    1.979110   13.055818      5.00      14.0067
      62     2 Ga  31    3.288474    0.107756   13.670279     13.00      69.7230
      63     1 N    7    3.289921    0.140646   15.633300      5.00      14.0067
      64     2 Ga  31    3.288108    1.979933   15.909294     13.00      69.7230
      65     1 N    7    1.565995    4.692870    2.628394      5.00      14.0067
      66     2 Ga  31    1.691834    2.880585    3.392907     13.00      69.7230
      67     1 N    7    1.700317    2.894293    5.329154      5.00      14.0067
      68     2 Ga  31    1.703445    4.776243    5.879173     13.00      69.7230
      69     1 N    7    1.687103    4.767032    7.861780      5.00      14.0067
      70     2 Ga  31    1.666464    2.913069    8.509543     13.00      69.7230
      71     1 N    7    1.668547    2.914318   10.495757      5.00      14.0067
      72     2 Ga  31    1.694913    4.776590   11.120324     13.00      69.7230
      73     1 N    7    1.711692    4.784223   13.114045      5.00      14.0067
      74     2 Ga  31    1.667660    2.915565   13.670995     13.00      69.7230
      75     1 N    7    1.696658    2.900726   15.633175      5.00      14.0067
      76     2 Ga  31    1.515128    4.670289   16.530694     13.00      69.7230
      77     1 N    7    0.074665    7.550708    2.708975      5.00      14.0067
      78     2 Ga  31    0.072407    5.714480    3.382960     13.00      69.7230
      79     1 N    7    0.070859    5.706120    5.316857      5.00      14.0067
      80     2 Ga  31    0.093219    7.564809    5.918320     13.00      69.7230
      81     1 N    7    0.077182    7.553264    7.891092      5.00      14.0067
      82     2 Ga  31    0.068429    5.685868    8.488291     13.00      69.7230
      83     1 N    7    0.070954    5.681425   10.481183      5.00      14.0067
      84     2 Ga  31    0.072596    7.549914   11.075479     13.00      69.7230
      85     1 N    7    0.071917    7.549828   13.047738      5.00      14.0067
      86     2 Ga  31    0.072136    5.680937   13.670423     13.00      69.7230
      87     1 N    7    0.073284    5.712340   15.632514      5.00      14.0067
      88     2 Ga  31    0.072437    7.550580   15.910617     13.00      69.7230
      89     1 N    7   -1.641553   10.287256    2.577027      5.00      14.0067
      90     2 Ga  31   -1.529115    8.483987    3.343116     13.00      69.7230
      91     1 N    7   -1.522670    8.474010    5.291516      5.00      14.0067
      92     2 Ga  31   -1.506731   10.349875    5.873259     13.00      69.7230
      93     1 N    7   -1.532206   10.335799    7.861962      5.00      14.0067
      94     2 Ga  31   -1.546464    8.477465    8.486722     13.00      69.7230
      95     1 N    7   -1.547108    8.481232   10.480593      5.00      14.0067
      96     2 Ga  31   -1.518299   10.340403   11.119606     13.00      69.7230
      97     1 N    7   -1.503422   10.352305   13.114075      5.00      14.0067
      98     2 Ga  31   -1.546704    8.484161   13.669822     13.00      69.7230
      99     1 N    7   -1.519738    8.470463   15.632764      5.00      14.0067
     100     2 Ga  31   -1.698720   10.241089   16.528118     13.00      69.7230
     101     1 N    7    6.484619    2.109866    2.569687      5.00      14.0067
     102     2 Ga  31    6.507701    0.101590    2.956192     13.00      69.7230
     103     1 N    7    6.483187    0.135707    5.126183      5.00      14.0067
     104     2 Ga  31    6.515314    1.946933    5.872172     13.00      69.7230
     105     1 N    7    6.504896    1.973665    7.861745      5.00      14.0067
     106     2 Ga  31    6.510056    0.117136    8.488595     13.00      69.7230
     107     1 N    7    6.505170    0.120805   10.466432      5.00      14.0067
     108     2 Ga  31    6.507717    1.959725   11.119891     13.00      69.7230
     109     1 N    7    6.505238    1.941773   13.115026      5.00      14.0067
     110     2 Ga  31    6.505212    0.120977   13.915320     13.00      69.7230
     111     1 N    7    6.503641    0.121667   16.119428      5.00      14.0067
     112     2 Ga  31    6.504918    2.160032   16.527500     13.00      69.7230
     113     2 Ga  31    6.477935    3.858265    1.588485     13.00      69.7230
     114     1 N    7    5.011235    4.698914    2.652637      5.00      14.0067
     115     2 Ga  31    4.854705    2.862244    3.397398     13.00      69.7230
     116     1 N    7    4.879044    2.892895    5.322391      5.00      14.0067
     117     2 Ga  31    4.882649    4.779319    5.870790     13.00      69.7230
     118     1 N    7    4.889055    4.765236    7.856398      5.00      14.0067
     119     2 Ga  31    4.911412    2.914230    8.508976     13.00      69.7230
     120     1 N    7    4.907255    2.914229   10.495542      5.00      14.0067
     121     2 Ga  31    4.883217    4.777890   11.117539     13.00      69.7230
     122     1 N    7    4.864754    4.784714   13.113312      5.00      14.0067
     123     2 Ga  31    4.908669    2.915261   13.669855     13.00      69.7230
     124     1 N    7    4.880853    2.899504   15.634415      5.00      14.0067
     125     2 Ga  31    5.051943    4.675787   16.528211     13.00      69.7230
     126     1 N    7    6.497486    3.833016   17.661261      5.00      14.0067
     127     1 N    7    3.283768    7.526860    2.586572      5.00      14.0067
     128     1 N    7    3.290668    5.672824    5.118980      5.00      14.0067
     129     2 Ga  31    3.292812    7.542034    5.813604     13.00      69.7230
     130     1 N    7    3.287509    7.542012    7.821665      5.00      14.0067
     131     2 Ga  31    3.289837    5.701132    8.488581     13.00      69.7230
     132     1 N    7    3.288169    5.694856   10.464586      5.00      14.0067
     133     2 Ga  31    3.289151    7.533860   11.116854     13.00      69.7230
     134     1 N    7    3.288233    7.513671   13.112045      5.00      14.0067
     135     2 Ga  31    3.287344    5.694181   13.916127     13.00      69.7230
     136     1 N    7    3.286552    5.693315   16.119051      5.00      14.0067
     137     2 Ga  31    3.288153    7.733112   16.529413     13.00      69.7230
     138     2 Ga  31    4.148832   10.913567    0.685309     13.00      69.7230
     139     1 N    7    1.713936   10.348793    2.574964      5.00      14.0067
     140     2 Ga  31    1.697570    8.563890    3.209439     13.00      69.7230
     141     1 N    7    1.676937    8.465416    5.209714      5.00      14.0067
     142     2 Ga  31    1.654201   10.338847    5.816441     13.00      69.7230
     143     1 N    7    1.668863   10.331586    7.830171      5.00      14.0067
     144     2 Ga  31    1.694750    8.485278    8.482884     13.00      69.7230
     145     1 N    7    1.691620    8.482656   10.478115      5.00      14.0067
     146     2 Ga  31    1.667828   10.342965   11.114014     13.00      69.7230
     147     1 N    7    1.649075   10.353034   13.110653      5.00      14.0067
     148     2 Ga  31    1.691228    8.484979   13.668718     13.00      69.7230
     149     1 N    7    1.663803    8.469683   15.632439      5.00      14.0067
     150     2 Ga  31    1.838855   10.244108   16.529543     13.00      69.7230
     151     1 N    7    3.281207    9.402601   17.664416      5.00      14.0067
     152     1 N    7    9.748484    1.936632    2.651362      5.00      14.0067
     153     2 Ga  31    9.669385    0.142822    3.303011     13.00      69.7230
     154     1 N    7    9.718481    0.119807    5.292910      5.00      14.0067
     155     2 Ga  31    9.723974    1.967638    5.906824     13.00      69.7230
     156     1 N    7    9.719028    1.978300    7.890912      5.00      14.0067
     157     2 Ga  31    9.718900    0.105913    8.467168     13.00      69.7230
     158     1 N    7    9.719543    0.108870   10.470298      5.00      14.0067
     159     2 Ga  31    9.720001    1.975911   11.072656     13.00      69.7230
     160     1 N    7    9.720438    1.978482   13.046756      5.00      14.0067
     161     2 Ga  31    9.720947    0.109256   13.668375     13.00      69.7230
     162     1 N    7    9.721768    0.141304   15.630983      5.00      14.0067
     163     2 Ga  31    9.720764    1.979701   15.910277     13.00      69.7230
     164     1 N    7    8.003113    4.702724    2.569134      5.00      14.0067
     165     2 Ga  31    8.230615    2.826669    3.306172     13.00      69.7230
     166     1 N    7    8.113155    2.901737    5.278477      5.00      14.0067
     167     2 Ga  31    8.143013    4.774205    5.836528     13.00      69.7230
     168     1 N    7    8.123326    4.768027    7.838422      5.00      14.0067
     169     2 Ga  31    8.108358    2.914760    8.488252     13.00      69.7230
     170     1 N    7    8.102481    2.914785   10.482543      5.00      14.0067
     171     2 Ga  31    8.126502    4.774416   11.115489     13.00      69.7230
     172     1 N    7    8.144044    4.783630   13.111423      5.00      14.0067
     173     2 Ga  31    8.102576    2.914783   13.668246     13.00      69.7230
     174     1 N    7    8.128977    2.901026   15.631802      5.00      14.0067
     175     2 Ga  31    7.950739    4.671611   16.528293     13.00      69.7230
     176     1 N    7    6.499179    7.571352    2.638000      5.00      14.0067
     177     2 Ga  31    6.506694    5.845516    3.349294     13.00      69.7230
     178     1 N    7    6.506969    5.697221    5.306569      5.00      14.0067
     179     2 Ga  31    6.483366    7.574982    5.876700     13.00      69.7230
     180     1 N    7    6.497235    7.554798    7.869471      5.00      14.0067
     181     2 Ga  31    6.509064    5.690130    8.472566     13.00      69.7230
     182     1 N    7    6.505427    5.682495   10.472020      5.00      14.0067
     183     2 Ga  31    6.503027    7.550079   11.070750     13.00      69.7230
     184     1 N    7    6.504166    7.550083   13.045031      5.00      14.0067
     185     2 Ga  31    6.505286    5.681523   13.669025     13.00      69.7230
     186     1 N    7    6.506206    5.712052   15.632394      5.00      14.0067
     187     2 Ga  31    6.503969    7.551166   15.911862     13.00      69.7230
     188     1 N    7    4.864750   10.382665    2.538628      5.00      14.0067
     189     2 Ga  31    4.952461    8.514415    3.156961     13.00      69.7230
     190     1 N    7    4.882764    8.487097    5.197003      5.00      14.0067
     191     2 Ga  31    4.913083   10.338734    5.821425     13.00      69.7230
     192     1 N    7    4.905956   10.335327    7.832582      5.00      14.0067
     193     2 Ga  31    4.885139    8.484271    8.474582     13.00      69.7230
     194     1 N    7    4.884312    8.482794   10.473156      5.00      14.0067
     195     2 Ga  31    4.907975   10.342200   11.112070     13.00      69.7230
     196     1 N    7    4.926963   10.353078   13.108985      5.00      14.0067
     197     2 Ga  31    4.885535    8.485601   13.667540     13.00      69.7230
     198     1 N    7    4.912842    8.471176   15.630339      5.00      14.0067
     199     2 Ga  31    4.731805   10.240866   16.530303     13.00      69.7230
     200     3 O    8    0.758868    3.710588   -0.276521      6.00      15.9994
     201     4 H    1    2.562357    3.384144    0.186639      1.00       1.0079
     202     5 C    6    0.159438    2.769328   -1.184072      4.00      12.0107
     203     4 H    1    0.014868    1.776572   -0.723463      1.00       1.0079
     204     4 H    1   -0.814853    3.127866   -1.550183      1.00       1.0079
     205     4 H    1    0.836178    2.655507   -2.043264      1.00       1.0079
     206     2 Ga  31    3.270282    5.604246    3.047727     13.00      69.7230
     207     3 O    8    3.452890    3.065693    0.480946      6.00      15.9994
     208     4 H    1    0.009895    7.507881    1.684952      1.00       1.0079
     209     5 C    6    3.290101    1.841578    1.172443      4.00      12.0107
     210     4 H    1    4.142708    1.202961    0.896654      1.00       1.0079
     211     4 H    1    3.280258    7.591059    1.585821      1.00       1.0079
     212     4 H    1    2.359092    1.340946    0.862879      1.00       1.0079




 SCF PARAMETERS         Density guess:                                    ATOMIC
                        --------------------------------------------------------
                        max_scf:                                              80
                        max_scf_history:                                       0
                        max_diis:                                              4
                        --------------------------------------------------------
                        eps_scf:                                        5.00E-06
                        eps_scf_history:                                0.00E+00
                        eps_diis:                                       1.00E-01
                        eps_eigval:                                     1.00E-05
                        --------------------------------------------------------
                        level_shift [a.u.]:                                 0.00
                        --------------------------------------------------------
                        Outer loop SCF in use 
                        No variables optimised in outer loop
                        eps_scf                                         5.00E-06
                        max_scf                                                4
                        No outer loop optimization
                        step_size                                       5.00E-01

 PW_GRID| Information for grid number                                          1
 PW_GRID| Grid distributed over                                    80 processors
 PW_GRID| Real space group dimensions                                    80    1
 PW_GRID| the grid is blocked:                                                NO
 PW_GRID| Cutoff [a.u.]                                                    600.0
 PW_GRID| spherical cutoff:                                                   NO
 PW_GRID|   Bounds   1           -144     143                Points:         288
 PW_GRID|   Bounds   2           -144     143                Points:         288
 PW_GRID|   Bounds   3           -337     337                Points:         675
 PW_GRID| Volume element (a.u.^3)  0.5630E-03     Volume (a.u.^3)     31519.8467
 PW_GRID| Grid span                                                    FULLSPACE
 PW_GRID|   Distribution                         Average         Max         Min
 PW_GRID|   G-Vectors                           699840.0      699840      699840
 PW_GRID|   G-Rays                                2430.0        2430        2430
 PW_GRID|   Real Space Points                   699840.0      777600      583200

 PW_GRID| Information for grid number                                          2
 PW_GRID| Grid distributed over                                    80 processors
 PW_GRID| Real space group dimensions                                    80    1
 PW_GRID| the grid is blocked:                                                NO
 PW_GRID| Cutoff [a.u.]                                                    200.0
 PW_GRID| spherical cutoff:                                                   NO
 PW_GRID|   Bounds   1            -80      79                Points:         160
 PW_GRID|   Bounds   2            -80      79                Points:         160
 PW_GRID|   Bounds   3           -200     199                Points:         400
 PW_GRID| Volume element (a.u.^3)  0.3078E-02     Volume (a.u.^3)     31519.8467
 PW_GRID| Grid span                                                    FULLSPACE
 PW_GRID|   Distribution                         Average         Max         Min
 PW_GRID|   G-Vectors                           128000.0      128160      127840
 PW_GRID|   G-Rays                                 800.0         801         799
 PW_GRID|   Real Space Points                   128000.0      128000      128000

 PW_GRID| Information for grid number                                          3
 PW_GRID| Grid distributed over                                    80 processors
 PW_GRID| Real space group dimensions                                    80    1
 PW_GRID| the grid is blocked:                                                NO
 PW_GRID| Cutoff [a.u.]                                                     66.7
 PW_GRID| spherical cutoff:                                                   NO
 PW_GRID|   Bounds   1            -48      47                Points:          96
 PW_GRID|   Bounds   2            -48      47                Points:          96
 PW_GRID|   Bounds   3           -112     112                Points:         225
 PW_GRID| Volume element (a.u.^3)  0.1520E-01     Volume (a.u.^3)     31519.8467
 PW_GRID| Grid span                                                    FULLSPACE
 PW_GRID|   Distribution                         Average         Max         Min
[...]
 flops   991 x    50 x    64         513683660800     100.0%      0.0%      0.0%
 flops   991 x    64 x    50         513683660800     100.0%      0.0%      0.0%
 flops   242 x    64 x   178         653178273792     100.0%      0.0%      0.0%
 flops   242 x    64 x   183         671525978112     100.0%      0.0%      0.0%
 flops    25 x    18 x    13         672946372800     100.0%      0.0%      0.0%
 flops    13 x    18 x    25         672946372800     100.0%      0.0%      0.0%
 flops   973 x    32 x    50         693485900800     100.0%      0.0%      0.0%
 flops   973 x    50 x    32         693485900800     100.0%      0.0%      0.0%
 flops   242 x    64 x   195         715560468480     100.0%      0.0%      0.0%
 flops   955 x    32 x   178         766864327680     100.0%      0.0%      0.0%
 flops   242 x    32 x    32         773906862080     100.0%      0.0%      0.0%
 flops   955 x    32 x   183         788405460480     100.0%      0.0%      0.0%
 flops   991 x    32 x   178         795772302336     100.0%      0.0%      0.0%
 flops   991 x    32 x   183         818125456896     100.0%      0.0%      0.0%
 flops   955 x    32 x   195         840104179200     100.0%      0.0%      0.0%
 flops   991 x    32 x   195         871773027840     100.0%      0.0%      0.0%
 flops     5 x    32 x    25         931939904000     100.0%      0.0%      0.0%
 flops    25 x    32 x     5         931939904000     100.0%      0.0%      0.0%
 flops    25 x    25 x    50         970862500000     100.0%      0.0%      0.0%
 flops   973 x    64 x    50        1008706764800     100.0%      0.0%      0.0%
 flops   973 x    50 x    64        1008706764800     100.0%      0.0%      0.0%
 flops   955 x    64 x   178        1115439022080     100.0%      0.0%      0.0%
 flops   242 x    64 x    32        1125682708480     100.0%      0.0%      0.0%
 flops   242 x    32 x    64        1125682708480     100.0%      0.0%      0.0%
 flops   955 x    64 x   183        1146771578880     100.0%      0.0%      0.0%
 flops   991 x    64 x   178        1157486985216     100.0%      0.0%      0.0%
 flops   991 x    64 x   183        1190000664576     100.0%      0.0%      0.0%
 flops   955 x    64 x   195        1221969715200     100.0%      0.0%      0.0%
 flops   224 x    32 x   178        1246976704512     100.0%      0.0%      0.0%
 flops   991 x    64 x   195        1268033495040     100.0%      0.0%      0.0%
 flops    25 x    18 x    25        1277325000000     100.0%      0.0%      0.0%
 flops   224 x    32 x   183        1282004140032     100.0%      0.0%      0.0%
 flops   224 x    32 x   195        1366069985280     100.0%      0.0%      0.0%
 flops   973 x    32 x   178        1562636630016     100.0%      0.0%      0.0%
 flops   973 x    32 x   183        1606530917376     100.0%      0.0%      0.0%
 flops   242 x    64 x    64        1637356666880     100.0%      0.0%      0.0%
 flops   973 x    32 x   195        1711877207040     100.0%      0.0%      0.0%
 flops    13 x    13 x    32        1804287696640     100.0%      0.0%      0.0%
 flops   224 x    64 x   178        1813784297472     100.0%      0.0%      0.0%
 flops   224 x    64 x   183        1864733294592     100.0%      0.0%      0.0%
 flops   224 x    64 x   195        1987010887680     100.0%      0.0%      0.0%
 flops   224 x    32 x    32        2149030625280     100.0%      0.0%      0.0%
 flops   973 x    64 x   178        2272926007296     100.0%      0.0%      0.0%
 flops   973 x    64 x   183        2336772243456     100.0%      0.0%      0.0%
 flops   955 x    32 x    32        2395911823360     100.0%      0.0%      0.0%
 flops   991 x    32 x    32        2486228918272     100.0%      0.0%      0.0%
 flops   973 x    64 x   195        2490003210240     100.0%      0.0%      0.0%
 flops    13 x    13 x    64        2624418467840     100.0%      0.0%      0.0%
 flops   224 x    32 x    64        3125862727680     100.0%      0.0%      0.0%
 flops   224 x    64 x    32        3125862727680     100.0%      0.0%      0.0%
 flops   955 x    32 x    64        3484962652160     100.0%      0.0%      0.0%
 flops   955 x    64 x    32        3484962652160     100.0%      0.0%      0.0%
 flops    13 x    25 x    32        3562049920000     100.0%      0.0%      0.0%
 flops    25 x    13 x    32        3568479657600     100.0%      0.0%      0.0%
 flops   991 x    32 x    64        3616332972032     100.0%      0.0%      0.0%
 flops   991 x    64 x    32        3616332972032     100.0%      0.0%      0.0%
 flops   224 x    64 x    64        4546709422080     100.0%      0.0%      0.0%
 flops   973 x    32 x    32        4882140741632     100.0%      0.0%      0.0%
 flops   955 x    64 x    64        5069036584960     100.0%      0.0%      0.0%
 flops    13 x    25 x    64        5181163520000     100.0%      0.0%      0.0%
 flops    25 x    13 x    64        5190515865600     100.0%      0.0%      0.0%
 flops   991 x    64 x    64        5260120686592     100.0%      0.0%      0.0%
 flops    25 x    25 x    32        6834872000000     100.0%      0.0%      0.0%
 flops   973 x    64 x    32        7101295624192     100.0%      0.0%      0.0%
 flops   973 x    32 x    64        7101295624192     100.0%      0.0%      0.0%
 flops    25 x    25 x    64        9941632000000     100.0%      0.0%      0.0%
 flops   973 x    64 x    64       10329157271552     100.0%      0.0%      0.0%
 flops    13 x    32 x    13       16773645324800     100.0%      0.0%      0.0%
 flops    25 x    32 x    13       33497775001600     100.0%      0.0%      0.0%
 flops    13 x    32 x    25       33497775001600     100.0%      0.0%      0.0%
 flops    25 x    32 x    25       63582400000000     100.0%      0.0%      0.0%
 flops inhomo. stacks             117664249749312     100.0%      0.0%      0.0%
 flops total                       437.080362E+12     100.0%      0.0%      0.0%
 flops max/rank                      7.587818E+12     100.0%      0.0%      0.0%
 matmuls inhomo. stacks                  11880960     100.0%      0.0%      0.0%
 matmuls total                         8417952484     100.0%      0.0%      0.0%
 number of processed stacks             157277736     100.0%      0.0%      0.0%
 average stack size                                    53.5       0.0       0.0
 marketing flops                   466.279165E+12
 -------------------------------------------------------------------------------
 # multiplications                          42634
 max memory usage/rank               1.526424E+09
 # max total images/rank                        5
 # max 3D layers                                1
 # MPI messages exchanged               388822080
 MPI messages size (bytes):
  total size                        46.390252E+12
  min size                           0.000000E+00
  max size                           1.894792E+06
  average size                     119.309719E+03
 MPI breakdown and total messages size (bytes):
             size <=      128             1993480                        0
       128 < size <=     8192            52969169             433923432448
      8192 < size <=    32768           122097591            2490841110944
     32768 < size <=   131072           166759200           12107322628896
    131072 < size <=  4194304            45002640           31310243488608
   4194304 < size <= 16777216                   0                        0
  16777216 < size                               0                        0
 -------------------------------------------------------------------------------

 *** WARNING in dbcsr/mm/dbcsr_mm.F:268 :: Using a non-square number of ***
 *** MPI ranks might lead to poor performance.                          ***
 *** Used ranks: 80                                                     ***
 *** Suggested: 81 169                                                  ***

 -------------------------------------------------------------------------------
 
 MEMORY| Estimated peak process memory [MiB]                                1482

 -------------------------------------------------------------------------------
 ----                             MULTIGRID INFO                            ----
 -------------------------------------------------------------------------------
 count for grid        1:        1194563          cutoff [a.u.]          600.00
 count for grid        2:        7607221          cutoff [a.u.]          200.00
 count for grid        3:        6796290          cutoff [a.u.]           66.67
 count for grid        4:        9774459          cutoff [a.u.]           22.22
 count for grid        5:        8755408          cutoff [a.u.]            7.41
 total gridlevel count  :       34127941

 -------------------------------------------------------------------------------
 -                                                                             -
 -                         MESSAGE PASSING PERFORMANCE                         -
 -                                                                             -
 -------------------------------------------------------------------------------

 ROUTINE             CALLS      AVE VOLUME [Bytes]
 MP_Group             3372
 MP_Bcast            49243                   9063.
 MP_Allreduce       352608                    237.
 MP_Sync              1712
 MP_Alltoall        222038                5684240.
 MP_SendRecv         18328                   5920.
 MP_ISendRecv      1079772                 133520.
 MP_Wait           9458114
 MP_comm_split        1707
 MP_ISend         10901952                 113198.
 MP_IRecv         10905156                 113089.
 MP_Recv              1083                 162816.
 MP_Memory         4763310
 -------------------------------------------------------------------------------


 -------------------------------------------------------------------------------
 -                                                                             -
 -                           R E F E R E N C E S                               -
 -                                                                             -
 -------------------------------------------------------------------------------
 
 CP2K version 7.0 (Development Version), the CP2K developers group (2018).
 CP2K is freely available from https://www.cp2k.org/ .

 Schuett, Ole; Messmer, Peter; Hutter, Juerg; VandeVondele, Joost. 
 Electronic Structure Calculations on Graphics Processing Units, John Wiley & Sons, Ltd, 173-190 (2016). 
 GPU-Accelerated Sparse Matrix-Matrix Multiplication for Linear Scaling Density Functional Theory.
 http://dx.doi.org/10.1002/9781118670712.ch8


 Borstnik, U; VandeVondele, J; Weber, V; Hutter, J. 
 PARALLEL COMPUTING, 40 (5-6), 47-58 (2014). 
 Sparse matrix multiplication: The distributed block-compressed sparse
 row library.
 http://dx.doi.org/10.1016/j.parco.2014.03.012


 Hutter, J; Iannuzzi, M; Schiffmann, F; VandeVondele, J. 
 WILEY INTERDISCIPLINARY REVIEWS-COMPUTATIONAL MOLECULAR SCIENCE, 4 (1), 15-25 (2014). 
 CP2K: atomistic simulations of condensed matter systems.
 http://dx.doi.org/10.1002/wcms.1159


 Grimme, S; Ehrlich, S; Goerigk, L. 
 JOURNAL OF COMPUTATIONAL CHEMISTRY, 32, 1456 (2011). 
 Effect of the damping function in dispersion corrected density functional theory.
 http://dx.doi.org/10.1002/jcc.21759


 Grimme, S; Antony, J; Ehrlich, S; Krieg, H. 
 JOURNAL OF CHEMICAL PHYSICS, 132 (15), 154104 (2010). 
 A consistent and accurate ab initio parametrization of density
 functional dispersion correction (DFT-D) for the 94 elements H-Pu.
 http://dx.doi.org/10.1063/1.3382344


 VandeVondele, J; Hutter, J. 
 JOURNAL OF CHEMICAL PHYSICS, 127 (11), 114105 (2007). 
 Gaussian basis sets for accurate calculations on molecular systems in
 gas and condensed phases.
 http://dx.doi.org/10.1063/1.2770708


 Krack, M. 
 THEORETICAL CHEMISTRY ACCOUNTS, 114 (1-3), 145-152 (2005). 
 Pseudopotentials for H to Kr optimized for gradient-corrected
 exchange-correlation functionals.
 http://dx.doi.org/10.1007/s00214-005-0655-y


 VandeVondele, J; Krack, M; Mohamed, F; Parrinello, M; Chassaing, T;
 Hutter, J. COMPUTER PHYSICS COMMUNICATIONS, 167 (2), 103-128 (2005). 
 QUICKSTEP: Fast and accurate density functional calculations using a
 mixed Gaussian and plane waves approach.
 http://dx.doi.org/10.1016/j.cpc.2004.12.014


 Frigo, M; Johnson, SG. 
 PROCEEDINGS OF THE IEEE, 93 (2), 216-231 (2005). 
 The design and implementation of FFTW3.
 http://dx.doi.org/10.1109/JPROC.2004.840301


 Kolafa, J. 
 JOURNAL OF COMPUTATIONAL CHEMISTRY, 25 (3), 335-342 (2004). 
 Time-reversible always stable predictor-corrector method for molecular dynamics of polarizable molecules.
 http://dx.doi.org/10.1002/jcc.10385


 VandeVondele, J; Hutter, J. 
 JOURNAL OF CHEMICAL PHYSICS, 118 (10), 4365-4369 (2003). 
 An efficient orbital transformation method for electronic structure
 calculations.
 http://dx.doi.org/10.1063/1.1543154


 Hartwigsen, C; Goedecker, S; Hutter, J. 
 PHYSICAL REVIEW B, 58 (7), 3641-3662 (1998). 
 Relativistic separable dual-space Gaussian pseudopotentials from H to Rn.
 http://dx.doi.org/10.1103/PhysRevB.58.3641


 Lippert, G; Hutter, J; Parrinello, M. 
 MOLECULAR PHYSICS, 92 (3), 477-487 (1997). 
 A hybrid Gaussian and plane wave density functional scheme.
 http://dx.doi.org/10.1080/002689797170220


 Perdew, JP; Burke, K; Ernzerhof, M. 
 PHYSICAL REVIEW LETTERS, 77 (18), 3865-3868 (1996). 
 Generalized gradient approximation made simple.
 http://dx.doi.org/10.1103/PhysRevLett.77.3865


 Goedecker, S; Teter, M; Hutter, J. 
 PHYSICAL REVIEW B, 54 (3), 1703-1710 (1996). 
 Separable dual-space Gaussian pseudopotentials.
 http://dx.doi.org/10.1103/PhysRevB.54.1703


 -------------------------------------------------------------------------------
 -                                                                             -
 -                                T I M I N G                                  -
 -                                                                             -
 -------------------------------------------------------------------------------
 SUBROUTINE                       CALLS  ASD         SELF TIME        TOTAL TIME
                                MAXIMUM       AVERAGE  MAXIMUM  AVERAGE  MAXIMUM
 CP2K                                 1  1.0     0.19     0.29 20695.53 20695.56
 cp_geo_opt                           1  2.0     0.04     0.06 20694.14 20694.16
 geoopt_bfgs                          1  3.0     0.17     0.26 20694.10 20694.11
 cp_eval_at                          59  4.0     0.05     0.10 20668.18 20668.24
 qs_forces                           58  5.0     0.06     0.12 20430.28 20430.29
 qs_energies                         59  6.0     0.08     0.16 19477.79 19477.89
 scf_env_do_scf                      59  7.0     0.03     0.09 18713.10 18713.14
 scf_env_do_scf_inner_loop         1421  8.0     0.15     0.25 17418.49 17418.55
 rebuild_ks_matrix                 1479  9.9     0.01     0.01  9050.61  9052.62
 qs_ks_build_kohn_sham_matrix      1479 10.9     0.63     1.09  9050.61  9052.61
 qs_ks_update_qs_env               1482  9.0     0.02     0.04  7998.70  8000.48
 qs_rho_update_rho                 1480  9.0     0.03     0.06  7663.73  7668.28
 calculate_rho_elec                2960 10.0  3847.19  3917.91  7663.71  7668.26
 sum_up_and_integrate               798 11.8    11.97    13.33  4842.23  4843.38
 integrate_v_rspace                1596 12.8  2645.96  2729.50  4830.25  4833.15
 pw_transfer                      46292 13.4     4.97     5.81  4688.03  4711.99
 fft_wrap_pw1pw2                  43334 14.4     0.51     0.57  4664.81  4688.21
 fft_wrap_pw1pw2_600              25110 15.7   277.25   312.65  4330.51  4350.63
 fft3d_ps                         43334 16.4  1290.74  1425.38  4016.73  4053.40
 rs_pw_transfer                   23074 13.0     0.30     0.35  3647.15  3710.90
 density_rs2pw                     2960 11.0     0.22     0.25  3419.35  3506.01
 qs_vxc_create                     1479 11.9     0.06     0.09  3293.20  3293.96
 dbcsr_multiply_generic           42634 13.8     2.79     3.68  2877.75  2882.53
 mp_waitall_1                   8630386 16.7  2555.30  2649.69  2555.30  2649.69
 qs_scf_new_mos                    1421  9.0     0.01     0.03  2624.27  2626.71
 qs_scf_loop_do_ot                 1421 10.0     0.07     0.15  2624.25  2626.69
 mp_alltoall_z22v                 43334 18.4  2363.55  2624.62  2363.55  2624.62
 xc_vxc_pw_create                   798 12.8   167.03   188.93  2416.56  2416.97
 ot_scf_mini                       1421 11.0     0.28     0.52  2411.80  2413.09
 multiply_cannon                  42634 14.8    13.52    14.33  2227.11  2274.09
 xc_rho_set_and_dset_create        1479 13.9    25.88    27.68  1799.21  1827.79
 mp_waitany                      827728 14.9  1607.78  1736.27  1607.78  1736.27
 potential_pw2rs                   1596 13.8     1.26     1.39  1727.72  1730.70
 x_to_yz                          18899 18.0   204.52   232.65  1547.90  1637.88
 rs_pw_transfer_RS2PW_600          3078 13.0   609.14   683.11  1551.65  1614.93
 multiply_cannon_metrocomm3      852680 15.8     2.28     2.42  1309.35  1464.57
 init_scf_loop                       61  8.0     0.02     0.05  1292.52  1292.55
 yz_to_x                          15323 16.8   125.59   131.91  1143.66  1270.83
 ot_mini                           1421 12.0     0.02     0.05  1245.48  1247.23
 qs_ks_update_qs_env_forces          58  6.0     0.00     0.00  1065.86  1066.04
 rs_pw_transfer_PW2RS_600          1772 15.4   395.98   434.38  1000.17  1028.31
 xc_exc_calc                        681 13.0     3.32     3.74   876.58   876.96
 qs_ot_get_derivative              1480 13.0     0.02     0.04   790.70   791.99
 multiply_cannon_metrocomm1      852680 15.8     2.61     2.81   533.97   697.16
 prepare_preconditioner              61  9.0     0.00     0.00   694.85   695.04
 mp_alltoall_d11v                 41322 15.3   579.07   648.62   579.07   648.62
 make_preconditioner                122 10.0     0.01     0.03   639.98   640.06
 rs_distribute_matrix              4672 12.0     5.65    11.57   549.90   617.40
 make_full_all                      122 11.0     0.05     0.15   582.93   583.24
 qs_ot_get_p                       2964 11.9     0.03     0.10   494.41   500.50
 cp_fm_syevd                       1707 14.1     0.01     0.02   487.83   488.78
 init_scf_run                        59  7.0     0.00     0.01   475.90   475.92
 scf_env_initial_rho_setup           59  8.0     0.00     0.00   475.90   475.91
 cp_fm_redistribute_end            1707 15.1   173.23   470.32   175.95   472.54
 apply_preconditioner_dbcsr        1602 14.0     0.00     0.01   470.82   471.79
 apply_all                         1602 15.0     0.19     0.27   470.81   471.78
 wfi_extrapolate                     59  9.0     0.04     0.10   468.84   468.86
 cp_fm_syevd_base                  1707 14.7   294.47   451.21   294.47   451.21
 ot_new_cg_direction                740 13.0     0.02     0.05   444.58   444.68
 mp_sum_d                         52048 14.6   336.80   428.62   336.80   428.62
 -------------------------------------------------------------------------------

 The number of warnings for this run is : 1
 
 -------------------------------------------------------------------------------
  **** **** ******  **  PROGRAM ENDED AT                 2019-07-13 21:40:23.181
 ***** ** ***  *** **   PROGRAM RAN ON            blg7528.int.ets1.calculquebec.
 **    ****   ******    PROGRAM RAN BY                                       rzk
 ***** **    ** ** **   PROGRAM PROCESS ID                                 11335
  **** **  *******  **  PROGRAM STOPPED IN /lustre04/scratch/rzk/rzk/GaN-carbene
                                           /443-adatoms-both-2x2/09-BondBreaking
                                           -CH/02-0401-CH-to-NTop-PES
