 DBCSR| Multiplication driver                                               BLAS
 DBCSR| Multrec recursion limit                                              512
 DBCSR| Multiplication stack size                                           1000
 DBCSR| Maximum elements for images                                    UNLIMITED
 DBCSR| Multiplicative factor virtual images                                   1
 DBCSR| Multiplication size stacks                                             3
 DBCSR| Number of 3D layers                                               SINGLE
 DBCSR| Use MPI memory allocation                                              T
 DBCSR| Use RMA algorithm                                                      F
 DBCSR| Use Communication thread                                               T
 DBCSR| Communication thread load                                             87


  **** **** ******  **  PROGRAM STARTED AT               2019-07-12 11:40:40.121
 ***** ** ***  *** **   PROGRAM STARTED ON        blg9231.int.ets1.calculquebec.
 **    ****   ******    PROGRAM STARTED BY                                   rzk
 ***** **    ** ** **   PROGRAM PROCESS ID                                139966
  **** **  *******  **  PROGRAM STARTED IN /lustre04/scratch/rzk/rzk/GaN-carbene
                                           /443-adatoms-both-2x2/09-BondBreaking
                                           -CH/02-0401-CH-to-NTop-PES

 CP2K| version string:                    CP2K version 7.0 (Development Version)
 CP2K| source code revision number:                                    svn:18619
 CP2K| cp2kflags: libint fftw3 libxc parallel mpi3 scalapack mkl                
 CP2K| is freely available from                            https://www.cp2k.org/
 CP2K| Program compiled at                          Sun Apr  7 00:48:11 EDT 2019
 CP2K| Program compiled on                      beluga2.int.ets1.calculquebec.ca
 CP2K| Program compiled for                    Beluga-Linux-x86-64-intel-openmpi
 CP2K| Data directory path    /home/rzk/projects/def-rzk/group/cp2k/cp2k-mcgill/
 CP2K| Input file name                                            TEST-1.restart
 
 GLOBAL| Force Environment number                                              1
 GLOBAL| Basis set file name                                        BASIS_MOLOPT
 GLOBAL| Potential file name                                      GTH_POTENTIALS
 GLOBAL| MM Potential file name                                     MM_POTENTIAL
 GLOBAL| Coordinate file name                                      __STD_INPUT__
 GLOBAL| Method name                                                        CP2K
 GLOBAL| Project name                                                       TEST
 GLOBAL| Preferred FFT library                                             FFTW3
 GLOBAL| Preferred diagonalization lib.                                       SL
 GLOBAL| Run type                                                        GEO_OPT
 GLOBAL| All-to-all communication in single precision                          F
 GLOBAL| FFTs using library dependent lengths                                  F
 GLOBAL| Global print level                                               MEDIUM
 GLOBAL| MPI I/O enabled                                                       T
 GLOBAL| Total number of message passing processes                            80
 GLOBAL| Number of threads for this process                                    1
 GLOBAL| This output is from process                                           0
 GLOBAL| CPU model name :  Intel(R) Xeon(R) Gold 6148 CPU @ 2.40GHz

 MEMORY| system memory details [Kb]
 MEMORY|                        rank 0           min           max       average
 MEMORY| MemTotal            196614300     196614300     196614300     196614300
 MEMORY| MemFree             182031428     179036960     182031428     180572163
 MEMORY| Buffers                     0             0             0             0
 MEMORY| Cached                1330196       1330196       1962648       1646422
 MEMORY| Slab                  1324272       1324272       1455024       1389648
 MEMORY| SReclaimable           244504        225664        244504        235084
 MEMORY| MemLikelyFree       183606128     181225272     183606128     182453669


 *** Fundamental physical constants (SI units) ***

 *** Literature: B. J. Mohr and B. N. Taylor,
 ***             CODATA recommended values of the fundamental physical
 ***             constants: 2006, Web Version 5.1
 ***             http://physics.nist.gov/constants

 Speed of light in vacuum [m/s]                             2.99792458000000E+08
 Magnetic constant or permeability of vacuum [N/A**2]       1.25663706143592E-06
 Electric constant or permittivity of vacuum [F/m]          8.85418781762039E-12
 Planck constant (h) [J*s]                                  6.62606896000000E-34
 Planck constant (h-bar) [J*s]                              1.05457162825177E-34
 Elementary charge [C]                                      1.60217648700000E-19
 Electron mass [kg]                                         9.10938215000000E-31
 Electron g factor [ ]                                     -2.00231930436220E+00
 Proton mass [kg]                                           1.67262163700000E-27
 Fine-structure constant                                    7.29735253760000E-03
 Rydberg constant [1/m]                                     1.09737315685270E+07
 Avogadro constant [1/mol]                                  6.02214179000000E+23
 Boltzmann constant [J/K]                                   1.38065040000000E-23
 Atomic mass unit [kg]                                      1.66053878200000E-27
 Bohr radius [m]                                            5.29177208590000E-11

 *** Conversion factors ***

 [u] -> [a.u.]                                              1.82288848426455E+03
 [Angstrom] -> [Bohr] = [a.u.]                              1.88972613288564E+00
 [a.u.] = [Bohr] -> [Angstrom]                              5.29177208590000E-01
 [a.u.] -> [s]                                              2.41888432650478E-17
 [a.u.] -> [fs]                                             2.41888432650478E-02
 [a.u.] -> [J]                                              4.35974393937059E-18
 [a.u.] -> [N]                                              8.23872205491840E-08
 [a.u.] -> [K]                                              3.15774647902944E+05
 [a.u.] -> [kJ/mol]                                         2.62549961709828E+03
 [a.u.] -> [kcal/mol]                                       6.27509468713739E+02
 [a.u.] -> [Pa]                                             2.94210107994716E+13
 [a.u.] -> [bar]                                            2.94210107994716E+08
 [a.u.] -> [atm]                                            2.90362800883016E+08
 [a.u.] -> [eV]                                             2.72113838565563E+01
 [a.u.] -> [Hz]                                             6.57968392072181E+15
 [a.u.] -> [1/cm] (wave numbers)                            2.19474631370540E+05
 [a.u./Bohr**2] -> [1/cm]                                   5.14048714338585E+03
 
          ----------------------------------------------------------------------
 COLVARS| COLVAR INPUT INDEX:        1
 COLVARS| BOND          >>> ATOMS:                                   127     211
          ----------------------------------------------------------------------

 CELL_TOP| Volume [angstrom^3]:                                         4586.323
 CELL_TOP| Vector a [angstrom    12.864     0.000     0.000    |a| =      12.864
 CELL_TOP| Vector b [angstrom    -6.432    11.141     0.000    |b| =      12.864
 CELL_TOP| Vector c [angstrom     0.000     0.000    32.000    |c| =      32.000
 CELL_TOP| Angle (b,c), alpha [degree]:                                   90.000
 CELL_TOP| Angle (a,c), beta  [degree]:                                   90.000
 CELL_TOP| Angle (a,b), gamma [degree]:                                  120.000
 CELL_TOP| Numerically orthorhombic:                                          NO
 RESTRAINT| Active restraint on COLLECTIVE section Nr.     1. K [a.u.]= 2.000000
 
 GENERATE|  Preliminary Number of Bonds generated:                             0
 GENERATE|  Achieved consistency in connectivity generation.

 CELL| Volume [angstrom^3]:                                             4586.323
 CELL| Vector a [angstrom]:      12.864     0.000     0.000    |a| =      12.864
 CELL| Vector b [angstrom]:      -6.432    11.141     0.000    |b| =      12.864
 CELL| Vector c [angstrom]:       0.000     0.000    32.000    |c| =      32.000
 CELL| Angle (b,c), alpha [degree]:                                       90.000
 CELL| Angle (a,c), beta  [degree]:                                       90.000
 CELL| Angle (a,b), gamma [degree]:                                      120.000
 CELL| Numerically orthorhombic:                                              NO

 CELL_REF| Volume [angstrom^3]:                                         4670.759
 CELL_REF| Vector a [angstrom    12.982     0.000     0.000    |a| =      12.982
 CELL_REF| Vector b [angstrom    -6.491    11.243     0.000    |b| =      12.982
 CELL_REF| Vector c [angstrom     0.000     0.000    32.000    |c| =      32.000
 CELL_REF| Angle (b,c), alpha [degree]:                                   90.000
 CELL_REF| Angle (a,c), beta  [degree]:                                   90.000
 CELL_REF| Angle (a,b), gamma [degree]:                                  120.000
 CELL_REF| Numerically orthorhombic:                                          NO

 *******************************************************************************
 *******************************************************************************
 **                                                                           **
 **     #####                         ##              ##                      **
 **    ##   ##            ##          ##              ##                      **
 **   ##     ##                       ##            ######                    **
 **   ##     ##  ##   ##  ##   #####  ##  ##   ####   ##    #####    #####    **
 **   ##     ##  ##   ##  ##  ##      ## ##   ##      ##   ##   ##  ##   ##   **
 **   ##  ## ##  ##   ##  ##  ##      ####     ###    ##   ######   ######    **
 **    ##  ###   ##   ##  ##  ##      ## ##      ##   ##   ##       ##        **
 **     #######   #####   ##   #####  ##  ##  ####    ##    #####   ##        **
 **           ##                                                    ##        **
 **                                                                           **
 **                                                ... make the atoms dance   **
 **                                                                           **
 **            Copyright (C) by CP2K developers group (2000 - 2018)           **
 **                                                                           **
 *******************************************************************************

 DFT| Spin unrestricted (spin-polarized) Kohn-Sham calculation               UKS
 DFT| Multiplicity                                                             1
 DFT| Number of spin states                                                    2
 DFT| Charge                                                                   0
 DFT| Self-interaction correction (SIC)                                       NO
 DFT| Cutoffs: density                                              1.000000E-10
 DFT|          gradient                                             1.000000E-10
 DFT|          tau                                                  1.000000E-10
 DFT|          cutoff_smoothing_range                               0.000000E+00
 DFT| XC density smoothing                                                  NONE
 DFT| XC derivatives                                                          PW
 FUNCTIONAL| ROUTINE=NEW
 FUNCTIONAL| PBE:
 FUNCTIONAL| J.P.Perdew, K.Burke, M.Ernzerhof, Phys. Rev. Letter, vol. 77, n 18,
 FUNCTIONAL|  pp. 3865-3868, (1996){spin polarized}                             
 vdW POTENTIAL|                                                   Pair Potential
 vdW POTENTIAL|          DFT-D3 (Version 3.1)
 vdW POTENTIAL|          Potential Form: S. Grimme et al, JCP 132: 154104 (2010)
 vdW POTENTIAL|          Zero Damping
 vdW POTENTIAL|          Cutoff Radius [Bohr]:                             18.90
 vdW POTENTIAL|          s6 Scaling Factor:                               1.0000
 vdW POTENTIAL|          sr6 Scaling Factor:                              1.2170
 vdW POTENTIAL|          s8 Scaling Factor:                               0.7220
 vdW POTENTIAL|          Cutoff for CN calculation:                   0.1000E-05

 QS| Method:                                                                 GPW
 QS| Density plane wave grid type                        NON-SPHERICAL FULLSPACE
 QS| Number of grid levels:                                                    5
 QS| Density cutoff [a.u.]:                                                600.0
 QS| Multi grid cutoff [a.u.]: 1) grid level                               600.0
 QS|                           2) grid level                               200.0
 QS|                           3) grid level                                66.7
 QS|                           4) grid level                                22.2
 QS|                           5) grid level                                 7.4
 QS| Grid level progression factor:                                          3.0
 QS| Relative density cutoff [a.u.]:                                        20.0
 QS| Consistent realspace mapping and integration 
 QS| Interaction thresholds: eps_pgf_orb:                                1.0E-07
 QS|                         eps_filter_matrix:                          0.0E+00
 QS|                         eps_core_charge:                            1.0E-16
 QS|                         eps_rho_gspace:                             1.0E-14
 QS|                         eps_rho_rspace:                             1.0E-14
 QS|                         eps_gvg_rspace:                             1.0E-07
 QS|                         eps_ppl:                                    1.0E-02
 QS|                         eps_ppnl:                                   1.0E-09


 ATOMIC KIND INFORMATION

  1. Atomic kind: N                                     Number of atoms:     100

     Orbital Basis Set                                        DZVP-MOLOPT-SR-GTH

       Number of orbital shell sets:                                           1
       Number of orbital shells:                                               5
       Number of primitive Cartesian functions:                                5
       Number of Cartesian basis functions:                                   14
       Number of spherical basis functions:                                   13
       Norm type:                                                              2

       Normalised Cartesian orbitals:

                        Set   Shell   Orbital            Exponent    Coefficient

                          1       1    2s                7.341988       0.360561
                                                         2.542637       0.139177
                                                         0.888575      -0.289383
                                                         0.333802      -0.182244
                                                         0.112012      -0.019197

                          1       2    3s                7.341988       0.282000
                                                         2.542637       0.177875
                                                         0.888575      -0.278381
                                                         0.333802       0.008577
                                                         0.112012       0.154176

                          1       3    3px               7.341988      -1.188719
                                                         2.542637      -0.973969
                                                         0.888575      -0.501079
                                                         0.333802      -0.144894
                                                         0.112012      -0.013986
                          1       3    3py               7.341988      -1.188719
                                                         2.542637      -0.973969
                                                         0.888575      -0.501079
                                                         0.333802      -0.144894
                                                         0.112012      -0.013986
                          1       3    3pz               7.341988      -1.188719
                                                         2.542637      -0.973969
                                                         0.888575      -0.501079
                                                         0.333802      -0.144894
                                                         0.112012      -0.013986

                          1       4    4px               7.341988      -0.094798
                                                         2.542637       0.050069
                                                         0.888575      -0.114797
                                                         0.333802       0.144793
                                                         0.112012       0.066710
                          1       4    4py               7.341988      -0.094798
                                                         2.542637       0.050069
                                                         0.888575      -0.114797
                                                         0.333802       0.144793
                                                         0.112012       0.066710
                          1       4    4pz               7.341988      -0.094798
                                                         2.542637       0.050069
                                                         0.888575      -0.114797
                                                         0.333802       0.144793
                                                         0.112012       0.066710

                          1       5    4dx2              7.341988       1.354688
                                                         2.542637       0.690378
                                                         0.888575       0.855359
                                                         0.333802       0.091746
                                                         0.112012       0.001253
                          1       5    4dxy              7.341988       2.346389
                                                         2.542637       1.195770
                                                         0.888575       1.481524
                                                         0.333802       0.158910
                                                         0.112012       0.002169
                          1       5    4dxz              7.341988       2.346389
                                                         2.542637       1.195770
                                                         0.888575       1.481524
                                                         0.333802       0.158910
                                                         0.112012       0.002169
                          1       5    4dy2              7.341988       1.354688
                                                         2.542637       0.690378
                                                         0.888575       0.855359
                                                         0.333802       0.091746
                                                         0.112012       0.001253
                          1       5    4dyz              7.341988       2.346389
                                                         2.542637       1.195770
                                                         0.888575       1.481524
                                                         0.333802       0.158910
                                                         0.112012       0.002169
                          1       5    4dz2              7.341988       1.354688
                                                         2.542637       0.690378
                                                         0.888575       0.855359
                                                         0.333802       0.091746
                                                         0.112012       0.001253

     GTH Potential information for                                    GTH-PBE-q5

       Description:                       Goedecker-Teter-Hutter pseudopotential
                                           Goedecker et al., PRB 54, 1703 (1996)
                                          Hartwigsen et al., PRB 58, 3641 (1998)
                                                      Krack, TCA 114, 145 (2005)

       Gaussian exponent of the core charge distribution:               6.208322
       Electronic configuration (s p d ...):                               2   3

       Parameters of the local part of the GTH pseudopotential:

                          rloc        C1          C2          C3          C4
                        0.283791  -12.415226    1.868096

       Parameters of the non-local part of the GTH pseudopotential:

                   l      r(l)      h(i,j,l)

                   0    0.255405   13.630263
                   1    0.245495

  2. Atomic kind: Ga                                    Number of atoms:     100

     Orbital Basis Set                                        DZVP-MOLOPT-SR-GTH

       Number of orbital shell sets:                                           1
       Number of orbital shells:                                               7
       Number of primitive Cartesian functions:                                6
       Number of Cartesian basis functions:                                   30
       Number of spherical basis functions:                                   25
       Norm type:                                                              2

       Normalised Cartesian orbitals:

                        Set   Shell   Orbital            Exponent    Coefficient

                          1       1    2s                7.066654       0.013136
                                                         3.428369      -0.094392
                                                         1.430064       0.265435
                                                         0.571611       0.056465
                                                         0.232197      -0.192187
                                                         0.076562      -0.044987

                          1       2    3s                7.066654      -0.098564
                                                         3.428369       0.010390
                                                         1.430064       0.351249
                                                         0.571611       0.182615
                                                         0.232197      -0.425358
                                                         0.076562       0.190349

                          1       3    3px               7.066654       0.002364
                                                         3.428369       0.019222
                                                         1.430064       0.250132
                                                         0.571611      -0.058486
                                                         0.232197      -0.159451
                                                         0.076562      -0.020696
                          1       3    3py               7.066654       0.002364
                                                         3.428369       0.019222
                                                         1.430064       0.250132
                                                         0.571611      -0.058486
                                                         0.232197      -0.159451
                                                         0.076562      -0.020696
                          1       3    3pz               7.066654       0.002364
                                                         3.428369       0.019222
                                                         1.430064       0.250132
                                                         0.571611      -0.058486
                                                         0.232197      -0.159451
                                                         0.076562      -0.020696

                          1       4    4px               7.066654       0.492448
                                                         3.428369      -0.614736
                                                         1.430064      -0.191654
                                                         0.571611       0.037801
                                                         0.232197       0.302315
                                                         0.076562      -0.071336
                          1       4    4py               7.066654       0.492448
                                                         3.428369      -0.614736
                                                         1.430064      -0.191654
                                                         0.571611       0.037801
                                                         0.232197       0.302315
                                                         0.076562      -0.071336
                          1       4    4pz               7.066654       0.492448
                                                         3.428369      -0.614736
                                                         1.430064      -0.191654
                                                         0.571611       0.037801
                                                         0.232197       0.302315
                                                         0.076562      -0.071336

                          1       5    4dx2              7.066654     -15.264855
                                                         3.428369      -5.345726
                                                         1.430064      -1.022732
                                                         0.571611      -0.123148
                                                         0.232197      -0.006983
                                                         0.076562      -0.000022
                          1       5    4dxy              7.066654     -26.439504
                                                         3.428369      -9.259069
                                                         1.430064      -1.771423
                                                         0.571611      -0.213299
                                                         0.232197      -0.012094
                                                         0.076562      -0.000037
                          1       5    4dxz              7.066654     -26.439504
                                                         3.428369      -9.259069
                                                         1.430064      -1.771423
                                                         0.571611      -0.213299
                                                         0.232197      -0.012094
                                                         0.076562      -0.000037
                          1       5    4dy2              7.066654     -15.264855
                                                         3.428369      -5.345726
                                                         1.430064      -1.022732
                                                         0.571611      -0.123148
                                                         0.232197      -0.006983
                                                         0.076562      -0.000022
                          1       5    4dyz              7.066654     -26.439504
                                                         3.428369      -9.259069
                                                         1.430064      -1.771423
                                                         0.571611      -0.213299
                                                         0.232197      -0.012094
                                                         0.076562      -0.000037
                          1       5    4dz2              7.066654     -15.264855
                                                         3.428369      -5.345726
                                                         1.430064      -1.022732
                                                         0.571611      -0.123148
                                                         0.232197      -0.006983
                                                         0.076562      -0.000022

                          1       6    5dx2              7.066654      -5.739265
                                                         3.428369      -2.129289
                                                         1.430064      -0.700423
                                                         0.571611       0.161606
                                                         0.232197       0.043513
                                                         0.076562       0.011205
                          1       6    5dxy              7.066654      -9.940698
                                                         3.428369      -3.688037
                                                         1.430064      -1.213168
                                                         0.571611       0.279909
                                                         0.232197       0.075368
                                                         0.076562       0.019407
                          1       6    5dxz              7.066654      -9.940698
                                                         3.428369      -3.688037
                                                         1.430064      -1.213168
                                                         0.571611       0.279909
                                                         0.232197       0.075368
                                                         0.076562       0.019407
                          1       6    5dy2              7.066654      -5.739265
                                                         3.428369      -2.129289
                                                         1.430064      -0.700423
                                                         0.571611       0.161606
                                                         0.232197       0.043513
                                                         0.076562       0.011205
                          1       6    5dyz              7.066654      -9.940698
                                                         3.428369      -3.688037
                                                         1.430064      -1.213168
                                                         0.571611       0.279909
                                                         0.232197       0.075368
                                                         0.076562       0.019407
                          1       6    5dz2              7.066654      -5.739265
                                                         3.428369      -2.129289
                                                         1.430064      -0.700423
                                                         0.571611       0.161606
                                                         0.232197       0.043513
                                                         0.076562       0.011205

                          1       7    5fx3              7.066654       0.705879
                                                         3.428369      -0.273976
                                                         1.430064       0.113667
                                                         0.571611       0.132480
                                                         0.232197       0.012437
                                                         0.076562       0.003241
                          1       7    5fx2y             7.066654       1.578393
                                                         3.428369      -0.612629
                                                         1.430064       0.254167
                                                         0.571611       0.296234
                                                         0.232197       0.027811
                                                         0.076562       0.007246
                          1       7    5fx2z             7.066654       1.578393
                                                         3.428369      -0.612629
                                                         1.430064       0.254167
                                                         0.571611       0.296234
                                                         0.232197       0.027811
                                                         0.076562       0.007246
                          1       7    5fxy2             7.066654       1.578393
                                                         3.428369      -0.612629
                                                         1.430064       0.254167
                                                         0.571611       0.296234
                                                         0.232197       0.027811
                                                         0.076562       0.007246
                          1       7    5fxyz             7.066654       2.733856
                                                         3.428369      -1.061105
                                                         1.430064       0.440230
                                                         0.571611       0.513092
                                                         0.232197       0.048170
                                                         0.076562       0.012551
                          1       7    5fxz2             7.066654       1.578393
                                                         3.428369      -0.612629
                                                         1.430064       0.254167
                                                         0.571611       0.296234
                                                         0.232197       0.027811
                                                         0.076562       0.007246
                          1       7    5fy3              7.066654       0.705879
                                                         3.428369      -0.273976
                                                         1.430064       0.113667
                                                         0.571611       0.132480
                                                         0.232197       0.012437
                                                         0.076562       0.003241
                          1       7    5fy2z             7.066654       1.578393
                                                         3.428369      -0.612629
                                                         1.430064       0.254167
                                                         0.571611       0.296234
                                                         0.232197       0.027811
                                                         0.076562       0.007246
                          1       7    5fyz2             7.066654       1.578393
                                                         3.428369      -0.612629
                                                         1.430064       0.254167
                                                         0.571611       0.296234
                                                         0.232197       0.027811
                                                         0.076562       0.007246
                          1       7    5fz3              7.066654       0.705879
                                                         3.428369      -0.273976
                                                         1.430064       0.113667
                                                         0.571611       0.132480
                                                         0.232197       0.012437
                                                         0.076562       0.003241

     GTH Potential information for                                   GTH-PBE-q13

       Description:                       Goedecker-Teter-Hutter pseudopotential
                                           Goedecker et al., PRB 54, 1703 (1996)
                                          Hartwigsen et al., PRB 58, 3641 (1998)
                                                      Krack, TCA 114, 145 (2005)

       Gaussian exponent of the core charge distribution:               2.082466
       Electronic configuration (s p d ...):                           2   1  10

       Parameters of the local part of the GTH pseudopotential:

                          rloc        C1          C2          C3          C4
                        0.490000

       Parameters of the non-local part of the GTH pseudopotential:

                   l      r(l)      h(i,j,l)

                   0    0.416777   10.475690   -4.921768    0.870706
                                   -4.921768    7.770178   -2.248152
                                    0.870706   -2.248152    1.784415
                   1    0.569627    1.777985    0.195860
                                    0.195860   -0.231744
                   2    0.238126  -16.248680

  3. Atomic kind: O                                     Number of atoms:       2

     Orbital Basis Set                                     DZVP-MOLOPT-SR-GTH-q6

       Number of orbital shell sets:                                           1
       Number of orbital shells:                                               5
       Number of primitive Cartesian functions:                                5
       Number of Cartesian basis functions:                                   14
       Number of spherical basis functions:                                   13
       Norm type:                                                              2

       Normalised Cartesian orbitals:

                        Set   Shell   Orbital            Exponent    Coefficient

                          1       1    2s               10.389228       0.396646
                                                         3.849621       0.208811
                                                         1.388401      -0.301641
                                                         0.496955      -0.274061
                                                         0.162492      -0.033677

                          1       2    3s               10.389228       0.303673
                                                         3.849621       0.240943
                                                         1.388401      -0.313066
                                                         0.496955      -0.043055
                                                         0.162492       0.213991

                          1       3    3px              10.389228      -1.530415
                                                         3.849621      -1.371928
                                                         1.388401      -0.761951
                                                         0.496955      -0.253695
                                                         0.162492      -0.035541
                          1       3    3py              10.389228      -1.530415
                                                         3.849621      -1.371928
                                                         1.388401      -0.761951
                                                         0.496955      -0.253695
                                                         0.162492      -0.035541
                          1       3    3pz              10.389228      -1.530415
                                                         3.849621      -1.371928
                                                         1.388401      -0.761951
                                                         0.496955      -0.253695
                                                         0.162492      -0.035541

                          1       4    4px              10.389228      -0.565392
                                                         3.849621      -0.038231
                                                         1.388401      -0.382373
                                                         0.496955       0.179070
                                                         0.162492       0.122714
                          1       4    4py              10.389228      -0.565392
                                                         3.849621      -0.038231
                                                         1.388401      -0.382373
                                                         0.496955       0.179070
                                                         0.162492       0.122714
                          1       4    4pz              10.389228      -0.565392
                                                         3.849621      -0.038231
                                                         1.388401      -0.382373
                                                         0.496955       0.179070
                                                         0.162492       0.122714

                          1       5    4dx2             10.389228       1.867377
                                                         3.849621       0.670994
                                                         1.388401       1.353441
                                                         0.496955       0.273538
                                                         0.162492       0.006620
                          1       5    4dxy             10.389228       3.234392
                                                         3.849621       1.162195
                                                         1.388401       2.344229
                                                         0.496955       0.473781
                                                         0.162492       0.011466
                          1       5    4dxz             10.389228       3.234392
                                                         3.849621       1.162195
                                                         1.388401       2.344229
                                                         0.496955       0.473781
                                                         0.162492       0.011466
                          1       5    4dy2             10.389228       1.867377
                                                         3.849621       0.670994
                                                         1.388401       1.353441
                                                         0.496955       0.273538
                                                         0.162492       0.006620
                          1       5    4dyz             10.389228       3.234392
                                                         3.849621       1.162195
                                                         1.388401       2.344229
                                                         0.496955       0.473781
                                                         0.162492       0.011466
                          1       5    4dz2             10.389228       1.867377
                                                         3.849621       0.670994
                                                         1.388401       1.353441
                                                         0.496955       0.273538
                                                         0.162492       0.006620

     GTH Potential information for                                    GTH-PBE-q6

       Description:                       Goedecker-Teter-Hutter pseudopotential
                                           Goedecker et al., PRB 54, 1703 (1996)
                                          Hartwigsen et al., PRB 58, 3641 (1998)
                                                      Krack, TCA 114, 145 (2005)

       Gaussian exponent of the core charge distribution:               8.360253
       Electronic configuration (s p d ...):                               2   4

       Parameters of the local part of the GTH pseudopotential:

                          rloc        C1          C2          C3          C4
                        0.244554  -16.667215    2.487311

       Parameters of the non-local part of the GTH pseudopotential:

                   l      r(l)      h(i,j,l)

                   0    0.220956   18.337458
                   1    0.211332

  4. Atomic kind: H                                     Number of atoms:       8

     Orbital Basis Set                                     DZVP-MOLOPT-SR-GTH-q1

       Number of orbital shell sets:                                           1
       Number of orbital shells:                                               3
       Number of primitive Cartesian functions:                                5
       Number of Cartesian basis functions:                                    5
       Number of spherical basis functions:                                    5
       Norm type:                                                              2

       Normalised Cartesian orbitals:

                        Set   Shell   Orbital            Exponent    Coefficient

                          1       1    2s               10.068468      -0.133023
                                                         2.680223      -0.177618
                                                         0.791502      -0.258419
                                                         0.239116      -0.107525
                                                         0.082193      -0.014019

                          1       2    3s               10.068468       0.344673
                                                         2.680223       1.819821
                                                         0.791502      -0.999069
                                                         0.239116       0.017430
                                                         0.082193       0.082660

                          1       3    3px              10.068468       0.155326
                                                         2.680223       0.367157
                                                         0.791502       0.311480
                                                         0.239116       0.080105
                                                         0.082193       0.033440
                          1       3    3py              10.068468       0.155326
                                                         2.680223       0.367157
                                                         0.791502       0.311480
                                                         0.239116       0.080105
                                                         0.082193       0.033440
                          1       3    3pz              10.068468       0.155326
                                                         2.680223       0.367157
                                                         0.791502       0.311480
                                                         0.239116       0.080105
                                                         0.082193       0.033440

     GTH Potential information for                                    GTH-PBE-q1

       Description:                       Goedecker-Teter-Hutter pseudopotential
                                           Goedecker et al., PRB 54, 1703 (1996)
                                          Hartwigsen et al., PRB 58, 3641 (1998)
                                                      Krack, TCA 114, 145 (2005)

       Gaussian exponent of the core charge distribution:              12.500000
       Electronic configuration (s p d ...):                                   1

       Parameters of the local part of the GTH pseudopotential:

                          rloc        C1          C2          C3          C4
                        0.200000   -4.178900    0.724463

  5. Atomic kind: C                                     Number of atoms:       2

     Orbital Basis Set                                     DZVP-MOLOPT-SR-GTH-q4

       Number of orbital shell sets:                                           1
       Number of orbital shells:                                               5
       Number of primitive Cartesian functions:                                5
       Number of Cartesian basis functions:                                   14
       Number of spherical basis functions:                                   13
       Norm type:                                                              2

       Normalised Cartesian orbitals:

                        Set   Shell   Orbital            Exponent    Coefficient

                          1       1    2s                5.605331       0.322515
                                                         2.113016       0.213043
                                                         0.769911      -0.209686
                                                         0.348157      -0.219794
                                                         0.128212      -0.022789

                          1       2    3s                5.605331       0.552234
                                                         2.113016       0.082072
                                                         0.769911       0.007843
                                                         0.348157       0.136893
                                                         0.128212       0.074283

                          1       3    3px               5.605331      -0.703879
                                                         2.113016      -0.642521
                                                         0.769911      -0.374851
                                                         0.348157      -0.139743
                                                         0.128212      -0.027849
                          1       3    3py               5.605331      -0.703879
                                                         2.113016      -0.642521
                                                         0.769911      -0.374851
                                                         0.348157      -0.139743
                                                         0.128212      -0.027849
                          1       3    3pz               5.605331      -0.703879
                                                         2.113016      -0.642521
                                                         0.769911      -0.374851
                                                         0.348157      -0.139743
                                                         0.128212      -0.027849

                          1       4    4px               5.605331      -0.480376
                                                         2.113016      -0.552894
                                                         0.769911      -0.316145
                                                         0.348157       0.210505
                                                         0.128212       0.076095
                          1       4    4py               5.605331      -0.480376
                                                         2.113016      -0.552894
                                                         0.769911      -0.316145
                                                         0.348157       0.210505
                                                         0.128212       0.076095
                          1       4    4pz               5.605331      -0.480376
                                                         2.113016      -0.552894
                                                         0.769911      -0.316145
                                                         0.348157       0.210505
                                                         0.128212       0.076095

                          1       5    4dx2              5.605331       0.640026
                                                         2.113016       0.274300
                                                         0.769911       0.446711
                                                         0.348157       0.028674
                                                         0.128212       0.029790
                          1       5    4dxy              5.605331       1.108557
                                                         2.113016       0.475102
                                                         0.769911       0.773726
                                                         0.348157       0.049666
                                                         0.128212       0.051599
                          1       5    4dxz              5.605331       1.108557
                                                         2.113016       0.475102
                                                         0.769911       0.773726
                                                         0.348157       0.049666
                                                         0.128212       0.051599
                          1       5    4dy2              5.605331       0.640026
                                                         2.113016       0.274300
                                                         0.769911       0.446711
                                                         0.348157       0.028674
                                                         0.128212       0.029790
                          1       5    4dyz              5.605331       1.108557
                                                         2.113016       0.475102
                                                         0.769911       0.773726
                                                         0.348157       0.049666
                                                         0.128212       0.051599
                          1       5    4dz2              5.605331       0.640026
                                                         2.113016       0.274300
                                                         0.769911       0.446711
                                                         0.348157       0.028674
                                                         0.128212       0.029790

     GTH Potential information for                                    GTH-PBE-q4

       Description:                       Goedecker-Teter-Hutter pseudopotential
                                           Goedecker et al., PRB 54, 1703 (1996)
                                          Hartwigsen et al., PRB 58, 3641 (1998)
                                                      Krack, TCA 114, 145 (2005)

       Gaussian exponent of the core charge distribution:               4.364419
       Electronic configuration (s p d ...):                               2   2

       Parameters of the local part of the GTH pseudopotential:

                          rloc        C1          C2          C3          C4
                        0.338471   -8.803674    1.339211

       Parameters of the non-local part of the GTH pseudopotential:

                   l      r(l)      h(i,j,l)

                   0    0.302576    9.622487
                   1    0.291507


 MOLECULE KIND INFORMATION


 All atoms are their own molecule, skipping detailed information


 TOTAL NUMBERS AND MAXIMUM NUMBERS

  Total number of            - Atomic kinds:                                   5
                             - Atoms:                                        212
                             - Shell sets:                                   212
                             - Shells:                                      1244
                             - Primitive Cartesian functions:               1160
                             - Cartesian basis functions:                   4496
                             - Spherical basis functions:                   3892

  Maximum angular momentum of- Orbital basis functions:                        3
                             - Local part of the GTH pseudopotential:          2
                             - Non-local part of the GTH pseudopotential:      4


 MODULE QUICKSTEP:  ATOMIC COORDINATES IN angstrom

  Atom  Kind  Element       X           Y           Z          Z(eff)       Mass

       1     1 N    7    0.037498    1.986907    2.493961      5.00      14.0067
       2     2 Ga  31    0.057873    0.020340    2.828907     13.00      69.7230
       3     1 N    7    0.038122   -0.014305    5.014350      5.00      14.0067
       4     2 Ga  31    0.040735    1.810553    5.798282     13.00      69.7230
       5     1 N    7    0.039923    1.825224    7.799337      5.00      14.0067
       6     2 Ga  31    0.041902   -0.020905    8.439538     13.00      69.7230
       7     1 N    7    0.040136   -0.021201   10.415608      5.00      14.0067
       8     2 Ga  31    0.040854    1.818910   11.066129     13.00      69.7230
       9     1 N    7    0.039615    1.799743   13.061422      5.00      14.0067
      10     2 Ga  31    0.039769   -0.020846   13.863648     13.00      69.7230
      11     1 N    7    0.039966   -0.021165   16.067392      5.00      14.0067
      12     2 Ga  31    0.038526    2.016422   16.476506     13.00      69.7230
      13     2 Ga  31    0.016919    3.690444    1.364160     13.00      69.7230
      14     1 N    7   -1.442596    4.560470    2.512255      5.00      14.0067
      15     2 Ga  31   -1.636512    2.725287    3.278687     13.00      69.7230
      16     1 N    7   -1.569152    2.766596    5.256819      5.00      14.0067
      17     2 Ga  31   -1.599433    4.632850    5.807758     13.00      69.7230
      18     1 N    7   -1.577061    4.628769    7.802934      5.00      14.0067
      19     2 Ga  31   -1.556897    2.769422    8.437626     13.00      69.7230
      20     1 N    7   -1.556939    2.771472   10.431558      5.00      14.0067
      21     2 Ga  31   -1.583699    4.630197   11.068712     13.00      69.7230
      22     1 N    7   -1.600514    4.640377   13.062530      5.00      14.0067
      23     2 Ga  31   -1.557697    2.771301   13.618165     13.00      69.7230
      24     1 N    7   -1.584526    2.757885   15.581014      5.00      14.0067
      25     2 Ga  31   -1.408014    4.528975   16.477143     13.00      69.7230
      26     1 N    7    0.047250    3.689792   17.611930      5.00      14.0067
      27     1 N    7   -3.177502    7.526265    2.504605      5.00      14.0067
      28     2 Ga  31   -3.148174    5.546289    2.835667     13.00      69.7230
      29     1 N    7   -3.173512    5.548988    5.020640      5.00      14.0067
      30     2 Ga  31   -3.182211    7.375395    5.791178     13.00      69.7230
      31     1 N    7   -3.174573    7.397626    7.789527      5.00      14.0067
      32     2 Ga  31   -3.176181    5.552501    8.444801     13.00      69.7230
      33     1 N    7   -3.176285    5.551710   10.418447      5.00      14.0067
      34     2 Ga  31   -3.178028    7.390811   11.068592     13.00      69.7230
      35     1 N    7   -3.177138    7.370846   13.062696      5.00      14.0067
      36     2 Ga  31   -3.177173    5.549779   13.866666     13.00      69.7230
      37     1 N    7   -3.176998    5.549606   16.067569      5.00      14.0067
      38     2 Ga  31   -3.177564    7.588155   16.476592     13.00      69.7230
      39     2 Ga  31   -3.200506    9.278474    1.346054     13.00      69.7230
      40     1 N    7   -4.684852   10.137095    2.504876      5.00      14.0067
      41     2 Ga  31   -4.875291    8.295180    3.252814     13.00      69.7230
      42     1 N    7   -4.784057    8.336313    5.232383      5.00      14.0067
      43     2 Ga  31   -4.809466   10.208488    5.782609     13.00      69.7230
      44     1 N    7   -4.793482   10.197938    7.786710      5.00      14.0067
      45     2 Ga  31   -4.775213    8.343118    8.427684     13.00      69.7230
      46     1 N    7   -4.773185    8.341660   10.424040      5.00      14.0067
      47     2 Ga  31   -4.798707   10.200138   11.064662     13.00      69.7230
      48     1 N    7   -4.816118   10.210300   13.059711      5.00      14.0067
      49     2 Ga  31   -4.774568    8.342298   13.618451     13.00      69.7230
      50     1 N    7   -4.802540    8.328145   15.580638      5.00      14.0067
      51     2 Ga  31   -4.622171   10.098585   16.477487     13.00      69.7230
      52     1 N    7   -3.169450    9.260481   17.606942      5.00      14.0067
      53     1 N    7    3.244369    1.839351    2.619193      5.00      14.0067
      54     2 Ga  31    3.248923    0.078850    3.256360     13.00      69.7230
      55     1 N    7    3.258542   -0.022050    5.236247      5.00      14.0067
      56     2 Ga  31    3.249680    1.832067    5.865273     13.00      69.7230
      57     1 N    7    3.257166    1.834920    7.844558      5.00      14.0067
      58     2 Ga  31    3.254581   -0.031728    8.429984     13.00      69.7230
      59     1 N    7    3.256468   -0.033906   10.426049      5.00      14.0067
      60     2 Ga  31    3.256484    1.835504   11.022460     13.00      69.7230
      61     1 N    7    3.255497    1.836257   12.994938      5.00      14.0067
      62     2 Ga  31    3.254903   -0.032530   13.617942     13.00      69.7230
      63     1 N    7    3.252851   -0.001047   15.580353      5.00      14.0067
      64     2 Ga  31    3.254642    1.837453   15.861490     13.00      69.7230
      65     1 N    7    1.531992    4.559315    2.535716      5.00      14.0067
      66     2 Ga  31    1.717036    2.720136    3.271183     13.00      69.7230
      67     1 N    7    1.649604    2.764000    5.253900      5.00      14.0067
      68     2 Ga  31    1.675902    4.628025    5.804391     13.00      69.7230
      69     1 N    7    1.658880    4.628846    7.799274      5.00      14.0067
      70     2 Ga  31    1.639750    2.767849    8.433273     13.00      69.7230
      71     1 N    7    1.638077    2.771325   10.429072      5.00      14.0067
      72     2 Ga  31    1.663813    4.629078   11.069158     13.00      69.7230
      73     1 N    7    1.679676    4.640321   13.063366      5.00      14.0067
      74     2 Ga  31    1.636515    2.770939   13.618483     13.00      69.7230
      75     1 N    7    1.661865    2.756193   15.582727      5.00      14.0067
      76     2 Ga  31    1.492711    4.533378   16.476755     13.00      69.7230
      77     1 N    7    0.030516    7.394794    2.689935      5.00      14.0067
      78     2 Ga  31    0.042772    5.552866    3.333882     13.00      69.7230
      79     1 N    7    0.039848    5.565250    5.271480      5.00      14.0067
      80     2 Ga  31    0.035598    7.407043    5.899496     13.00      69.7230
      81     1 N    7    0.040351    7.410009    7.859398      5.00      14.0067
      82     2 Ga  31    0.040804    5.536780    8.442059     13.00      69.7230
      83     1 N    7    0.040641    5.537727   10.433181      5.00      14.0067
      84     2 Ga  31    0.039629    7.406664   11.027537     13.00      69.7230
      85     1 N    7    0.039401    7.407314   12.998588      5.00      14.0067
      86     2 Ga  31    0.039100    5.537302   13.619516     13.00      69.7230
      87     1 N    7    0.037207    5.568118   15.582034      5.00      14.0067
      88     2 Ga  31    0.039449    7.407146   15.861022     13.00      69.7230
      89     1 N    7   -1.667140   10.130536    2.508120      5.00      14.0067
      90     2 Ga  31   -1.559469    8.324708    3.295862     13.00      69.7230
      91     1 N    7   -1.555577    8.329504    5.239784      5.00      14.0067
      92     2 Ga  31   -1.546110   10.211396    5.794879     13.00      69.7230
      93     1 N    7   -1.558038   10.195739    7.791288      5.00      14.0067
      94     2 Ga  31   -1.581896    8.343426    8.441064     13.00      69.7230
      95     1 N    7   -1.579357    8.341958   10.432062      5.00      14.0067
      96     2 Ga  31   -1.554177   10.201743   11.068863     13.00      69.7230
      97     1 N    7   -1.536699   10.211033   13.062884      5.00      14.0067
      98     2 Ga  31   -1.580469    8.342410   13.619603     13.00      69.7230
      99     1 N    7   -1.552236    8.325819   15.582716      5.00      14.0067
     100     2 Ga  31   -1.725048   10.103131   16.476455     13.00      69.7230
     101     1 N    7    6.473554    1.963226    2.535065      5.00      14.0067
     102     2 Ga  31    6.455908   -0.015287    2.861217     13.00      69.7230
     103     1 N    7    6.475310   -0.018639    5.022750      5.00      14.0067
     104     2 Ga  31    6.472985    1.810860    5.803561     13.00      69.7230
     105     1 N    7    6.472988    1.824832    7.798878      5.00      14.0067
     106     2 Ga  31    6.470805   -0.020967    8.444013     13.00      69.7230
     107     1 N    7    6.472067   -0.021032   10.417291      5.00      14.0067
     108     2 Ga  31    6.471834    1.819886   11.067624     13.00      69.7230
     109     1 N    7    6.471632    1.799777   13.061644      5.00      14.0067
     110     2 Ga  31    6.472406   -0.019593   13.867748     13.00      69.7230
     111     1 N    7    6.472836   -0.019799   16.067568      5.00      14.0067
     112     2 Ga  31    6.471309    2.023423   16.480788     13.00      69.7230
     113     2 Ga  31    6.472856    3.693302    1.526395     13.00      69.7230
     114     1 N    7    4.972016    4.559371    2.536632      5.00      14.0067
     115     2 Ga  31    4.752990    2.700052    3.295883     13.00      69.7230
     116     1 N    7    4.863259    2.764339    5.256474      5.00      14.0067
     117     2 Ga  31    4.844519    4.635458    5.801316     13.00      69.7230
     118     1 N    7    4.854575    4.628347    7.796113      5.00      14.0067
     119     2 Ga  31    4.872217    2.769076    8.434014     13.00      69.7230
     120     1 N    7    4.875147    2.771464   10.428305      5.00      14.0067
     121     2 Ga  31    4.850488    4.630153   11.066938     13.00      69.7230
     122     1 N    7    4.832400    4.640209   13.060693      5.00      14.0067
     123     2 Ga  31    4.874281    2.771404   13.618512     13.00      69.7230
     124     1 N    7    4.845026    2.756821   15.579444      5.00      14.0067
     125     2 Ga  31    5.030992    4.525521   16.481948     13.00      69.7230
     126     1 N    7    6.478045    3.689663   17.614504      5.00      14.0067
     127     1 N    7    3.223187    7.525141    2.427215      5.00      14.0067
     128     1 N    7    3.258766    5.553954    5.022773      5.00      14.0067
     129     2 Ga  31    3.260896    7.376571    5.805052     13.00      69.7230
     130     1 N    7    3.253954    7.397225    7.795134      5.00      14.0067
     131     2 Ga  31    3.256839    5.549673    8.446295     13.00      69.7230
     132     1 N    7    3.256426    5.551138   10.418752      5.00      14.0067
     133     2 Ga  31    3.258086    7.389918   11.070523     13.00      69.7230
     134     1 N    7    3.255963    7.370697   13.063421      5.00      14.0067
     135     2 Ga  31    3.257184    5.549825   13.867144     13.00      69.7230
     136     1 N    7    3.257573    5.549953   16.067783      5.00      14.0067
     137     2 Ga  31    3.255061    7.589385   16.479152     13.00      69.7230
     138     2 Ga  31    3.284667    9.344712    1.480110     13.00      69.7230
     139     1 N    7    1.752382   10.136313    2.525992      5.00      14.0067
     140     2 Ga  31    1.615942    8.311065    3.307846     13.00      69.7230
     141     1 N    7    1.637764    8.327733    5.241229      5.00      14.0067
     142     2 Ga  31    1.620512   10.210896    5.805315     13.00      69.7230
     143     1 N    7    1.638196   10.194195    7.796306      5.00      14.0067
     144     2 Ga  31    1.659557    8.342117    8.446666     13.00      69.7230
     145     1 N    7    1.659708    8.341799   10.434549      5.00      14.0067
     146     2 Ga  31    1.633462   10.202196   11.069834     13.00      69.7230
     147     1 N    7    1.615865   10.210951   13.062476      5.00      14.0067
     148     2 Ga  31    1.658673    8.342540   13.620062     13.00      69.7230
     149     1 N    7    1.630440    8.328123   15.581491      5.00      14.0067
     150     2 Ga  31    1.811107   10.098410   16.479651     13.00      69.7230
     151     1 N    7    3.262503    9.259458   17.616024      5.00      14.0067
     152     1 N    7    9.698458    1.847671    2.624666      5.00      14.0067
     153     2 Ga  31    9.694231    0.114395    3.307178     13.00      69.7230
     154     1 N    7    9.686285   -0.019946    5.260782      5.00      14.0067
     155     2 Ga  31    9.694511    1.842850    5.879137     13.00      69.7230
     156     1 N    7    9.687857    1.836515    7.852597      5.00      14.0067
     157     2 Ga  31    9.690640   -0.031766    8.434278     13.00      69.7230
     158     1 N    7    9.688244   -0.033982   10.428269      5.00      14.0067
     159     2 Ga  31    9.688915    1.835913   11.024199     13.00      69.7230
     160     1 N    7    9.688155    1.836165   12.996396      5.00      14.0067
     161     2 Ga  31    9.687887   -0.032801   13.619161     13.00      69.7230
     162     1 N    7    9.686473   -0.001962   15.580705      5.00      14.0067
     163     2 Ga  31    9.687689    1.836749   15.859771     13.00      69.7230
     164     1 N    7    7.975223    4.562986    2.528053      5.00      14.0067
     165     2 Ga  31    8.189435    2.713732    3.298778     13.00      69.7230
     166     1 N    7    8.082035    2.766419    5.259012      5.00      14.0067
     167     2 Ga  31    8.108749    4.640144    5.800885     13.00      69.7230
     168     1 N    7    8.090448    4.628637    7.797780      5.00      14.0067
     169     2 Ga  31    8.070816    2.771441    8.437965     13.00      69.7230
     170     1 N    7    8.069500    2.771489   10.431199      5.00      14.0067
     171     2 Ga  31    8.094514    4.631049   11.067577     13.00      69.7230
     172     1 N    7    8.111269    4.640452   13.061658      5.00      14.0067
     173     2 Ga  31    8.068480    2.771551   13.618852     13.00      69.7230
     174     1 N    7    8.097284    2.755317   15.580709      5.00      14.0067
     175     2 Ga  31    7.917484    4.528904   16.480912     13.00      69.7230
     176     1 N    7    6.465878    7.410877    2.605891      5.00      14.0067
     177     2 Ga  31    6.477330    5.674313    3.291599     13.00      69.7230
     178     1 N    7    6.474114    5.553627    5.252053      5.00      14.0067
     179     2 Ga  31    6.473869    7.414348    5.860163     13.00      69.7230
     180     1 N    7    6.471300    7.408961    7.838037      5.00      14.0067
     181     2 Ga  31    6.472875    5.542114    8.432607     13.00      69.7230
     182     1 N    7    6.472209    5.538487   10.426914      5.00      14.0067
     183     2 Ga  31    6.473265    7.407335   11.022396     13.00      69.7230
     184     1 N    7    6.471874    7.407749   12.994377      5.00      14.0067
     185     2 Ga  31    6.471495    5.538352   13.618662     13.00      69.7230
     186     1 N    7    6.469851    5.570555   15.579386      5.00      14.0067
     187     2 Ga  31    6.470470    7.407464   15.861754     13.00      69.7230
     188     1 N    7    4.762116   10.144942    2.533554      5.00      14.0067
     189     2 Ga  31    4.941922    8.266144    3.264599     13.00      69.7230
     190     1 N    7    4.857036    8.335365    5.234912      5.00      14.0067
     191     2 Ga  31    4.896224   10.207810    5.792520     13.00      69.7230
     192     1 N    7    4.874430   10.196679    7.791485      5.00      14.0067
     193     2 Ga  31    4.856790    8.342217    8.433378     13.00      69.7230
     194     1 N    7    4.853339    8.341219   10.427186      5.00      14.0067
     195     2 Ga  31    4.879536   10.200407   11.066513     13.00      69.7230
     196     1 N    7    4.895156   10.210440   13.060962      5.00      14.0067
     197     2 Ga  31    4.853168    8.342233   13.619427     13.00      69.7230
     198     1 N    7    4.879237    8.327315   15.582262      5.00      14.0067
     199     2 Ga  31    4.704693   10.101604   16.479240     13.00      69.7230
     200     3 O    8    0.104795    4.001538   -0.447041      6.00      15.9994
     201     4 H    1    0.335280    5.780935   -0.358504      1.00       1.0079
     202     5 C    6    1.120621    3.279148   -1.171172      4.00      12.0107
     203     4 H    1    2.115615    3.375491   -0.705430      1.00       1.0079
     204     4 H    1    0.874502    2.208555   -1.242211      1.00       1.0079
     205     4 H    1    1.165226    3.695436   -2.187555      1.00       1.0079
     206     2 Ga  31    3.233345    5.507627    2.882262     13.00      69.7230
     207     3 O    8    0.570262    6.715107   -0.116439      6.00      15.9994
     208     4 H    1    0.054690    7.312459    1.653013      1.00       1.0079
     209     5 C    6    2.005239    6.808742   -0.117964      4.00      12.0107
     210     4 H    1    2.296996    7.702095   -0.710845      1.00       1.0079
     211     4 H    1    2.432122    6.952010    0.911056      1.00       1.0079
     212     4 H    1    2.471274    5.934411   -0.594161      1.00       1.0079




 SCF PARAMETERS         Density guess:                                    ATOMIC
                        --------------------------------------------------------
                        max_scf:                                              80
                        max_scf_history:                                       0
                        max_diis:                                              4
                        --------------------------------------------------------
                        eps_scf:                                        5.00E-06
                        eps_scf_history:                                0.00E+00
                        eps_diis:                                       1.00E-01
                        eps_eigval:                                     1.00E-05
                        --------------------------------------------------------
                        level_shift [a.u.]:                                 0.00
                        --------------------------------------------------------
                        Outer loop SCF in use 
                        No variables optimised in outer loop
                        eps_scf                                         5.00E-06
                        max_scf                                                4
                        No outer loop optimization
                        step_size                                       5.00E-01

 PW_GRID| Information for grid number                                          1
 PW_GRID| Grid distributed over                                    80 processors
 PW_GRID| Real space group dimensions                                    80    1
 PW_GRID| the grid is blocked:                                                NO
 PW_GRID| Cutoff [a.u.]                                                    600.0
 PW_GRID| spherical cutoff:                                                   NO
 PW_GRID|   Bounds   1           -144     143                Points:         288
 PW_GRID|   Bounds   2           -144     143                Points:         288
 PW_GRID|   Bounds   3           -337     337                Points:         675
 PW_GRID| Volume element (a.u.^3)  0.5630E-03     Volume (a.u.^3)     31519.8467
 PW_GRID| Grid span                                                    FULLSPACE
 PW_GRID|   Distribution                         Average         Max         Min
 PW_GRID|   G-Vectors                           699840.0      699840      699840
 PW_GRID|   G-Rays                                2430.0        2430        2430
 PW_GRID|   Real Space Points                   699840.0      777600      583200

 PW_GRID| Information for grid number                                          2
 PW_GRID| Grid distributed over                                    80 processors
 PW_GRID| Real space group dimensions                                    80    1
 PW_GRID| the grid is blocked:                                                NO
 PW_GRID| Cutoff [a.u.]                                                    200.0
 PW_GRID| spherical cutoff:                                                   NO
 PW_GRID|   Bounds   1            -80      79                Points:         160
 PW_GRID|   Bounds   2            -80      79                Points:         160
 PW_GRID|   Bounds   3           -200     199                Points:         400
 PW_GRID| Volume element (a.u.^3)  0.3078E-02     Volume (a.u.^3)     31519.8467
 PW_GRID| Grid span                                                    FULLSPACE
 PW_GRID|   Distribution                         Average         Max         Min
 PW_GRID|   G-Vectors                           128000.0      128160      127840
 PW_GRID|   G-Rays                                 800.0         801         799
 PW_GRID|   Real Space Points                   128000.0      128000      128000

 PW_GRID| Information for grid number                                          3
 PW_GRID| Grid distributed over                                    80 processors
 PW_GRID| Real space group dimensions                                    80    1
 PW_GRID| the grid is blocked:                                                NO
 PW_GRID| Cutoff [a.u.]                                                     66.7
 PW_GRID| spherical cutoff:                                                   NO
 PW_GRID|   Bounds   1            -48      47                Points:          96
 PW_GRID|   Bounds   2            -48      47                Points:          96
 PW_GRID|   Bounds   3           -112     112                Points:         225
 PW_GRID| Volume element (a.u.^3)  0.1520E-01     Volume (a.u.^3)     31519.8467
 PW_GRID| Grid span                                                    FULLSPACE
 PW_GRID|   Distribution                         Average         Max         Min
[...]
 flops   991 x    50 x    64         322193920000     100.0%      0.0%      0.0%
 flops   991 x    64 x    50         322193920000     100.0%      0.0%      0.0%
 flops   242 x    64 x   178         410397802496     100.0%      0.0%      0.0%
 flops   242 x    64 x   183         421925830656     100.0%      0.0%      0.0%
 flops    25 x    18 x    13         428120409600     100.0%      0.0%      0.0%
 flops    13 x    18 x    25         428120409600     100.0%      0.0%      0.0%
 flops   973 x    32 x    50         434969920000     100.0%      0.0%      0.0%
 flops   973 x    50 x    32         434969920000     100.0%      0.0%      0.0%
 flops   242 x    64 x   195         449593098240     100.0%      0.0%      0.0%
 flops   955 x    32 x   178         484436142080     100.0%      0.0%      0.0%
 flops   242 x    32 x    32         489411383296     100.0%      0.0%      0.0%
 flops   955 x    32 x   183         498043898880     100.0%      0.0%      0.0%
 flops   991 x    32 x   178         502697609216     100.0%      0.0%      0.0%
 flops   991 x    32 x   183         516818328576     100.0%      0.0%      0.0%
 flops   955 x    32 x   195         530702515200     100.0%      0.0%      0.0%
 flops   991 x    32 x   195         550708055040     100.0%      0.0%      0.0%
 flops     5 x    32 x    25         605084032000     100.0%      0.0%      0.0%
 flops    25 x    32 x     5         605084032000     100.0%      0.0%      0.0%
 flops    25 x    25 x    50         611681250000     100.0%      0.0%      0.0%
 flops   973 x    64 x    50         632683520000     100.0%      0.0%      0.0%
 flops   973 x    50 x    64         632683520000     100.0%      0.0%      0.0%
 flops   955 x    64 x   178         704634388480     100.0%      0.0%      0.0%
 flops   242 x    64 x    32         711871102976     100.0%      0.0%      0.0%
 flops   242 x    32 x    64         711871102976     100.0%      0.0%      0.0%
 flops   955 x    64 x   183         724427489280     100.0%      0.0%      0.0%
 flops   991 x    64 x   178         731196522496     100.0%      0.0%      0.0%
 flops   991 x    64 x   183         751735750656     100.0%      0.0%      0.0%
 flops   955 x    64 x   195         771930931200     100.0%      0.0%      0.0%
 flops   224 x    32 x   178         783486713856     100.0%      0.0%      0.0%
 flops   991 x    64 x   195         801029898240     100.0%      0.0%      0.0%
 flops   224 x    32 x   183         805494767616     100.0%      0.0%      0.0%
 flops    25 x    18 x    25         813600000000     100.0%      0.0%      0.0%
 flops   224 x    32 x   195         858314096640     100.0%      0.0%      0.0%
 flops   973 x    32 x   178         987133751296     100.0%      0.0%      0.0%
 flops   973 x    32 x   183        1014862227456     100.0%      0.0%      0.0%
 flops   242 x    64 x    64        1035448877056     100.0%      0.0%      0.0%
 flops   973 x    32 x   195        1081410570240     100.0%      0.0%      0.0%
 flops    13 x    13 x    32        1131895070592     100.0%      0.0%      0.0%
 flops   224 x    64 x   178        1139617038336     100.0%      0.0%      0.0%
 flops   224 x    64 x   183        1171628752896     100.0%      0.0%      0.0%
 flops   224 x    64 x   195        1248456867840     100.0%      0.0%      0.0%
 flops   224 x    32 x    32        1359026651136     100.0%      0.0%      0.0%
 flops   973 x    64 x   178        1435830910976     100.0%      0.0%      0.0%
 flops   973 x    64 x   183        1476163239936     100.0%      0.0%      0.0%
 flops   955 x    32 x    32        1502769664000     100.0%      0.0%      0.0%
 flops   991 x    32 x    32        1559418572800     100.0%      0.0%      0.0%
 flops   973 x    64 x   195        1572960829440     100.0%      0.0%      0.0%
 flops    13 x    13 x    64        1646392829952     100.0%      0.0%      0.0%
 flops   224 x    32 x    64        1976766038016     100.0%      0.0%      0.0%
 flops   224 x    64 x    32        1976766038016     100.0%      0.0%      0.0%
 flops   955 x    32 x    64        2185846784000     100.0%      0.0%      0.0%
 flops   955 x    64 x    32        2185846784000     100.0%      0.0%      0.0%
 flops    13 x    25 x    32        2241642374400     100.0%      0.0%      0.0%
 flops    25 x    13 x    32        2245364492800     100.0%      0.0%      0.0%
 flops   991 x    32 x    64        2268245196800     100.0%      0.0%      0.0%
 flops   991 x    64 x    32        2268245196800     100.0%      0.0%      0.0%
 flops   224 x    64 x    64        2875296055296     100.0%      0.0%      0.0%
 flops   973 x    32 x    32        3062188236800     100.0%      0.0%      0.0%
 flops   955 x    64 x    64        3179413504000     100.0%      0.0%      0.0%
 flops    13 x    25 x    64        3260570726400     100.0%      0.0%      0.0%
 flops    25 x    13 x    64        3265984716800     100.0%      0.0%      0.0%
 flops   991 x    64 x    64        3299265740800     100.0%      0.0%      0.0%
 flops    25 x    25 x    32        4306236000000     100.0%      0.0%      0.0%
 flops   973 x    64 x    32        4454091980800     100.0%      0.0%      0.0%
 flops   973 x    32 x    64        4454091980800     100.0%      0.0%      0.0%
 flops    25 x    25 x    64        6263616000000     100.0%      0.0%      0.0%
 flops   973 x    64 x    64        6478679244800     100.0%      0.0%      0.0%
 flops    13 x    32 x    13       10637785546752     100.0%      0.0%      0.0%
 flops    25 x    32 x    13       21310882611200     100.0%      0.0%      0.0%
 flops    13 x    32 x    25       21310882611200     100.0%      0.0%      0.0%
 flops    25 x    32 x    25       40499200000000     100.0%      0.0%      0.0%
 flops inhomo. stacks              74188938091968     100.0%      0.0%      0.0%
 flops total                       276.241969E+12     100.0%      0.0%      0.0%
 flops max/rank                      4.795070E+12     100.0%      0.0%      0.0%
 matmuls inhomo. stacks                   7477120     100.0%      0.0%      0.0%
 matmuls total                         5339853174     100.0%      0.0%      0.0%
 number of processed stacks              99597160     100.0%      0.0%      0.0%
 average stack size                                    53.6       0.0       0.0
 marketing flops                   294.893293E+12
 -------------------------------------------------------------------------------
 # multiplications                          26905
 max memory usage/rank               1.470341E+09
 # max total images/rank                        5
 # max 3D layers                                1
 # MPI messages exchanged               245373600
 MPI messages size (bytes):
  total size                        29.274640E+12
  min size                           0.000000E+00
  max size                           1.894792E+06
  average size                     119.306398E+03
 MPI breakdown and total messages size (bytes):
             size <=      128             1339880                        0
       128 < size <=     8192            33377927             273431977984
      8192 < size <=    32768            76936833            1569538994272
     32768 < size <=   131072           105352720            7649141447392
    131072 < size <=  4194304            28366240           19798899256016
   4194304 < size <= 16777216                   0                        0
  16777216 < size                               0                        0
 -------------------------------------------------------------------------------

 *** WARNING in dbcsr/mm/dbcsr_mm.F:268 :: Using a non-square number of ***
 *** MPI ranks might lead to poor performance.                          ***
 *** Used ranks: 80                                                     ***
 *** Suggested: 81 169                                                  ***

 -------------------------------------------------------------------------------
 
 MEMORY| Estimated peak process memory [MiB]                                1427

 -------------------------------------------------------------------------------
 ----                             MULTIGRID INFO                            ----
 -------------------------------------------------------------------------------
 count for grid        1:        1149380          cutoff [a.u.]          600.00
 count for grid        2:        5977421          cutoff [a.u.]          200.00
 count for grid        3:        5154861          cutoff [a.u.]           66.67
 count for grid        4:        7003989          cutoff [a.u.]           22.22
 count for grid        5:        6059439          cutoff [a.u.]            7.41
 total gridlevel count  :       25345090

 -------------------------------------------------------------------------------
 -                                                                             -
 -                         MESSAGE PASSING PERFORMANCE                         -
 -                                                                             -
 -------------------------------------------------------------------------------

 ROUTINE             CALLS      AVE VOLUME [Bytes]
 MP_Group             2367
 MP_Bcast            26074                  15803.
 MP_Allreduce       210672                    226.
 MP_Sync              1255
 MP_Alltoall        143922                5520897.
 MP_SendRecv         12324                   5937.
 MP_ISendRecv       679716                 133520.
 MP_Wait           5966951
 MP_comm_split        1250
 MP_ISend          6884232                 113290.
 MP_IRecv          6886256                 113187.
 MP_Recv               722                 162816.
 MP_Memory         3004090
 -------------------------------------------------------------------------------


 -------------------------------------------------------------------------------
 -                                                                             -
 -                           R E F E R E N C E S                               -
 -                                                                             -
 -------------------------------------------------------------------------------
 
 CP2K version 7.0 (Development Version), the CP2K developers group (2018).
 CP2K is freely available from https://www.cp2k.org/ .

 Schuett, Ole; Messmer, Peter; Hutter, Juerg; VandeVondele, Joost. 
 Electronic Structure Calculations on Graphics Processing Units, John Wiley & Sons, Ltd, 173-190 (2016). 
 GPU-Accelerated Sparse Matrix-Matrix Multiplication for Linear Scaling Density Functional Theory.
 http://dx.doi.org/10.1002/9781118670712.ch8


 Borstnik, U; VandeVondele, J; Weber, V; Hutter, J. 
 PARALLEL COMPUTING, 40 (5-6), 47-58 (2014). 
 Sparse matrix multiplication: The distributed block-compressed sparse
 row library.
 http://dx.doi.org/10.1016/j.parco.2014.03.012


 Hutter, J; Iannuzzi, M; Schiffmann, F; VandeVondele, J. 
 WILEY INTERDISCIPLINARY REVIEWS-COMPUTATIONAL MOLECULAR SCIENCE, 4 (1), 15-25 (2014). 
 CP2K: atomistic simulations of condensed matter systems.
 http://dx.doi.org/10.1002/wcms.1159


 Grimme, S; Ehrlich, S; Goerigk, L. 
 JOURNAL OF COMPUTATIONAL CHEMISTRY, 32, 1456 (2011). 
 Effect of the damping function in dispersion corrected density functional theory.
 http://dx.doi.org/10.1002/jcc.21759


 Grimme, S; Antony, J; Ehrlich, S; Krieg, H. 
 JOURNAL OF CHEMICAL PHYSICS, 132 (15), 154104 (2010). 
 A consistent and accurate ab initio parametrization of density
 functional dispersion correction (DFT-D) for the 94 elements H-Pu.
 http://dx.doi.org/10.1063/1.3382344


 VandeVondele, J; Hutter, J. 
 JOURNAL OF CHEMICAL PHYSICS, 127 (11), 114105 (2007). 
 Gaussian basis sets for accurate calculations on molecular systems in
 gas and condensed phases.
 http://dx.doi.org/10.1063/1.2770708


 Krack, M. 
 THEORETICAL CHEMISTRY ACCOUNTS, 114 (1-3), 145-152 (2005). 
 Pseudopotentials for H to Kr optimized for gradient-corrected
 exchange-correlation functionals.
 http://dx.doi.org/10.1007/s00214-005-0655-y


 VandeVondele, J; Krack, M; Mohamed, F; Parrinello, M; Chassaing, T;
 Hutter, J. COMPUTER PHYSICS COMMUNICATIONS, 167 (2), 103-128 (2005). 
 QUICKSTEP: Fast and accurate density functional calculations using a
 mixed Gaussian and plane waves approach.
 http://dx.doi.org/10.1016/j.cpc.2004.12.014


 Frigo, M; Johnson, SG. 
 PROCEEDINGS OF THE IEEE, 93 (2), 216-231 (2005). 
 The design and implementation of FFTW3.
 http://dx.doi.org/10.1109/JPROC.2004.840301


 Kolafa, J. 
 JOURNAL OF COMPUTATIONAL CHEMISTRY, 25 (3), 335-342 (2004). 
 Time-reversible always stable predictor-corrector method for molecular dynamics of polarizable molecules.
 http://dx.doi.org/10.1002/jcc.10385


 VandeVondele, J; Hutter, J. 
 JOURNAL OF CHEMICAL PHYSICS, 118 (10), 4365-4369 (2003). 
 An efficient orbital transformation method for electronic structure
 calculations.
 http://dx.doi.org/10.1063/1.1543154


 Hartwigsen, C; Goedecker, S; Hutter, J. 
 PHYSICAL REVIEW B, 58 (7), 3641-3662 (1998). 
 Relativistic separable dual-space Gaussian pseudopotentials from H to Rn.
 http://dx.doi.org/10.1103/PhysRevB.58.3641


 Lippert, G; Hutter, J; Parrinello, M. 
 MOLECULAR PHYSICS, 92 (3), 477-487 (1997). 
 A hybrid Gaussian and plane wave density functional scheme.
 http://dx.doi.org/10.1080/002689797170220


 Perdew, JP; Burke, K; Ernzerhof, M. 
 PHYSICAL REVIEW LETTERS, 77 (18), 3865-3868 (1996). 
 Generalized gradient approximation made simple.
 http://dx.doi.org/10.1103/PhysRevLett.77.3865


 Goedecker, S; Teter, M; Hutter, J. 
 PHYSICAL REVIEW B, 54 (3), 1703-1710 (1996). 
 Separable dual-space Gaussian pseudopotentials.
 http://dx.doi.org/10.1103/PhysRevB.54.1703


 -------------------------------------------------------------------------------
 -                                                                             -
 -                                T I M I N G                                  -
 -                                                                             -
 -------------------------------------------------------------------------------
 SUBROUTINE                       CALLS  ASD         SELF TIME        TOTAL TIME
                                MAXIMUM       AVERAGE  MAXIMUM  AVERAGE  MAXIMUM
 CP2K                                 1  1.0     0.12     0.13 13201.54 13201.56
 cp_geo_opt                           1  2.0     0.02     0.05 13200.30 13200.33
 geoopt_bfgs                          1  3.0     0.07     0.26 13200.28 13200.29
 cp_eval_at                          40  4.0     0.06     0.12 13180.48 13180.55
 qs_forces                           39  5.0     0.03     0.07 13065.82 13065.83
 qs_energies                         40  6.0     0.03     0.07 12384.23 12384.30
 scf_env_do_scf                      40  7.0     0.02     0.06 11871.12 11871.15
 scf_env_do_scf_inner_loop          890  8.0     0.12     0.23 10967.50 10967.53
 rebuild_ks_matrix                  929  9.9     0.01     0.01  5721.77  5723.26
 qs_ks_build_kohn_sham_matrix       929 10.9     0.42     0.67  5721.76  5723.26
 qs_ks_update_qs_env                931  9.0     0.02     0.03  5018.40  5019.72
 qs_rho_update_rho                  930  9.0     0.02     0.03  4836.22  4839.07
 calculate_rho_elec                1860 10.0  2414.81  2460.43  4836.20  4839.04
 sum_up_and_integrate               504 11.8     7.55     8.44  3073.95  3074.86
 integrate_v_rspace                1008 12.8  1685.64  1739.11  3066.40  3068.47
 pw_transfer                      29137 13.4     3.10     3.53  2956.57  2970.17
 fft_wrap_pw1pw2                  27279 14.4     0.32     0.37  2942.02  2955.65
 fft_wrap_pw1pw2_600              15807 15.7   174.89   197.69  2729.13  2744.88
 fft3d_ps                         27279 16.4   812.93   896.35  2532.34  2566.09
 rs_pw_transfer                   14539 13.0     0.21     0.26  2320.95  2363.24
 density_rs2pw                     1860 11.0     0.16     0.18  2169.62  2228.21
 qs_vxc_create                      929 11.9     0.03     0.05  2066.98  2067.50
 dbcsr_multiply_generic           26905 13.8     1.80     2.43  1845.45  1849.75
 mp_waitall_1                   5444671 16.7  1629.27  1701.80  1629.27  1701.80
 qs_scf_new_mos                     890  9.0     0.02     0.04  1698.79  1700.38
 qs_scf_loop_do_ot                  890 10.0     0.06     0.19  1698.77  1700.37
 mp_alltoall_z22v                 27279 18.4  1489.09  1659.15  1489.09  1659.15
 ot_scf_mini                        890 11.0     0.19     0.37  1560.40  1561.31
 xc_vxc_pw_create                   504 12.8    98.34   111.07  1517.77  1518.01
 multiply_cannon                  26905 14.8     8.58     9.09  1420.64  1452.43
 xc_rho_set_and_dset_create         929 13.9    16.36    17.53  1132.88  1151.58
 mp_waitany                      522280 14.9  1024.95  1101.69  1024.95  1101.69
 potential_pw2rs                   1008 13.8     0.79     0.89  1092.17  1094.24
 x_to_yz                          11891 18.0   129.17   146.98   975.43  1037.35
 rs_pw_transfer_RS2PW_600          1940 13.0   383.18   418.70   983.93  1027.15
 multiply_cannon_metrocomm3      538100 15.8     1.46     1.54   834.07   943.81
 init_scf_loop                       41  8.0     0.01     0.04   902.38   902.41
 yz_to_x                           9652 16.9    79.40    83.02   720.83   803.62
 ot_mini                            890 12.0     0.02     0.05   795.13   796.48
 qs_ks_update_qs_env_forces          39  6.0     0.00     0.00   712.57   712.73
 rs_pw_transfer_PW2RS_600          1127 15.3   252.41   273.72   635.57   652.03
 xc_exc_calc                        425 13.0     2.07     2.32   549.17   549.48
 qs_ot_get_derivative               930 13.0     0.02     0.05   505.88   507.08
 prepare_preconditioner              41  9.0     0.00     0.01   499.91   500.05
 make_preconditioner                 82 10.0     0.01     0.02   462.73   462.80
 multiply_cannon_metrocomm1      538100 15.8     1.67     1.79   340.24   435.55
 make_full_all                       82 11.0     0.03     0.10   423.36   423.52
 mp_alltoall_d11v                 27925 15.4   369.57   418.17   369.57   418.17
 rs_distribute_matrix              2946 12.0     3.61     7.40   348.00   394.71
 cp_fm_syevd                       1250 14.1     0.01     0.03   365.90   366.65
 cp_fm_redistribute_end            1250 15.1   132.62   352.86   134.59   354.43
 qs_ot_get_p                       1862 11.9     0.03     0.18   338.10   343.21
 cp_fm_syevd_base                  1250 14.8   218.41   338.97   218.41   338.97
 init_scf_run                        40  7.0     0.00     0.01   315.78   315.80
 scf_env_initial_rho_setup           40  8.0     0.01     0.03   315.78   315.80
 wfi_extrapolate                     40  9.0     0.02     0.05   309.08   309.11
 apply_preconditioner_dbcsr        1012 14.0     0.01     0.03   304.06   304.92
 apply_all                         1012 15.0     0.12     0.18   304.05   304.90
 ot_new_cg_direction                465 13.0     0.03     0.07   282.69   282.74
 mp_sum_d                         30368 14.4   215.41   274.77   215.41   274.77
 -------------------------------------------------------------------------------

 The number of warnings for this run is : 1
 
 -------------------------------------------------------------------------------
  **** **** ******  **  PROGRAM ENDED AT                 2019-07-12 15:21:05.060
 ***** ** ***  *** **   PROGRAM RAN ON            blg9231.int.ets1.calculquebec.
 **    ****   ******    PROGRAM RAN BY                                       rzk
 ***** **    ** ** **   PROGRAM PROCESS ID                                139966
  **** **  *******  **  PROGRAM STOPPED IN /lustre04/scratch/rzk/rzk/GaN-carbene
                                           /443-adatoms-both-2x2/09-BondBreaking
                                           -CH/02-0401-CH-to-NTop-PES
