 DBCSR| Multiplication driver                                               BLAS
 DBCSR| Multrec recursion limit                                              512
 DBCSR| Multiplication stack size                                           1000
 DBCSR| Maximum elements for images                                    UNLIMITED
 DBCSR| Multiplicative factor virtual images                                   1
 DBCSR| Multiplication size stacks                                             3
 DBCSR| Number of 3D layers                                               SINGLE
 DBCSR| Use MPI memory allocation                                              T
 DBCSR| Use RMA algorithm                                                      F
 DBCSR| Use Communication thread                                               T
 DBCSR| Communication thread load                                             87


  **** **** ******  **  PROGRAM STARTED AT               2019-07-11 23:40:33.547
 ***** ** ***  *** **   PROGRAM STARTED ON        blg9231.int.ets1.calculquebec.
 **    ****   ******    PROGRAM STARTED BY                                   rzk
 ***** **    ** ** **   PROGRAM PROCESS ID                                 84352
  **** **  *******  **  PROGRAM STARTED IN /lustre04/scratch/rzk/rzk/GaN-carbene
                                           /443-adatoms-both-2x2/09-BondBreaking
                                           -CH/02-0401-CH-to-NTop-PES

 CP2K| version string:                    CP2K version 7.0 (Development Version)
 CP2K| source code revision number:                                    svn:18619
 CP2K| cp2kflags: libint fftw3 libxc parallel mpi3 scalapack mkl                
 CP2K| is freely available from                            https://www.cp2k.org/
 CP2K| Program compiled at                          Sun Apr  7 00:48:11 EDT 2019
 CP2K| Program compiled on                      beluga2.int.ets1.calculquebec.ca
 CP2K| Program compiled for                    Beluga-Linux-x86-64-intel-openmpi
 CP2K| Data directory path    /home/rzk/projects/def-rzk/group/cp2k/cp2k-mcgill/
 CP2K| Input file name                                            TEST-1.restart
 
 GLOBAL| Force Environment number                                              1
 GLOBAL| Basis set file name                                        BASIS_MOLOPT
 GLOBAL| Potential file name                                      GTH_POTENTIALS
 GLOBAL| MM Potential file name                                     MM_POTENTIAL
 GLOBAL| Coordinate file name                                      __STD_INPUT__
 GLOBAL| Method name                                                        CP2K
 GLOBAL| Project name                                                       TEST
 GLOBAL| Preferred FFT library                                             FFTW3
 GLOBAL| Preferred diagonalization lib.                                       SL
 GLOBAL| Run type                                                        GEO_OPT
 GLOBAL| All-to-all communication in single precision                          F
 GLOBAL| FFTs using library dependent lengths                                  F
 GLOBAL| Global print level                                               MEDIUM
 GLOBAL| MPI I/O enabled                                                       T
 GLOBAL| Total number of message passing processes                            80
 GLOBAL| Number of threads for this process                                    1
 GLOBAL| This output is from process                                           0
 GLOBAL| CPU model name :  Intel(R) Xeon(R) Gold 6148 CPU @ 2.40GHz

 MEMORY| system memory details [Kb]
 MEMORY|                        rank 0           min           max       average
 MEMORY| MemTotal            196614300     196614300     196614300     196614300
 MEMORY| MemFree             181756220     178905696     181760560     180371717
 MEMORY| Buffers                     0             0             0             0
 MEMORY| Cached                1572264       1572264       1946136       1759200
 MEMORY| Slab                  1330108       1330108       1497768       1413938
 MEMORY| SReclaimable           247624        247624        253752        250688
 MEMORY| MemLikelyFree       183576108     181105584     183580448     182381605


 *** Fundamental physical constants (SI units) ***

 *** Literature: B. J. Mohr and B. N. Taylor,
 ***             CODATA recommended values of the fundamental physical
 ***             constants: 2006, Web Version 5.1
 ***             http://physics.nist.gov/constants

 Speed of light in vacuum [m/s]                             2.99792458000000E+08
 Magnetic constant or permeability of vacuum [N/A**2]       1.25663706143592E-06
 Electric constant or permittivity of vacuum [F/m]          8.85418781762039E-12
 Planck constant (h) [J*s]                                  6.62606896000000E-34
 Planck constant (h-bar) [J*s]                              1.05457162825177E-34
 Elementary charge [C]                                      1.60217648700000E-19
 Electron mass [kg]                                         9.10938215000000E-31
 Electron g factor [ ]                                     -2.00231930436220E+00
 Proton mass [kg]                                           1.67262163700000E-27
 Fine-structure constant                                    7.29735253760000E-03
 Rydberg constant [1/m]                                     1.09737315685270E+07
 Avogadro constant [1/mol]                                  6.02214179000000E+23
 Boltzmann constant [J/K]                                   1.38065040000000E-23
 Atomic mass unit [kg]                                      1.66053878200000E-27
 Bohr radius [m]                                            5.29177208590000E-11

 *** Conversion factors ***

 [u] -> [a.u.]                                              1.82288848426455E+03
 [Angstrom] -> [Bohr] = [a.u.]                              1.88972613288564E+00
 [a.u.] = [Bohr] -> [Angstrom]                              5.29177208590000E-01
 [a.u.] -> [s]                                              2.41888432650478E-17
 [a.u.] -> [fs]                                             2.41888432650478E-02
 [a.u.] -> [J]                                              4.35974393937059E-18
 [a.u.] -> [N]                                              8.23872205491840E-08
 [a.u.] -> [K]                                              3.15774647902944E+05
 [a.u.] -> [kJ/mol]                                         2.62549961709828E+03
 [a.u.] -> [kcal/mol]                                       6.27509468713739E+02
 [a.u.] -> [Pa]                                             2.94210107994716E+13
 [a.u.] -> [bar]                                            2.94210107994716E+08
 [a.u.] -> [atm]                                            2.90362800883016E+08
 [a.u.] -> [eV]                                             2.72113838565563E+01
 [a.u.] -> [Hz]                                             6.57968392072181E+15
 [a.u.] -> [1/cm] (wave numbers)                            2.19474631370540E+05
 [a.u./Bohr**2] -> [1/cm]                                   5.14048714338585E+03
 
          ----------------------------------------------------------------------
 COLVARS| COLVAR INPUT INDEX:        1
 COLVARS| BOND          >>> ATOMS:                                   127     211
          ----------------------------------------------------------------------

 CELL_TOP| Volume [angstrom^3]:                                         4586.323
 CELL_TOP| Vector a [angstrom    12.864     0.000     0.000    |a| =      12.864
 CELL_TOP| Vector b [angstrom    -6.432    11.141     0.000    |b| =      12.864
 CELL_TOP| Vector c [angstrom     0.000     0.000    32.000    |c| =      32.000
 CELL_TOP| Angle (b,c), alpha [degree]:                                   90.000
 CELL_TOP| Angle (a,c), beta  [degree]:                                   90.000
 CELL_TOP| Angle (a,b), gamma [degree]:                                  120.000
 CELL_TOP| Numerically orthorhombic:                                          NO
 RESTRAINT| Active restraint on COLLECTIVE section Nr.     1. K [a.u.]= 2.000000
 
 GENERATE|  Preliminary Number of Bonds generated:                             0
 GENERATE|  Achieved consistency in connectivity generation.

 CELL| Volume [angstrom^3]:                                             4586.323
 CELL| Vector a [angstrom]:      12.864     0.000     0.000    |a| =      12.864
 CELL| Vector b [angstrom]:      -6.432    11.141     0.000    |b| =      12.864
 CELL| Vector c [angstrom]:       0.000     0.000    32.000    |c| =      32.000
 CELL| Angle (b,c), alpha [degree]:                                       90.000
 CELL| Angle (a,c), beta  [degree]:                                       90.000
 CELL| Angle (a,b), gamma [degree]:                                      120.000
 CELL| Numerically orthorhombic:                                              NO

 CELL_REF| Volume [angstrom^3]:                                         4670.759
 CELL_REF| Vector a [angstrom    12.982     0.000     0.000    |a| =      12.982
 CELL_REF| Vector b [angstrom    -6.491    11.243     0.000    |b| =      12.982
 CELL_REF| Vector c [angstrom     0.000     0.000    32.000    |c| =      32.000
 CELL_REF| Angle (b,c), alpha [degree]:                                   90.000
 CELL_REF| Angle (a,c), beta  [degree]:                                   90.000
 CELL_REF| Angle (a,b), gamma [degree]:                                  120.000
 CELL_REF| Numerically orthorhombic:                                          NO

 *******************************************************************************
 *******************************************************************************
 **                                                                           **
 **     #####                         ##              ##                      **
 **    ##   ##            ##          ##              ##                      **
 **   ##     ##                       ##            ######                    **
 **   ##     ##  ##   ##  ##   #####  ##  ##   ####   ##    #####    #####    **
 **   ##     ##  ##   ##  ##  ##      ## ##   ##      ##   ##   ##  ##   ##   **
 **   ##  ## ##  ##   ##  ##  ##      ####     ###    ##   ######   ######    **
 **    ##  ###   ##   ##  ##  ##      ## ##      ##   ##   ##       ##        **
 **     #######   #####   ##   #####  ##  ##  ####    ##    #####   ##        **
 **           ##                                                    ##        **
 **                                                                           **
 **                                                ... make the atoms dance   **
 **                                                                           **
 **            Copyright (C) by CP2K developers group (2000 - 2018)           **
 **                                                                           **
 *******************************************************************************

 DFT| Spin unrestricted (spin-polarized) Kohn-Sham calculation               UKS
 DFT| Multiplicity                                                             1
 DFT| Number of spin states                                                    2
 DFT| Charge                                                                   0
 DFT| Self-interaction correction (SIC)                                       NO
 DFT| Cutoffs: density                                              1.000000E-10
 DFT|          gradient                                             1.000000E-10
 DFT|          tau                                                  1.000000E-10
 DFT|          cutoff_smoothing_range                               0.000000E+00
 DFT| XC density smoothing                                                  NONE
 DFT| XC derivatives                                                          PW
 FUNCTIONAL| ROUTINE=NEW
 FUNCTIONAL| PBE:
 FUNCTIONAL| J.P.Perdew, K.Burke, M.Ernzerhof, Phys. Rev. Letter, vol. 77, n 18,
 FUNCTIONAL|  pp. 3865-3868, (1996){spin polarized}                             
 vdW POTENTIAL|                                                   Pair Potential
 vdW POTENTIAL|          DFT-D3 (Version 3.1)
 vdW POTENTIAL|          Potential Form: S. Grimme et al, JCP 132: 154104 (2010)
 vdW POTENTIAL|          Zero Damping
 vdW POTENTIAL|          Cutoff Radius [Bohr]:                             18.90
 vdW POTENTIAL|          s6 Scaling Factor:                               1.0000
 vdW POTENTIAL|          sr6 Scaling Factor:                              1.2170
 vdW POTENTIAL|          s8 Scaling Factor:                               0.7220
 vdW POTENTIAL|          Cutoff for CN calculation:                   0.1000E-05

 QS| Method:                                                                 GPW
 QS| Density plane wave grid type                        NON-SPHERICAL FULLSPACE
 QS| Number of grid levels:                                                    5
 QS| Density cutoff [a.u.]:                                                600.0
 QS| Multi grid cutoff [a.u.]: 1) grid level                               600.0
 QS|                           2) grid level                               200.0
 QS|                           3) grid level                                66.7
 QS|                           4) grid level                                22.2
 QS|                           5) grid level                                 7.4
 QS| Grid level progression factor:                                          3.0
 QS| Relative density cutoff [a.u.]:                                        20.0
 QS| Consistent realspace mapping and integration 
 QS| Interaction thresholds: eps_pgf_orb:                                1.0E-07
 QS|                         eps_filter_matrix:                          0.0E+00
 QS|                         eps_core_charge:                            1.0E-16
 QS|                         eps_rho_gspace:                             1.0E-14
 QS|                         eps_rho_rspace:                             1.0E-14
 QS|                         eps_gvg_rspace:                             1.0E-07
 QS|                         eps_ppl:                                    1.0E-02
 QS|                         eps_ppnl:                                   1.0E-09


 ATOMIC KIND INFORMATION

  1. Atomic kind: N                                     Number of atoms:     100

     Orbital Basis Set                                        DZVP-MOLOPT-SR-GTH

       Number of orbital shell sets:                                           1
       Number of orbital shells:                                               5
       Number of primitive Cartesian functions:                                5
       Number of Cartesian basis functions:                                   14
       Number of spherical basis functions:                                   13
       Norm type:                                                              2

       Normalised Cartesian orbitals:

                        Set   Shell   Orbital            Exponent    Coefficient

                          1       1    2s                7.341988       0.360561
                                                         2.542637       0.139177
                                                         0.888575      -0.289383
                                                         0.333802      -0.182244
                                                         0.112012      -0.019197

                          1       2    3s                7.341988       0.282000
                                                         2.542637       0.177875
                                                         0.888575      -0.278381
                                                         0.333802       0.008577
                                                         0.112012       0.154176

                          1       3    3px               7.341988      -1.188719
                                                         2.542637      -0.973969
                                                         0.888575      -0.501079
                                                         0.333802      -0.144894
                                                         0.112012      -0.013986
                          1       3    3py               7.341988      -1.188719
                                                         2.542637      -0.973969
                                                         0.888575      -0.501079
                                                         0.333802      -0.144894
                                                         0.112012      -0.013986
                          1       3    3pz               7.341988      -1.188719
                                                         2.542637      -0.973969
                                                         0.888575      -0.501079
                                                         0.333802      -0.144894
                                                         0.112012      -0.013986

                          1       4    4px               7.341988      -0.094798
                                                         2.542637       0.050069
                                                         0.888575      -0.114797
                                                         0.333802       0.144793
                                                         0.112012       0.066710
                          1       4    4py               7.341988      -0.094798
                                                         2.542637       0.050069
                                                         0.888575      -0.114797
                                                         0.333802       0.144793
                                                         0.112012       0.066710
                          1       4    4pz               7.341988      -0.094798
                                                         2.542637       0.050069
                                                         0.888575      -0.114797
                                                         0.333802       0.144793
                                                         0.112012       0.066710

                          1       5    4dx2              7.341988       1.354688
                                                         2.542637       0.690378
                                                         0.888575       0.855359
                                                         0.333802       0.091746
                                                         0.112012       0.001253
                          1       5    4dxy              7.341988       2.346389
                                                         2.542637       1.195770
                                                         0.888575       1.481524
                                                         0.333802       0.158910
                                                         0.112012       0.002169
                          1       5    4dxz              7.341988       2.346389
                                                         2.542637       1.195770
                                                         0.888575       1.481524
                                                         0.333802       0.158910
                                                         0.112012       0.002169
                          1       5    4dy2              7.341988       1.354688
                                                         2.542637       0.690378
                                                         0.888575       0.855359
                                                         0.333802       0.091746
                                                         0.112012       0.001253
                          1       5    4dyz              7.341988       2.346389
                                                         2.542637       1.195770
                                                         0.888575       1.481524
                                                         0.333802       0.158910
                                                         0.112012       0.002169
                          1       5    4dz2              7.341988       1.354688
                                                         2.542637       0.690378
                                                         0.888575       0.855359
                                                         0.333802       0.091746
                                                         0.112012       0.001253

     GTH Potential information for                                    GTH-PBE-q5

       Description:                       Goedecker-Teter-Hutter pseudopotential
                                           Goedecker et al., PRB 54, 1703 (1996)
                                          Hartwigsen et al., PRB 58, 3641 (1998)
                                                      Krack, TCA 114, 145 (2005)

       Gaussian exponent of the core charge distribution:               6.208322
       Electronic configuration (s p d ...):                               2   3

       Parameters of the local part of the GTH pseudopotential:

                          rloc        C1          C2          C3          C4
                        0.283791  -12.415226    1.868096

       Parameters of the non-local part of the GTH pseudopotential:

                   l      r(l)      h(i,j,l)

                   0    0.255405   13.630263
                   1    0.245495

  2. Atomic kind: Ga                                    Number of atoms:     100

     Orbital Basis Set                                        DZVP-MOLOPT-SR-GTH

       Number of orbital shell sets:                                           1
       Number of orbital shells:                                               7
       Number of primitive Cartesian functions:                                6
       Number of Cartesian basis functions:                                   30
       Number of spherical basis functions:                                   25
       Norm type:                                                              2

       Normalised Cartesian orbitals:

                        Set   Shell   Orbital            Exponent    Coefficient

                          1       1    2s                7.066654       0.013136
                                                         3.428369      -0.094392
                                                         1.430064       0.265435
                                                         0.571611       0.056465
                                                         0.232197      -0.192187
                                                         0.076562      -0.044987

                          1       2    3s                7.066654      -0.098564
                                                         3.428369       0.010390
                                                         1.430064       0.351249
                                                         0.571611       0.182615
                                                         0.232197      -0.425358
                                                         0.076562       0.190349

                          1       3    3px               7.066654       0.002364
                                                         3.428369       0.019222
                                                         1.430064       0.250132
                                                         0.571611      -0.058486
                                                         0.232197      -0.159451
                                                         0.076562      -0.020696
                          1       3    3py               7.066654       0.002364
                                                         3.428369       0.019222
                                                         1.430064       0.250132
                                                         0.571611      -0.058486
                                                         0.232197      -0.159451
                                                         0.076562      -0.020696
                          1       3    3pz               7.066654       0.002364
                                                         3.428369       0.019222
                                                         1.430064       0.250132
                                                         0.571611      -0.058486
                                                         0.232197      -0.159451
                                                         0.076562      -0.020696

                          1       4    4px               7.066654       0.492448
                                                         3.428369      -0.614736
                                                         1.430064      -0.191654
                                                         0.571611       0.037801
                                                         0.232197       0.302315
                                                         0.076562      -0.071336
                          1       4    4py               7.066654       0.492448
                                                         3.428369      -0.614736
                                                         1.430064      -0.191654
                                                         0.571611       0.037801
                                                         0.232197       0.302315
                                                         0.076562      -0.071336
                          1       4    4pz               7.066654       0.492448
                                                         3.428369      -0.614736
                                                         1.430064      -0.191654
                                                         0.571611       0.037801
                                                         0.232197       0.302315
                                                         0.076562      -0.071336

                          1       5    4dx2              7.066654     -15.264855
                                                         3.428369      -5.345726
                                                         1.430064      -1.022732
                                                         0.571611      -0.123148
                                                         0.232197      -0.006983
                                                         0.076562      -0.000022
                          1       5    4dxy              7.066654     -26.439504
                                                         3.428369      -9.259069
                                                         1.430064      -1.771423
                                                         0.571611      -0.213299
                                                         0.232197      -0.012094
                                                         0.076562      -0.000037
                          1       5    4dxz              7.066654     -26.439504
                                                         3.428369      -9.259069
                                                         1.430064      -1.771423
                                                         0.571611      -0.213299
                                                         0.232197      -0.012094
                                                         0.076562      -0.000037
                          1       5    4dy2              7.066654     -15.264855
                                                         3.428369      -5.345726
                                                         1.430064      -1.022732
                                                         0.571611      -0.123148
                                                         0.232197      -0.006983
                                                         0.076562      -0.000022
                          1       5    4dyz              7.066654     -26.439504
                                                         3.428369      -9.259069
                                                         1.430064      -1.771423
                                                         0.571611      -0.213299
                                                         0.232197      -0.012094
                                                         0.076562      -0.000037
                          1       5    4dz2              7.066654     -15.264855
                                                         3.428369      -5.345726
                                                         1.430064      -1.022732
                                                         0.571611      -0.123148
                                                         0.232197      -0.006983
                                                         0.076562      -0.000022

                          1       6    5dx2              7.066654      -5.739265
                                                         3.428369      -2.129289
                                                         1.430064      -0.700423
                                                         0.571611       0.161606
                                                         0.232197       0.043513
                                                         0.076562       0.011205
                          1       6    5dxy              7.066654      -9.940698
                                                         3.428369      -3.688037
                                                         1.430064      -1.213168
                                                         0.571611       0.279909
                                                         0.232197       0.075368
                                                         0.076562       0.019407
                          1       6    5dxz              7.066654      -9.940698
                                                         3.428369      -3.688037
                                                         1.430064      -1.213168
                                                         0.571611       0.279909
                                                         0.232197       0.075368
                                                         0.076562       0.019407
                          1       6    5dy2              7.066654      -5.739265
                                                         3.428369      -2.129289
                                                         1.430064      -0.700423
                                                         0.571611       0.161606
                                                         0.232197       0.043513
                                                         0.076562       0.011205
                          1       6    5dyz              7.066654      -9.940698
                                                         3.428369      -3.688037
                                                         1.430064      -1.213168
                                                         0.571611       0.279909
                                                         0.232197       0.075368
                                                         0.076562       0.019407
                          1       6    5dz2              7.066654      -5.739265
                                                         3.428369      -2.129289
                                                         1.430064      -0.700423
                                                         0.571611       0.161606
                                                         0.232197       0.043513
                                                         0.076562       0.011205

                          1       7    5fx3              7.066654       0.705879
                                                         3.428369      -0.273976
                                                         1.430064       0.113667
                                                         0.571611       0.132480
                                                         0.232197       0.012437
                                                         0.076562       0.003241
                          1       7    5fx2y             7.066654       1.578393
                                                         3.428369      -0.612629
                                                         1.430064       0.254167
                                                         0.571611       0.296234
                                                         0.232197       0.027811
                                                         0.076562       0.007246
                          1       7    5fx2z             7.066654       1.578393
                                                         3.428369      -0.612629
                                                         1.430064       0.254167
                                                         0.571611       0.296234
                                                         0.232197       0.027811
                                                         0.076562       0.007246
                          1       7    5fxy2             7.066654       1.578393
                                                         3.428369      -0.612629
                                                         1.430064       0.254167
                                                         0.571611       0.296234
                                                         0.232197       0.027811
                                                         0.076562       0.007246
                          1       7    5fxyz             7.066654       2.733856
                                                         3.428369      -1.061105
                                                         1.430064       0.440230
                                                         0.571611       0.513092
                                                         0.232197       0.048170
                                                         0.076562       0.012551
                          1       7    5fxz2             7.066654       1.578393
                                                         3.428369      -0.612629
                                                         1.430064       0.254167
                                                         0.571611       0.296234
                                                         0.232197       0.027811
                                                         0.076562       0.007246
                          1       7    5fy3              7.066654       0.705879
                                                         3.428369      -0.273976
                                                         1.430064       0.113667
                                                         0.571611       0.132480
                                                         0.232197       0.012437
                                                         0.076562       0.003241
                          1       7    5fy2z             7.066654       1.578393
                                                         3.428369      -0.612629
                                                         1.430064       0.254167
                                                         0.571611       0.296234
                                                         0.232197       0.027811
                                                         0.076562       0.007246
                          1       7    5fyz2             7.066654       1.578393
                                                         3.428369      -0.612629
                                                         1.430064       0.254167
                                                         0.571611       0.296234
                                                         0.232197       0.027811
                                                         0.076562       0.007246
                          1       7    5fz3              7.066654       0.705879
                                                         3.428369      -0.273976
                                                         1.430064       0.113667
                                                         0.571611       0.132480
                                                         0.232197       0.012437
                                                         0.076562       0.003241

     GTH Potential information for                                   GTH-PBE-q13

       Description:                       Goedecker-Teter-Hutter pseudopotential
                                           Goedecker et al., PRB 54, 1703 (1996)
                                          Hartwigsen et al., PRB 58, 3641 (1998)
                                                      Krack, TCA 114, 145 (2005)

       Gaussian exponent of the core charge distribution:               2.082466
       Electronic configuration (s p d ...):                           2   1  10

       Parameters of the local part of the GTH pseudopotential:

                          rloc        C1          C2          C3          C4
                        0.490000

       Parameters of the non-local part of the GTH pseudopotential:

                   l      r(l)      h(i,j,l)

                   0    0.416777   10.475690   -4.921768    0.870706
                                   -4.921768    7.770178   -2.248152
                                    0.870706   -2.248152    1.784415
                   1    0.569627    1.777985    0.195860
                                    0.195860   -0.231744
                   2    0.238126  -16.248680

  3. Atomic kind: O                                     Number of atoms:       2

     Orbital Basis Set                                     DZVP-MOLOPT-SR-GTH-q6

       Number of orbital shell sets:                                           1
       Number of orbital shells:                                               5
       Number of primitive Cartesian functions:                                5
       Number of Cartesian basis functions:                                   14
       Number of spherical basis functions:                                   13
       Norm type:                                                              2

       Normalised Cartesian orbitals:

                        Set   Shell   Orbital            Exponent    Coefficient

                          1       1    2s               10.389228       0.396646
                                                         3.849621       0.208811
                                                         1.388401      -0.301641
                                                         0.496955      -0.274061
                                                         0.162492      -0.033677

                          1       2    3s               10.389228       0.303673
                                                         3.849621       0.240943
                                                         1.388401      -0.313066
                                                         0.496955      -0.043055
                                                         0.162492       0.213991

                          1       3    3px              10.389228      -1.530415
                                                         3.849621      -1.371928
                                                         1.388401      -0.761951
                                                         0.496955      -0.253695
                                                         0.162492      -0.035541
                          1       3    3py              10.389228      -1.530415
                                                         3.849621      -1.371928
                                                         1.388401      -0.761951
                                                         0.496955      -0.253695
                                                         0.162492      -0.035541
                          1       3    3pz              10.389228      -1.530415
                                                         3.849621      -1.371928
                                                         1.388401      -0.761951
                                                         0.496955      -0.253695
                                                         0.162492      -0.035541

                          1       4    4px              10.389228      -0.565392
                                                         3.849621      -0.038231
                                                         1.388401      -0.382373
                                                         0.496955       0.179070
                                                         0.162492       0.122714
                          1       4    4py              10.389228      -0.565392
                                                         3.849621      -0.038231
                                                         1.388401      -0.382373
                                                         0.496955       0.179070
                                                         0.162492       0.122714
                          1       4    4pz              10.389228      -0.565392
                                                         3.849621      -0.038231
                                                         1.388401      -0.382373
                                                         0.496955       0.179070
                                                         0.162492       0.122714

                          1       5    4dx2             10.389228       1.867377
                                                         3.849621       0.670994
                                                         1.388401       1.353441
                                                         0.496955       0.273538
                                                         0.162492       0.006620
                          1       5    4dxy             10.389228       3.234392
                                                         3.849621       1.162195
                                                         1.388401       2.344229
                                                         0.496955       0.473781
                                                         0.162492       0.011466
                          1       5    4dxz             10.389228       3.234392
                                                         3.849621       1.162195
                                                         1.388401       2.344229
                                                         0.496955       0.473781
                                                         0.162492       0.011466
                          1       5    4dy2             10.389228       1.867377
                                                         3.849621       0.670994
                                                         1.388401       1.353441
                                                         0.496955       0.273538
                                                         0.162492       0.006620
                          1       5    4dyz             10.389228       3.234392
                                                         3.849621       1.162195
                                                         1.388401       2.344229
                                                         0.496955       0.473781
                                                         0.162492       0.011466
                          1       5    4dz2             10.389228       1.867377
                                                         3.849621       0.670994
                                                         1.388401       1.353441
                                                         0.496955       0.273538
                                                         0.162492       0.006620

     GTH Potential information for                                    GTH-PBE-q6

       Description:                       Goedecker-Teter-Hutter pseudopotential
                                           Goedecker et al., PRB 54, 1703 (1996)
                                          Hartwigsen et al., PRB 58, 3641 (1998)
                                                      Krack, TCA 114, 145 (2005)

       Gaussian exponent of the core charge distribution:               8.360253
       Electronic configuration (s p d ...):                               2   4

       Parameters of the local part of the GTH pseudopotential:

                          rloc        C1          C2          C3          C4
                        0.244554  -16.667215    2.487311

       Parameters of the non-local part of the GTH pseudopotential:

                   l      r(l)      h(i,j,l)

                   0    0.220956   18.337458
                   1    0.211332

  4. Atomic kind: H                                     Number of atoms:       8

     Orbital Basis Set                                     DZVP-MOLOPT-SR-GTH-q1

       Number of orbital shell sets:                                           1
       Number of orbital shells:                                               3
       Number of primitive Cartesian functions:                                5
       Number of Cartesian basis functions:                                    5
       Number of spherical basis functions:                                    5
       Norm type:                                                              2

       Normalised Cartesian orbitals:

                        Set   Shell   Orbital            Exponent    Coefficient

                          1       1    2s               10.068468      -0.133023
                                                         2.680223      -0.177618
                                                         0.791502      -0.258419
                                                         0.239116      -0.107525
                                                         0.082193      -0.014019

                          1       2    3s               10.068468       0.344673
                                                         2.680223       1.819821
                                                         0.791502      -0.999069
                                                         0.239116       0.017430
                                                         0.082193       0.082660

                          1       3    3px              10.068468       0.155326
                                                         2.680223       0.367157
                                                         0.791502       0.311480
                                                         0.239116       0.080105
                                                         0.082193       0.033440
                          1       3    3py              10.068468       0.155326
                                                         2.680223       0.367157
                                                         0.791502       0.311480
                                                         0.239116       0.080105
                                                         0.082193       0.033440
                          1       3    3pz              10.068468       0.155326
                                                         2.680223       0.367157
                                                         0.791502       0.311480
                                                         0.239116       0.080105
                                                         0.082193       0.033440

     GTH Potential information for                                    GTH-PBE-q1

       Description:                       Goedecker-Teter-Hutter pseudopotential
                                           Goedecker et al., PRB 54, 1703 (1996)
                                          Hartwigsen et al., PRB 58, 3641 (1998)
                                                      Krack, TCA 114, 145 (2005)

       Gaussian exponent of the core charge distribution:              12.500000
       Electronic configuration (s p d ...):                                   1

       Parameters of the local part of the GTH pseudopotential:

                          rloc        C1          C2          C3          C4
                        0.200000   -4.178900    0.724463

  5. Atomic kind: C                                     Number of atoms:       2

     Orbital Basis Set                                     DZVP-MOLOPT-SR-GTH-q4

       Number of orbital shell sets:                                           1
       Number of orbital shells:                                               5
       Number of primitive Cartesian functions:                                5
       Number of Cartesian basis functions:                                   14
       Number of spherical basis functions:                                   13
       Norm type:                                                              2

       Normalised Cartesian orbitals:

                        Set   Shell   Orbital            Exponent    Coefficient

                          1       1    2s                5.605331       0.322515
                                                         2.113016       0.213043
                                                         0.769911      -0.209686
                                                         0.348157      -0.219794
                                                         0.128212      -0.022789

                          1       2    3s                5.605331       0.552234
                                                         2.113016       0.082072
                                                         0.769911       0.007843
                                                         0.348157       0.136893
                                                         0.128212       0.074283

                          1       3    3px               5.605331      -0.703879
                                                         2.113016      -0.642521
                                                         0.769911      -0.374851
                                                         0.348157      -0.139743
                                                         0.128212      -0.027849
                          1       3    3py               5.605331      -0.703879
                                                         2.113016      -0.642521
                                                         0.769911      -0.374851
                                                         0.348157      -0.139743
                                                         0.128212      -0.027849
                          1       3    3pz               5.605331      -0.703879
                                                         2.113016      -0.642521
                                                         0.769911      -0.374851
                                                         0.348157      -0.139743
                                                         0.128212      -0.027849

                          1       4    4px               5.605331      -0.480376
                                                         2.113016      -0.552894
                                                         0.769911      -0.316145
                                                         0.348157       0.210505
                                                         0.128212       0.076095
                          1       4    4py               5.605331      -0.480376
                                                         2.113016      -0.552894
                                                         0.769911      -0.316145
                                                         0.348157       0.210505
                                                         0.128212       0.076095
                          1       4    4pz               5.605331      -0.480376
                                                         2.113016      -0.552894
                                                         0.769911      -0.316145
                                                         0.348157       0.210505
                                                         0.128212       0.076095

                          1       5    4dx2              5.605331       0.640026
                                                         2.113016       0.274300
                                                         0.769911       0.446711
                                                         0.348157       0.028674
                                                         0.128212       0.029790
                          1       5    4dxy              5.605331       1.108557
                                                         2.113016       0.475102
                                                         0.769911       0.773726
                                                         0.348157       0.049666
                                                         0.128212       0.051599
                          1       5    4dxz              5.605331       1.108557
                                                         2.113016       0.475102
                                                         0.769911       0.773726
                                                         0.348157       0.049666
                                                         0.128212       0.051599
                          1       5    4dy2              5.605331       0.640026
                                                         2.113016       0.274300
                                                         0.769911       0.446711
                                                         0.348157       0.028674
                                                         0.128212       0.029790
                          1       5    4dyz              5.605331       1.108557
                                                         2.113016       0.475102
                                                         0.769911       0.773726
                                                         0.348157       0.049666
                                                         0.128212       0.051599
                          1       5    4dz2              5.605331       0.640026
                                                         2.113016       0.274300
                                                         0.769911       0.446711
                                                         0.348157       0.028674
                                                         0.128212       0.029790

     GTH Potential information for                                    GTH-PBE-q4

       Description:                       Goedecker-Teter-Hutter pseudopotential
                                           Goedecker et al., PRB 54, 1703 (1996)
                                          Hartwigsen et al., PRB 58, 3641 (1998)
                                                      Krack, TCA 114, 145 (2005)

       Gaussian exponent of the core charge distribution:               4.364419
       Electronic configuration (s p d ...):                               2   2

       Parameters of the local part of the GTH pseudopotential:

                          rloc        C1          C2          C3          C4
                        0.338471   -8.803674    1.339211

       Parameters of the non-local part of the GTH pseudopotential:

                   l      r(l)      h(i,j,l)

                   0    0.302576    9.622487
                   1    0.291507


 MOLECULE KIND INFORMATION


 All atoms are their own molecule, skipping detailed information


 TOTAL NUMBERS AND MAXIMUM NUMBERS

  Total number of            - Atomic kinds:                                   5
                             - Atoms:                                        212
                             - Shell sets:                                   212
                             - Shells:                                      1244
                             - Primitive Cartesian functions:               1160
                             - Cartesian basis functions:                   4496
                             - Spherical basis functions:                   3892

  Maximum angular momentum of- Orbital basis functions:                        3
                             - Local part of the GTH pseudopotential:          2
                             - Non-local part of the GTH pseudopotential:      4


 MODULE QUICKSTEP:  ATOMIC COORDINATES IN angstrom

  Atom  Kind  Element       X           Y           Z          Z(eff)       Mass

       1     1 N    7    0.037820    1.986275    2.497385      5.00      14.0067
       2     2 Ga  31    0.057684    0.020604    2.832364     13.00      69.7230
       3     1 N    7    0.039519   -0.014518    5.015606      5.00      14.0067
       4     2 Ga  31    0.042274    1.811145    5.800252     13.00      69.7230
       5     1 N    7    0.041072    1.826071    7.800933      5.00      14.0067
       6     2 Ga  31    0.043577   -0.019774    8.442691     13.00      69.7230
       7     1 N    7    0.041893   -0.019749   10.417780      5.00      14.0067
       8     2 Ga  31    0.042508    1.820116   11.068024     13.00      69.7230
       9     1 N    7    0.042526    1.800660   13.064458      5.00      14.0067
      10     2 Ga  31    0.046923   -0.023232   13.862209     13.00      69.7230
      11     1 N    7    0.045586   -0.022552   16.068920      5.00      14.0067
      12     2 Ga  31    0.043706    2.000422   16.458514     13.00      69.7230
      13     2 Ga  31    0.012464    3.686578    1.366956     13.00      69.7230
      14     1 N    7   -1.443200    4.558679    2.515390      5.00      14.0067
      15     2 Ga  31   -1.636973    2.723473    3.283015     13.00      69.7230
      16     1 N    7   -1.568518    2.766342    5.259787      5.00      14.0067
      17     2 Ga  31   -1.597997    4.633060    5.809792     13.00      69.7230
      18     1 N    7   -1.575628    4.629484    7.804615      5.00      14.0067
      19     2 Ga  31   -1.555757    2.770371    8.440814     13.00      69.7230
      20     1 N    7   -1.555643    2.773103   10.434815      5.00      14.0067
      21     2 Ga  31   -1.583311    4.631956   11.073159     13.00      69.7230
      22     1 N    7   -1.599528    4.642528   13.069041      5.00      14.0067
      23     2 Ga  31   -1.554561    2.772193   13.618212     13.00      69.7230
      24     1 N    7   -1.575347    2.756549   15.588178      5.00      14.0067
      25     2 Ga  31   -1.436604    4.548938   16.457546     13.00      69.7230
      26     1 N    7    0.033359    3.701002   17.584187      5.00      14.0067
      27     1 N    7   -3.174776    7.526247    2.505337      5.00      14.0067
      28     2 Ga  31   -3.147701    5.543802    2.839746     13.00      69.7230
      29     1 N    7   -3.172370    5.549512    5.021610      5.00      14.0067
      30     2 Ga  31   -3.180279    7.375387    5.794551     13.00      69.7230
      31     1 N    7   -3.172795    7.398155    7.791428      5.00      14.0067
      32     2 Ga  31   -3.174738    5.552969    8.447954     13.00      69.7230
      33     1 N    7   -3.174590    5.552801   10.420435      5.00      14.0067
      34     2 Ga  31   -3.176622    7.392187   11.072172     13.00      69.7230
      35     1 N    7   -3.174990    7.372765   13.062988      5.00      14.0067
      36     2 Ga  31   -3.181586    5.555391   13.873561     13.00      69.7230
      37     1 N    7   -3.181753    5.556376   16.069080      5.00      14.0067
      38     2 Ga  31   -3.175134    7.614821   16.502405     13.00      69.7230
      39     2 Ga  31   -3.198084    9.277732    1.353507     13.00      69.7230
      40     1 N    7   -4.682731   10.136686    2.506018      5.00      14.0067
      41     2 Ga  31   -4.872797    8.293997    3.256620     13.00      69.7230
      42     1 N    7   -4.781959    8.336782    5.234751      5.00      14.0067
      43     2 Ga  31   -4.808033   10.209275    5.785872     13.00      69.7230
      44     1 N    7   -4.792012   10.198883    7.788480      5.00      14.0067
      45     2 Ga  31   -4.773386    8.343839    8.430935     13.00      69.7230
      46     1 N    7   -4.771599    8.342761   10.425022      5.00      14.0067
      47     2 Ga  31   -4.796033   10.201009   11.067088     13.00      69.7230
      48     1 N    7   -4.812325   10.210954   13.058905      5.00      14.0067
      49     2 Ga  31   -4.771896    8.343363   13.624306     13.00      69.7230
      50     1 N    7   -4.801598    8.329606   15.580317      5.00      14.0067
      51     2 Ga  31   -4.599662   10.089157   16.502482     13.00      69.7230
      52     1 N    7   -3.171311    9.266096   17.651388      5.00      14.0067
      53     1 N    7    3.245506    1.840446    2.617704      5.00      14.0067
      54     2 Ga  31    3.250289    0.081333    3.258676     13.00      69.7230
      55     1 N    7    3.260024   -0.021429    5.237229      5.00      14.0067
      56     2 Ga  31    3.250805    1.833387    5.866811     13.00      69.7230
      57     1 N    7    3.258179    1.835993    7.845197      5.00      14.0067
      58     2 Ga  31    3.256345   -0.030455    8.432484     13.00      69.7230
      59     1 N    7    3.258396   -0.032230   10.426718      5.00      14.0067
      60     2 Ga  31    3.257804    1.837128   11.024528     13.00      69.7230
      61     1 N    7    3.256588    1.838858   12.995573      5.00      14.0067
      62     2 Ga  31    3.257782   -0.031158   13.623954     13.00      69.7230
      63     1 N    7    3.254623    0.003298   15.579851      5.00      14.0067
      64     2 Ga  31    3.260941    1.837236   15.860677     13.00      69.7230
      65     1 N    7    1.531965    4.560342    2.529578      5.00      14.0067
      66     2 Ga  31    1.718624    2.722188    3.271144     13.00      69.7230
      67     1 N    7    1.650665    2.765169    5.253684      5.00      14.0067
      68     2 Ga  31    1.677879    4.629275    5.805816     13.00      69.7230
      69     1 N    7    1.659757    4.629953    7.800750      5.00      14.0067
      70     2 Ga  31    1.640906    2.768983    8.435068     13.00      69.7230
      71     1 N    7    1.638899    2.773029   10.430234      5.00      14.0067
      72     2 Ga  31    1.665831    4.630410   11.070693     13.00      69.7230
      73     1 N    7    1.682826    4.641615   13.066026      5.00      14.0067
      74     2 Ga  31    1.640327    2.771677   13.617329     13.00      69.7230
      75     1 N    7    1.661168    2.760730   15.585872      5.00      14.0067
      76     2 Ga  31    1.511571    4.542143   16.458731     13.00      69.7230
      77     1 N    7    0.032203    7.393180    2.687539      5.00      14.0067
      78     2 Ga  31    0.043694    5.551341    3.333919     13.00      69.7230
      79     1 N    7    0.041089    5.565628    5.271425      5.00      14.0067
      80     2 Ga  31    0.036653    7.406498    5.903336     13.00      69.7230
      81     1 N    7    0.041658    7.410409    7.862427      5.00      14.0067
      82     2 Ga  31    0.041846    5.537271    8.445790     13.00      69.7230
      83     1 N    7    0.041697    5.538722   10.436722      5.00      14.0067
      84     2 Ga  31    0.040384    7.408446   11.030433     13.00      69.7230
      85     1 N    7    0.043144    7.407729   13.001439      5.00      14.0067
      86     2 Ga  31    0.042352    5.538464   13.619299     13.00      69.7230
      87     1 N    7    0.046279    5.565637   15.588593      5.00      14.0067
      88     2 Ga  31    0.040157    7.410202   15.863857     13.00      69.7230
      89     1 N    7   -1.665977   10.129876    2.508469      5.00      14.0067
      90     2 Ga  31   -1.556218    8.323617    3.298794     13.00      69.7230
      91     1 N    7   -1.553863    8.329774    5.241465      5.00      14.0067
      92     2 Ga  31   -1.544384   10.212027    5.797162     13.00      69.7230
      93     1 N    7   -1.556399   10.196588    7.792453      5.00      14.0067
      94     2 Ga  31   -1.580467    8.344453    8.444609     13.00      69.7230
      95     1 N    7   -1.577938    8.343534   10.433657      5.00      14.0067
      96     2 Ga  31   -1.552560   10.203443   11.072885     13.00      69.7230
      97     1 N    7   -1.534751   10.212448   13.063730      5.00      14.0067
      98     2 Ga  31   -1.578796    8.344224   13.625708     13.00      69.7230
      99     1 N    7   -1.546859    8.325677   15.581528      5.00      14.0067
     100     2 Ga  31   -1.742216   10.094116   16.501638     13.00      69.7230
     101     1 N    7    6.474590    1.963203    2.535669      5.00      14.0067
     102     2 Ga  31    6.458890   -0.014677    2.862957     13.00      69.7230
     103     1 N    7    6.476693   -0.018660    5.022626      5.00      14.0067
     104     2 Ga  31    6.473862    1.811293    5.804877     13.00      69.7230
     105     1 N    7    6.474212    1.825333    7.799529      5.00      14.0067
     106     2 Ga  31    6.472213   -0.020004    8.447119     13.00      69.7230
     107     1 N    7    6.473772   -0.019751   10.419156      5.00      14.0067
     108     2 Ga  31    6.473021    1.821147   11.071389     13.00      69.7230
     109     1 N    7    6.473657    1.801442   13.062840      5.00      14.0067
     110     2 Ga  31    6.468770   -0.015099   13.877384     13.00      69.7230
     111     1 N    7    6.469098   -0.014769   16.069374      5.00      14.0067
     112     2 Ga  31    6.473664    2.044436   16.504374     13.00      69.7230
     113     2 Ga  31    6.474424    3.693042    1.527156     13.00      69.7230
     114     1 N    7    4.972774    4.560314    2.534891      5.00      14.0067
     115     2 Ga  31    4.753635    2.701957    3.296155     13.00      69.7230
     116     1 N    7    4.864402    2.764978    5.256475      5.00      14.0067
     117     2 Ga  31    4.844246    4.636367    5.802267     13.00      69.7230
     118     1 N    7    4.855824    4.629167    7.796883      5.00      14.0067
     119     2 Ga  31    4.873568    2.769849    8.435769     13.00      69.7230
     120     1 N    7    4.876571    2.772367   10.428672      5.00      14.0067
     121     2 Ga  31    4.852972    4.630836   11.068611     13.00      69.7230
     122     1 N    7    4.836211    4.640941   13.059776      5.00      14.0067
     123     2 Ga  31    4.877292    2.772827   13.624230     13.00      69.7230
     124     1 N    7    4.845830    2.759486   15.580495      5.00      14.0067
     125     2 Ga  31    5.050467    4.518204   16.505400     13.00      69.7230
     126     1 N    7    6.476072    3.694049   17.655303      5.00      14.0067
     127     1 N    7    3.234197    7.528779    2.453681      5.00      14.0067
     128     1 N    7    3.259323    5.554415    5.022280      5.00      14.0067
     129     2 Ga  31    3.261784    7.375537    5.807258     13.00      69.7230
     130     1 N    7    3.255075    7.398118    7.797215      5.00      14.0067
     131     2 Ga  31    3.258228    5.550310    8.448257     13.00      69.7230
     132     1 N    7    3.258012    5.552372   10.420232      5.00      14.0067
     133     2 Ga  31    3.259832    7.391114   11.072164     13.00      69.7230
     134     1 N    7    3.258973    7.371944   13.065410      5.00      14.0067
     135     2 Ga  31    3.265105    5.549515   13.864407     13.00      69.7230
     136     1 N    7    3.264124    5.551655   16.069787      5.00      14.0067
     137     2 Ga  31    3.260302    7.584229   16.468778     13.00      69.7230
     138     2 Ga  31    3.285512    9.327372    1.491547     13.00      69.7230
     139     1 N    7    1.753580   10.132867    2.526152      5.00      14.0067
     140     2 Ga  31    1.615200    8.308784    3.312617     13.00      69.7230
     141     1 N    7    1.637790    8.327762    5.244954      5.00      14.0067
     142     2 Ga  31    1.621821   10.211289    5.807970     13.00      69.7230
     143     1 N    7    1.639656   10.195115    7.798475      5.00      14.0067
     144     2 Ga  31    1.660895    8.343159    8.450004     13.00      69.7230
     145     1 N    7    1.661028    8.343560   10.437726      5.00      14.0067
     146     2 Ga  31    1.633745   10.204131   11.075009     13.00      69.7230
     147     1 N    7    1.616872   10.213088   13.068958      5.00      14.0067
     148     2 Ga  31    1.662039    8.343498   13.621283     13.00      69.7230
     149     1 N    7    1.637908    8.324795   15.587468      5.00      14.0067
     150     2 Ga  31    1.788935   10.114866   16.467099     13.00      69.7230
     151     1 N    7    3.248650    9.272430   17.591660      5.00      14.0067
     152     1 N    7    9.699245    1.846034    2.625193      5.00      14.0067
     153     2 Ga  31    9.695458    0.112178    3.306721     13.00      69.7230
     154     1 N    7    9.687591   -0.020561    5.261388      5.00      14.0067
     155     2 Ga  31    9.695229    1.842047    5.882342     13.00      69.7230
     156     1 N    7    9.689092    1.836880    7.855344      5.00      14.0067
     157     2 Ga  31    9.691452   -0.030928    8.439012     13.00      69.7230
     158     1 N    7    9.689246   -0.032692   10.432278      5.00      14.0067
     159     2 Ga  31    9.689376    1.837850   11.027138     13.00      69.7230
     160     1 N    7    9.691752    1.837310   12.999426      5.00      14.0067
     161     2 Ga  31    9.691055   -0.031722   13.620239     13.00      69.7230
     162     1 N    7    9.695562   -0.001193   15.586257      5.00      14.0067
     163     2 Ga  31    9.688231    1.839819   15.863414     13.00      69.7230
     164     1 N    7    7.976229    4.561878    2.529591      5.00      14.0067
     165     2 Ga  31    8.190485    2.712340    3.300419     13.00      69.7230
     166     1 N    7    8.083405    2.766154    5.260370      5.00      14.0067
     167     2 Ga  31    8.109861    4.639868    5.802959     13.00      69.7230
     168     1 N    7    8.092081    4.629188    7.799008      5.00      14.0067
     169     2 Ga  31    8.071739    2.772103    8.440897     13.00      69.7230
     170     1 N    7    8.070624    2.772810   10.432588      5.00      14.0067
     171     2 Ga  31    8.095794    4.632418   11.070839     13.00      69.7230
     172     1 N    7    8.112884    4.641846   13.062108      5.00      14.0067
     173     2 Ga  31    8.069802    2.773543   13.624639     13.00      69.7230
     174     1 N    7    8.102294    2.756628   15.580737      5.00      14.0067
     175     2 Ga  31    7.902316    4.521369   16.504375     13.00      69.7230
     176     1 N    7    6.469570    7.410281    2.606676      5.00      14.0067
     177     2 Ga  31    6.478213    5.673285    3.293183     13.00      69.7230
     178     1 N    7    6.475196    5.553691    5.253346      5.00      14.0067
     179     2 Ga  31    6.476427    7.413655    5.864872     13.00      69.7230
     180     1 N    7    6.473074    7.409608    7.840883      5.00      14.0067
     181     2 Ga  31    6.474345    5.542434    8.435218     13.00      69.7230
     182     1 N    7    6.473963    5.539821   10.427611      5.00      14.0067
     183     2 Ga  31    6.474585    7.408670   11.024547     13.00      69.7230
     184     1 N    7    6.472999    7.409783   12.994392      5.00      14.0067
     185     2 Ga  31    6.474260    5.539874   13.624101     13.00      69.7230
     186     1 N    7    6.471592    5.573540   15.579950      5.00      14.0067
     187     2 Ga  31    6.476697    7.407713   15.861379     13.00      69.7230
     188     1 N    7    4.763436   10.142276    2.533853      5.00      14.0067
     189     2 Ga  31    4.951989    8.268668    3.275003     13.00      69.7230
     190     1 N    7    4.859646    8.335976    5.241383      5.00      14.0067
     191     2 Ga  31    4.897368   10.209186    5.797244     13.00      69.7230
     192     1 N    7    4.875583   10.198103    7.794850      5.00      14.0067
     193     2 Ga  31    4.858076    8.342962    8.435926     13.00      69.7230
     194     1 N    7    4.854374    8.342953   10.428498      5.00      14.0067
     195     2 Ga  31    4.881453   10.201746   11.068612     13.00      69.7230
     196     1 N    7    4.898088   10.211631   13.063224      5.00      14.0067
     197     2 Ga  31    4.857101    8.342901   13.619273     13.00      69.7230
     198     1 N    7    4.880017    8.330297   15.584165      5.00      14.0067
     199     2 Ga  31    4.716158   10.106428   16.468087     13.00      69.7230
     200     3 O    8    0.081383    3.993291   -0.445606      6.00      15.9994
     201     4 H    1    0.243825    5.779540   -0.367071      1.00       1.0079
     202     5 C    6    1.120727    3.302024   -1.166838      4.00      12.0107
     203     4 H    1    2.111518    3.433373   -0.700735      1.00       1.0079
     204     4 H    1    0.910341    2.223547   -1.233466      1.00       1.0079
     205     4 H    1    1.151929    3.715324   -2.184973      1.00       1.0079
     206     2 Ga  31    3.233103    5.514030    2.873684     13.00      69.7230
     207     3 O    8    0.460738    6.727610   -0.164535      6.00      15.9994
     208     4 H    1    0.046073    7.314452    1.650023      1.00       1.0079
     209     5 C    6    1.890277    6.856950   -0.249961      4.00      12.0107
     210     4 H    1    2.121734    7.791705   -0.796906      1.00       1.0079
     211     4 H    1    2.364484    6.924888    0.754319      1.00       1.0079
     212     4 H    1    2.343883    6.027610   -0.810625      1.00       1.0079




 SCF PARAMETERS         Density guess:                                    ATOMIC
                        --------------------------------------------------------
                        max_scf:                                              80
                        max_scf_history:                                       0
                        max_diis:                                              4
                        --------------------------------------------------------
                        eps_scf:                                        5.00E-06
                        eps_scf_history:                                0.00E+00
                        eps_diis:                                       1.00E-01
                        eps_eigval:                                     1.00E-05
                        --------------------------------------------------------
                        level_shift [a.u.]:                                 0.00
                        --------------------------------------------------------
                        Outer loop SCF in use 
                        No variables optimised in outer loop
                        eps_scf                                         5.00E-06
                        max_scf                                                4
                        No outer loop optimization
                        step_size                                       5.00E-01

 PW_GRID| Information for grid number                                          1
 PW_GRID| Grid distributed over                                    80 processors
 PW_GRID| Real space group dimensions                                    80    1
 PW_GRID| the grid is blocked:                                                NO
 PW_GRID| Cutoff [a.u.]                                                    600.0
 PW_GRID| spherical cutoff:                                                   NO
 PW_GRID|   Bounds   1           -144     143                Points:         288
 PW_GRID|   Bounds   2           -144     143                Points:         288
 PW_GRID|   Bounds   3           -337     337                Points:         675
 PW_GRID| Volume element (a.u.^3)  0.5630E-03     Volume (a.u.^3)     31519.8467
 PW_GRID| Grid span                                                    FULLSPACE
 PW_GRID|   Distribution                         Average         Max         Min
 PW_GRID|   G-Vectors                           699840.0      699840      699840
 PW_GRID|   G-Rays                                2430.0        2430        2430
 PW_GRID|   Real Space Points                   699840.0      777600      583200

 PW_GRID| Information for grid number                                          2
 PW_GRID| Grid distributed over                                    80 processors
 PW_GRID| Real space group dimensions                                    80    1
 PW_GRID| the grid is blocked:                                                NO
 PW_GRID| Cutoff [a.u.]                                                    200.0
 PW_GRID| spherical cutoff:                                                   NO
 PW_GRID|   Bounds   1            -80      79                Points:         160
 PW_GRID|   Bounds   2            -80      79                Points:         160
 PW_GRID|   Bounds   3           -200     199                Points:         400
 PW_GRID| Volume element (a.u.^3)  0.3078E-02     Volume (a.u.^3)     31519.8467
 PW_GRID| Grid span                                                    FULLSPACE
 PW_GRID|   Distribution                         Average         Max         Min
 PW_GRID|   G-Vectors                           128000.0      128160      127840
 PW_GRID|   G-Rays                                 800.0         801         799
 PW_GRID|   Real Space Points                   128000.0      128000      128000

 PW_GRID| Information for grid number                                          3
 PW_GRID| Grid distributed over                                    80 processors
 PW_GRID| Real space group dimensions                                    80    1
 PW_GRID| the grid is blocked:                                                NO
 PW_GRID| Cutoff [a.u.]                                                     66.7
 PW_GRID| spherical cutoff:                                                   NO
 PW_GRID|   Bounds   1            -48      47                Points:          96
 PW_GRID|   Bounds   2            -48      47                Points:          96
 PW_GRID|   Bounds   3           -112     112                Points:         225
 PW_GRID| Volume element (a.u.^3)  0.1520E-01     Volume (a.u.^3)     31519.8467
 PW_GRID| Grid span                                                    FULLSPACE
 PW_GRID|   Distribution                         Average         Max         Min
[...]
     32       Ga     2      13.000    6.951   6.950            0.001     -0.901
     33       N      1       5.000    2.052   2.051            0.000      0.897
     34       Ga     2      13.000    6.940   6.938            0.001     -0.878
     35       N      1       5.000    2.060   2.059            0.001      0.880
     36       Ga     2      13.000    6.875   6.872            0.003     -0.747
     37       N      1       5.000    2.134   2.132            0.002      0.734
     38       Ga     2      13.000    6.911   6.920           -0.009     -0.830
     39       Ga     2      13.000    6.854   6.543            0.310     -0.397
     40       N      1       5.000    2.122   2.068            0.055      0.810
     41       Ga     2      13.000    6.969   6.960            0.008     -0.929
     42       N      1       5.000    2.055   2.051            0.004      0.894
     43       Ga     2      13.000    6.946   6.942            0.004     -0.888
     44       N      1       5.000    2.062   2.060            0.002      0.878
     45       Ga     2      13.000    6.939   6.937            0.002     -0.876
     46       N      1       5.000    2.063   2.062            0.001      0.876
     47       Ga     2      13.000    6.940   6.938            0.001     -0.878
     48       N      1       5.000    2.060   2.059            0.001      0.881
     49       Ga     2      13.000    6.950   6.950            0.000     -0.900
     50       N      1       5.000    2.047   2.054           -0.007      0.899
     51       Ga     2      13.000    6.911   6.919           -0.009     -0.830
     52       N      1       5.000    2.129   2.330           -0.201      0.542
     53       N      1       5.000    2.123   2.122            0.001      0.755
     54       Ga     2      13.000    6.969   6.961            0.008     -0.930
     55       N      1       5.000    2.055   2.051            0.004      0.895
     56       Ga     2      13.000    6.937   6.935            0.002     -0.872
     57       N      1       5.000    2.057   2.056            0.001      0.888
     58       Ga     2      13.000    6.939   6.937            0.002     -0.876
     59       N      1       5.000    2.062   2.061            0.001      0.876
     60       Ga     2      13.000    6.947   6.945            0.001     -0.892
     61       N      1       5.000    2.061   2.063           -0.001      0.876
     62       Ga     2      13.000    6.950   6.950            0.000     -0.900
     63       N      1       5.000    2.047   2.054           -0.007      0.899
     64       Ga     2      13.000    6.858   6.858           -0.001     -0.716
     65       N      1       5.000    2.101   2.101            0.001      0.798
     66       Ga     2      13.000    6.973   6.972            0.001     -0.945
     67       N      1       5.000    2.052   2.052            0.000      0.896
     68       Ga     2      13.000    6.940   6.937            0.002     -0.877
     69       N      1       5.000    2.061   2.060            0.001      0.880
     70       Ga     2      13.000    6.938   6.937            0.002     -0.875
     71       N      1       5.000    2.062   2.061            0.001      0.876
     72       Ga     2      13.000    6.940   6.938            0.001     -0.878
     73       N      1       5.000    2.060   2.060            0.001      0.880
     74       Ga     2      13.000    6.949   6.950           -0.001     -0.899
     75       N      1       5.000    2.043   2.058           -0.015      0.900
     76       Ga     2      13.000    6.911   6.920           -0.008     -0.831
     77       N      1       5.000    2.227   2.226            0.000      0.547
     78       Ga     2      13.000    6.993   6.993            0.001     -0.986
     79       N      1       5.000    2.049   2.049            0.000      0.902
     80       Ga     2      13.000    6.947   6.945            0.002     -0.891
     81       N      1       5.000    2.055   2.054            0.001      0.891
     82       Ga     2      13.000    6.939   6.937            0.002     -0.876
     83       N      1       5.000    2.062   2.061            0.001      0.877
     84       Ga     2      13.000    6.946   6.945            0.001     -0.892
     85       N      1       5.000    2.061   2.063           -0.002      0.876
     86       Ga     2      13.000    6.950   6.950           -0.000     -0.900
     87       N      1       5.000    2.046   2.054           -0.008      0.900
     88       Ga     2      13.000    6.858   6.858           -0.001     -0.716
     89       N      1       5.000    2.124   2.076            0.048      0.800
     90       Ga     2      13.000    6.989   6.980            0.009     -0.970
     91       N      1       5.000    2.053   2.049            0.004      0.898
     92       Ga     2      13.000    6.944   6.940            0.005     -0.884
     93       N      1       5.000    2.062   2.059            0.003      0.879
     94       Ga     2      13.000    6.940   6.938            0.002     -0.878
     95       N      1       5.000    2.062   2.061            0.001      0.877
     96       Ga     2      13.000    6.940   6.938            0.001     -0.878
     97       N      1       5.000    2.060   2.059            0.001      0.880
     98       Ga     2      13.000    6.949   6.950           -0.001     -0.899
     99       N      1       5.000    2.043   2.058           -0.015      0.900
    100       Ga     2      13.000    6.910   6.919           -0.009     -0.830
    101       N      1       5.000    2.097   2.091            0.006      0.812
    102       Ga     2      13.000    6.906   6.892            0.014     -0.798
    103       N      1       5.000    2.106   2.090            0.016      0.805
    104       Ga     2      13.000    6.947   6.942            0.004     -0.889
    105       N      1       5.000    2.061   2.059            0.002      0.880
    106       Ga     2      13.000    6.951   6.949            0.002     -0.900
    107       N      1       5.000    2.052   2.052            0.001      0.896
    108       Ga     2      13.000    6.939   6.938            0.001     -0.878
    109       N      1       5.000    2.060   2.059            0.001      0.880
    110       Ga     2      13.000    6.875   6.872            0.003     -0.747
    111       N      1       5.000    2.134   2.133            0.002      0.733
    112       Ga     2      13.000    6.911   6.918           -0.006     -0.829
    113       Ga     2      13.000    6.739   6.693            0.046     -0.432
    114       N      1       5.000    2.098   2.092            0.006      0.809
    115       Ga     2      13.000    6.962   6.960            0.002     -0.923
    116       N      1       5.000    2.051   2.050            0.000      0.899
    117       Ga     2      13.000    6.945   6.942            0.002     -0.887
    118       N      1       5.000    2.061   2.060            0.001      0.879
    119       Ga     2      13.000    6.939   6.938            0.002     -0.877
    120       N      1       5.000    2.062   2.061            0.001      0.877
    121       Ga     2      13.000    6.940   6.938            0.001     -0.878
    122       N      1       5.000    2.060   2.059            0.001      0.881
    123       Ga     2      13.000    6.950   6.950            0.000     -0.901
    124       N      1       5.000    2.048   2.053           -0.005      0.899
    125       Ga     2      13.000    6.911   6.917           -0.006     -0.829
    126       N      1       5.000    2.153   2.310           -0.157      0.537
    127       N      1       5.000    2.147   2.144            0.004      0.709
    128       N      1       5.000    2.097   2.094            0.004      0.809
    129       Ga     2      13.000    6.944   6.942            0.002     -0.886
    130       N      1       5.000    2.061   2.060            0.001      0.879
    131       Ga     2      13.000    6.951   6.950            0.001     -0.902
    132       N      1       5.000    2.052   2.051            0.000      0.897
    133       Ga     2      13.000    6.940   6.939            0.001     -0.878
    134       N      1       5.000    2.060   2.059            0.001      0.881
    135       Ga     2      13.000    6.875   6.872            0.003     -0.747
    136       N      1       5.000    2.134   2.132            0.002      0.733
    137       Ga     2      13.000    6.912   6.919           -0.007     -0.831
    138       Ga     2      13.000    6.862   6.781            0.081     -0.643
    139       N      1       5.000    2.103   2.092            0.011      0.805
    140       Ga     2      13.000    6.997   6.994            0.002     -0.991
    141       N      1       5.000    2.051   2.050            0.001      0.899
    142       Ga     2      13.000    6.945   6.941            0.004     -0.886
    143       N      1       5.000    2.061   2.059            0.002      0.880
    144       Ga     2      13.000    6.940   6.939            0.002     -0.879
    145       N      1       5.000    2.061   2.060            0.001      0.878
    146       Ga     2      13.000    6.940   6.939            0.001     -0.878
    147       N      1       5.000    2.060   2.059            0.000      0.881
    148       Ga     2      13.000    6.950   6.950           -0.000     -0.900
    149       N      1       5.000    2.047   2.053           -0.007      0.900
    150       Ga     2      13.000    6.911   6.918           -0.007     -0.829
    151       N      1       5.000    2.146   2.319           -0.173      0.535
    152       N      1       5.000    2.122   2.121            0.001      0.757
    153       Ga     2      13.000    6.958   6.955            0.003     -0.912
    154       N      1       5.000    2.051   2.050            0.001      0.900
    155       Ga     2      13.000    6.935   6.934            0.001     -0.869
    156       N      1       5.000    2.056   2.055            0.001      0.889
    157       Ga     2      13.000    6.939   6.937            0.002     -0.876
    158       N      1       5.000    2.062   2.061            0.001      0.876
    159       Ga     2      13.000    6.946   6.945            0.001     -0.892
    160       N      1       5.000    2.061   2.063           -0.002      0.876
    161       Ga     2      13.000    6.950   6.950            0.000     -0.900
    162       N      1       5.000    2.047   2.053           -0.006      0.900
    163       Ga     2      13.000    6.858   6.858           -0.001     -0.716
    164       N      1       5.000    2.098   2.092            0.006      0.810
    165       Ga     2      13.000    6.961   6.959            0.002     -0.921
    166       N      1       5.000    2.051   2.050            0.000      0.899
    167       Ga     2      13.000    6.946   6.943            0.003     -0.889
    168       N      1       5.000    2.061   2.060            0.001      0.879
    169       Ga     2      13.000    6.939   6.938            0.002     -0.877
    170       N      1       5.000    2.062   2.061            0.001      0.877
    171       Ga     2      13.000    6.939   6.938            0.001     -0.878
    172       N      1       5.000    2.060   2.059            0.001      0.881
    173       Ga     2      13.000    6.950   6.950           -0.001     -0.900
    174       N      1       5.000    2.044   2.056           -0.012      0.900
    175       Ga     2      13.000    6.912   6.918           -0.006     -0.830
    176       N      1       5.000    2.121   2.121            0.000      0.758
    177       Ga     2      13.000    6.962   6.960            0.002     -0.923
    178       N      1       5.000    2.051   2.050            0.000      0.899
    179       Ga     2      13.000    6.935   6.932            0.002     -0.867
    180       N      1       5.000    2.057   2.056            0.002      0.887
    181       Ga     2      13.000    6.939   6.938            0.002     -0.877
    182       N      1       5.000    2.062   2.061            0.001      0.876
    183       Ga     2      13.000    6.947   6.946            0.001     -0.892
    184       N      1       5.000    2.061   2.063           -0.001      0.876
    185       Ga     2      13.000    6.951   6.950            0.000     -0.901
    186       N      1       5.000    2.048   2.053           -0.005      0.900
    187       Ga     2      13.000    6.858   6.858           -0.001     -0.716
    188       N      1       5.000    2.099   2.085            0.013      0.816
    189       Ga     2      13.000    6.956   6.954            0.002     -0.910
    190       N      1       5.000    2.053   2.053            0.000      0.895
    191       Ga     2      13.000    6.947   6.943            0.004     -0.890
    192       N      1       5.000    2.061   2.060            0.001      0.879
    193       Ga     2      13.000    6.939   6.938            0.002     -0.877
    194       N      1       5.000    2.062   2.061            0.001      0.876
    195       Ga     2      13.000    6.940   6.938            0.001     -0.878
    196       N      1       5.000    2.060   2.059            0.001      0.881
    197       Ga     2      13.000    6.949   6.950           -0.001     -0.899
    198       N      1       5.000    2.043   2.057           -0.014      0.900
    199       Ga     2      13.000    6.912   6.919           -0.007     -0.832
    200       O      3       6.000    3.054   3.053            0.001     -0.107
    201       H      4       1.000    0.207   0.207            0.000      0.585
    202       C      5       4.000    2.447   2.447            0.000     -0.894
    203       H      4       1.000    0.279   0.279            0.000      0.441
    204       H      4       1.000    0.280   0.280            0.000      0.440
    205       H      4       1.000    0.280   0.280            0.000      0.441
    206       Ga     2      13.000    6.965   6.959            0.006     -0.924
    207       O      3       6.000    3.364   3.364           -0.000     -0.728
    208       H      4       1.000    0.224   0.224           -0.000      0.552
    209       C      5       4.000    2.351   2.350            0.001     -0.701
    210       H      4       1.000    0.278   0.278            0.000      0.445
    211       H      4       1.000    0.255   0.255           -0.000      0.490
    212       H      4       1.000    0.280   0.280            0.000      0.440

  Total Charge                                                            0.003
 !-----------------------------------------------------------------------------!

 ENERGY| Total FORCE_EVAL ( QS ) energy (a.u.):            -8504.718963149291085


 --------  Informations at step =    95 ------------
  Optimization Method        =                 BFGS
  Total Energy               =     -8504.7189631493
  Real energy change         =         0.0000194165
  Predicted change in energy =        -0.0000097985
  Scaling factor             =         0.5788592471
  Step size                  =         0.0027693481
  Trust radius               =         0.4724315332
  Decrease in energy         =                   NO
  Used time                  =              240.077

  Convergence check :
  Max. step size             =         0.0027693481
  Conv. limit for step size  =         0.0030000000
  Convergence in step size   =                  YES
  RMS step size              =         0.0004329498
  Conv. limit for RMS step   =         0.0015000000
  Convergence in RMS step    =                  YES
  Max. gradient              =         0.0009217329
  Conv. limit for gradients  =         0.0004500000
  Conv. for gradients        =                   NO
  RMS gradient               =         0.0001776474
  Conv. limit for RMS grad.  =         0.0003000000
  Conv. in RMS gradients     =                  YES
 ---------------------------------------------------

 --------------------------
 OPTIMIZATION STEP:     96
 --------------------------

  Step is scaled; Scaling factor =  0.03995

 Spin 1

 Number of electrons:                                                        914
 Number of occupied orbitals:                                                914
 Number of molecular orbitals:                                               914

 Spin 2

 Number of electrons:                                                        914
 Number of occupied orbitals:                                                914
 Number of molecular orbitals:                                               914

 Number of orbital functions:                                               3892
 Number of independent orbital functions:                                   3892

 Parameters for the always stable predictor-corrector (ASPC) method:

  ASPC order: 3

  B(1) =   3.000000
  B(2) =  -3.428571
  B(3) =   1.928571
  B(4) =  -0.571429
  B(5) =   0.071429

 Parameters for the always stable predictor-corrector (ASPC) method:

  ASPC order: 3

  B(1) =   3.000000
  B(2) =  -3.428571
  B(3) =   1.928571
  B(4) =  -0.571429
  B(5) =   0.071429

 Extrapolation method: ASPC


 SCF WAVEFUNCTION OPTIMIZATION

  ----------------------------------- OT ---------------------------------------
  Minimizer      : CG                  : conjugate gradient
  Preconditioner : FULL_ALL            : diagonalization, state selective
  Precond_solver : DEFAULT
  Line search    : 2PNT                : 2 energies, one gradient
  stepsize       :    0.15000000                  energy_gap     :    0.08000000
  eps_taylor     :   0.10000E-15                  max_taylor     :             4
  ----------------------------------- OT ---------------------------------------

  Step     Update method      Time    Convergence         Total energy    Change
  ------------------------------------------------------------------------------
     1 OT CG       0.15E+00   26.4     0.00037330     -8504.5099316837 -8.50E+03
     2 OT LS       0.11E+00    7.9                    -8504.5582549132
     3 OT CG       0.11E+00   17.7     0.00023603     -8504.5656106752 -5.57E-02
     4 OT LS       0.22E+00    8.0                    -8504.5985019994
     5 OT CG       0.22E+00   18.2     0.00018875     -8504.6102118697 -4.46E-02
     6 OT LS       0.12E+00    8.3                    -8504.6161843258
     7 OT CG       0.12E+00   18.1     0.00008611     -8504.6263909634 -1.62E-02
     8 OT LS       0.15E+00    8.2                    -8504.6302352521
     9 OT CG       0.15E+00   18.1     0.00007327     -8504.6303517107 -3.96E-03
    10 OT LS       0.26E+00    8.1                    -8504.6344570627
    11 OT CG       0.26E+00   18.1     0.00006705     -8504.6353871823 -5.04E-03
    12 OT LS       0.22E+00    8.0                    -8504.6388573570
    13 OT CG       0.22E+00   17.7     0.00005538     -8504.6389945460 -3.61E-03
    14 OT LS       0.24E+00    7.9                    -8504.6415647695
    15 OT CG       0.24E+00   18.2     0.00004501     -8504.6415663156 -2.57E-03
    16 OT LS       0.15E+00    8.5                    -8504.6423049474
    17 OT CG       0.15E+00   17.8     0.00002793     -8504.6426211900 -1.05E-03
    18 OT LS       0.21E+00    8.4                    -8504.6431646112
    19 OT CG       0.21E+00   18.2     0.00002678     -8504.6432072158 -5.86E-04
    20 OT LS       0.21E+00    7.9                    -8504.6437332960
    21 OT CG       0.21E+00   17.9     0.00002094     -8504.6437334247 -5.26E-04
    22 OT LS       0.26E+00    7.9                    -8504.6441199623
    23 OT CG       0.26E+00   18.2     0.00001603     -8504.6441324802 -3.99E-04
    24 OT LS       0.20E+00    8.4                    -8504.6442981268
    25 OT CG       0.20E+00   18.3     0.00001087     -8504.6443123102 -1.80E-04
    26 OT LS       0.17E+00    8.2                    -8504.6443797305
    27 OT CG       0.17E+00   18.1     0.00000821     -8504.6443825943 -7.03E-05
