 DBCSR| Multiplication driver                                               BLAS
 DBCSR| Multrec recursion limit                                              512
 DBCSR| Multiplication stack size                                           1000
 DBCSR| Maximum elements for images                                    UNLIMITED
 DBCSR| Multiplicative factor virtual images                                   1
 DBCSR| Multiplication size stacks                                             3
 DBCSR| Number of 3D layers                                               SINGLE
 DBCSR| Use MPI memory allocation                                              T
 DBCSR| Use RMA algorithm                                                      F
 DBCSR| Use Communication thread                                               T
 DBCSR| Communication thread load                                             87


  **** **** ******  **  PROGRAM STARTED AT               2019-07-10 07:44:46.398
 ***** ** ***  *** **   PROGRAM STARTED ON        blg9216.int.ets1.calculquebec.
 **    ****   ******    PROGRAM STARTED BY                                   rzk
 ***** **    ** ** **   PROGRAM PROCESS ID                                  9529
  **** **  *******  **  PROGRAM STARTED IN /lustre04/scratch/rzk/rzk/GaN-carbene
                                           /443-adatoms-both-2x2/09-BondBreaking
                                           -CH/02-0401-CH-to-NTop-PES

 CP2K| version string:                    CP2K version 7.0 (Development Version)
 CP2K| source code revision number:                                    svn:18619
 CP2K| cp2kflags: libint fftw3 libxc parallel mpi3 scalapack mkl                
 CP2K| is freely available from                            https://www.cp2k.org/
 CP2K| Program compiled at                          Sun Apr  7 00:48:11 EDT 2019
 CP2K| Program compiled on                      beluga2.int.ets1.calculquebec.ca
 CP2K| Program compiled for                    Beluga-Linux-x86-64-intel-openmpi
 CP2K| Data directory path    /home/rzk/projects/def-rzk/group/cp2k/cp2k-mcgill/
 CP2K| Input file name                                            TEST-1.restart
 
 GLOBAL| Force Environment number                                              1
 GLOBAL| Basis set file name                                        BASIS_MOLOPT
 GLOBAL| Potential file name                                      GTH_POTENTIALS
 GLOBAL| MM Potential file name                                     MM_POTENTIAL
 GLOBAL| Coordinate file name                                      __STD_INPUT__
 GLOBAL| Method name                                                        CP2K
 GLOBAL| Project name                                                       TEST
 GLOBAL| Preferred FFT library                                             FFTW3
 GLOBAL| Preferred diagonalization lib.                                       SL
 GLOBAL| Run type                                                        GEO_OPT
 GLOBAL| All-to-all communication in single precision                          F
 GLOBAL| FFTs using library dependent lengths                                  F
 GLOBAL| Global print level                                               MEDIUM
 GLOBAL| MPI I/O enabled                                                       T
 GLOBAL| Total number of message passing processes                            80
 GLOBAL| Number of threads for this process                                    1
 GLOBAL| This output is from process                                           0
 GLOBAL| CPU model name :  Intel(R) Xeon(R) Gold 6148 CPU @ 2.40GHz

 MEMORY| system memory details [Kb]
 MEMORY|                        rank 0           min           max       average
 MEMORY| MemTotal            196614300     196614300     196614300     196614300
 MEMORY| MemFree             182528740     181159012     182532964     181892508
 MEMORY| Buffers                     0             0             0             0
 MEMORY| Cached                1428328       1395772       1428328       1412050
 MEMORY| Slab                   993156        993156       1104932       1049044
 MEMORY| SReclaimable           129936        123144        129936        126540
 MEMORY| MemLikelyFree       184087004     182677928     184091228     183431098


 *** Fundamental physical constants (SI units) ***

 *** Literature: B. J. Mohr and B. N. Taylor,
 ***             CODATA recommended values of the fundamental physical
 ***             constants: 2006, Web Version 5.1
 ***             http://physics.nist.gov/constants

 Speed of light in vacuum [m/s]                             2.99792458000000E+08
 Magnetic constant or permeability of vacuum [N/A**2]       1.25663706143592E-06
 Electric constant or permittivity of vacuum [F/m]          8.85418781762039E-12
 Planck constant (h) [J*s]                                  6.62606896000000E-34
 Planck constant (h-bar) [J*s]                              1.05457162825177E-34
 Elementary charge [C]                                      1.60217648700000E-19
 Electron mass [kg]                                         9.10938215000000E-31
 Electron g factor [ ]                                     -2.00231930436220E+00
 Proton mass [kg]                                           1.67262163700000E-27
 Fine-structure constant                                    7.29735253760000E-03
 Rydberg constant [1/m]                                     1.09737315685270E+07
 Avogadro constant [1/mol]                                  6.02214179000000E+23
 Boltzmann constant [J/K]                                   1.38065040000000E-23
 Atomic mass unit [kg]                                      1.66053878200000E-27
 Bohr radius [m]                                            5.29177208590000E-11

 *** Conversion factors ***

 [u] -> [a.u.]                                              1.82288848426455E+03
 [Angstrom] -> [Bohr] = [a.u.]                              1.88972613288564E+00
 [a.u.] = [Bohr] -> [Angstrom]                              5.29177208590000E-01
 [a.u.] -> [s]                                              2.41888432650478E-17
 [a.u.] -> [fs]                                             2.41888432650478E-02
 [a.u.] -> [J]                                              4.35974393937059E-18
 [a.u.] -> [N]                                              8.23872205491840E-08
 [a.u.] -> [K]                                              3.15774647902944E+05
 [a.u.] -> [kJ/mol]                                         2.62549961709828E+03
 [a.u.] -> [kcal/mol]                                       6.27509468713739E+02
 [a.u.] -> [Pa]                                             2.94210107994716E+13
 [a.u.] -> [bar]                                            2.94210107994716E+08
 [a.u.] -> [atm]                                            2.90362800883016E+08
 [a.u.] -> [eV]                                             2.72113838565563E+01
 [a.u.] -> [Hz]                                             6.57968392072181E+15
 [a.u.] -> [1/cm] (wave numbers)                            2.19474631370540E+05
 [a.u./Bohr**2] -> [1/cm]                                   5.14048714338585E+03
 
          ----------------------------------------------------------------------
 COLVARS| COLVAR INPUT INDEX:        1
 COLVARS| BOND          >>> ATOMS:                                   127     211
          ----------------------------------------------------------------------

 CELL_TOP| Volume [angstrom^3]:                                         4586.323
 CELL_TOP| Vector a [angstrom    12.864     0.000     0.000    |a| =      12.864
 CELL_TOP| Vector b [angstrom    -6.432    11.141     0.000    |b| =      12.864
 CELL_TOP| Vector c [angstrom     0.000     0.000    32.000    |c| =      32.000
 CELL_TOP| Angle (b,c), alpha [degree]:                                   90.000
 CELL_TOP| Angle (a,c), beta  [degree]:                                   90.000
 CELL_TOP| Angle (a,b), gamma [degree]:                                  120.000
 CELL_TOP| Numerically orthorhombic:                                          NO
 RESTRAINT| Active restraint on COLLECTIVE section Nr.     1. K [a.u.]= 2.000000
 
 GENERATE|  Preliminary Number of Bonds generated:                             0
 GENERATE|  Achieved consistency in connectivity generation.

 CELL| Volume [angstrom^3]:                                             4586.323
 CELL| Vector a [angstrom]:      12.864     0.000     0.000    |a| =      12.864
 CELL| Vector b [angstrom]:      -6.432    11.141     0.000    |b| =      12.864
 CELL| Vector c [angstrom]:       0.000     0.000    32.000    |c| =      32.000
 CELL| Angle (b,c), alpha [degree]:                                       90.000
 CELL| Angle (a,c), beta  [degree]:                                       90.000
 CELL| Angle (a,b), gamma [degree]:                                      120.000
 CELL| Numerically orthorhombic:                                              NO

 CELL_REF| Volume [angstrom^3]:                                         4670.759
 CELL_REF| Vector a [angstrom    12.982     0.000     0.000    |a| =      12.982
 CELL_REF| Vector b [angstrom    -6.491    11.243     0.000    |b| =      12.982
 CELL_REF| Vector c [angstrom     0.000     0.000    32.000    |c| =      32.000
 CELL_REF| Angle (b,c), alpha [degree]:                                   90.000
 CELL_REF| Angle (a,c), beta  [degree]:                                   90.000
 CELL_REF| Angle (a,b), gamma [degree]:                                  120.000
 CELL_REF| Numerically orthorhombic:                                          NO

 *******************************************************************************
 *******************************************************************************
 **                                                                           **
 **     #####                         ##              ##                      **
 **    ##   ##            ##          ##              ##                      **
 **   ##     ##                       ##            ######                    **
 **   ##     ##  ##   ##  ##   #####  ##  ##   ####   ##    #####    #####    **
 **   ##     ##  ##   ##  ##  ##      ## ##   ##      ##   ##   ##  ##   ##   **
 **   ##  ## ##  ##   ##  ##  ##      ####     ###    ##   ######   ######    **
 **    ##  ###   ##   ##  ##  ##      ## ##      ##   ##   ##       ##        **
 **     #######   #####   ##   #####  ##  ##  ####    ##    #####   ##        **
 **           ##                                                    ##        **
 **                                                                           **
 **                                                ... make the atoms dance   **
 **                                                                           **
 **            Copyright (C) by CP2K developers group (2000 - 2018)           **
 **                                                                           **
 *******************************************************************************

 DFT| Spin unrestricted (spin-polarized) Kohn-Sham calculation               UKS
 DFT| Multiplicity                                                             1
 DFT| Number of spin states                                                    2
 DFT| Charge                                                                   0
 DFT| Self-interaction correction (SIC)                                       NO
 DFT| Cutoffs: density                                              1.000000E-10
 DFT|          gradient                                             1.000000E-10
 DFT|          tau                                                  1.000000E-10
 DFT|          cutoff_smoothing_range                               0.000000E+00
 DFT| XC density smoothing                                                  NONE
 DFT| XC derivatives                                                          PW
 FUNCTIONAL| ROUTINE=NEW
 FUNCTIONAL| PBE:
 FUNCTIONAL| J.P.Perdew, K.Burke, M.Ernzerhof, Phys. Rev. Letter, vol. 77, n 18,
 FUNCTIONAL|  pp. 3865-3868, (1996){spin polarized}                             
 vdW POTENTIAL|                                                   Pair Potential
 vdW POTENTIAL|          DFT-D3 (Version 3.1)
 vdW POTENTIAL|          Potential Form: S. Grimme et al, JCP 132: 154104 (2010)
 vdW POTENTIAL|          Zero Damping
 vdW POTENTIAL|          Cutoff Radius [Bohr]:                             18.90
 vdW POTENTIAL|          s6 Scaling Factor:                               1.0000
 vdW POTENTIAL|          sr6 Scaling Factor:                              1.2170
 vdW POTENTIAL|          s8 Scaling Factor:                               0.7220
 vdW POTENTIAL|          Cutoff for CN calculation:                   0.1000E-05

 QS| Method:                                                                 GPW
 QS| Density plane wave grid type                        NON-SPHERICAL FULLSPACE
 QS| Number of grid levels:                                                    5
 QS| Density cutoff [a.u.]:                                                600.0
 QS| Multi grid cutoff [a.u.]: 1) grid level                               600.0
 QS|                           2) grid level                               200.0
 QS|                           3) grid level                                66.7
 QS|                           4) grid level                                22.2
 QS|                           5) grid level                                 7.4
 QS| Grid level progression factor:                                          3.0
 QS| Relative density cutoff [a.u.]:                                        20.0
 QS| Consistent realspace mapping and integration 
 QS| Interaction thresholds: eps_pgf_orb:                                1.0E-07
 QS|                         eps_filter_matrix:                          0.0E+00
 QS|                         eps_core_charge:                            1.0E-16
 QS|                         eps_rho_gspace:                             1.0E-14
 QS|                         eps_rho_rspace:                             1.0E-14
 QS|                         eps_gvg_rspace:                             1.0E-07
 QS|                         eps_ppl:                                    1.0E-02
 QS|                         eps_ppnl:                                   1.0E-09


 ATOMIC KIND INFORMATION

  1. Atomic kind: N                                     Number of atoms:     100

     Orbital Basis Set                                        DZVP-MOLOPT-SR-GTH

       Number of orbital shell sets:                                           1
       Number of orbital shells:                                               5
       Number of primitive Cartesian functions:                                5
       Number of Cartesian basis functions:                                   14
       Number of spherical basis functions:                                   13
       Norm type:                                                              2

       Normalised Cartesian orbitals:

                        Set   Shell   Orbital            Exponent    Coefficient

                          1       1    2s                7.341988       0.360561
                                                         2.542637       0.139177
                                                         0.888575      -0.289383
                                                         0.333802      -0.182244
                                                         0.112012      -0.019197

                          1       2    3s                7.341988       0.282000
                                                         2.542637       0.177875
                                                         0.888575      -0.278381
                                                         0.333802       0.008577
                                                         0.112012       0.154176

                          1       3    3px               7.341988      -1.188719
                                                         2.542637      -0.973969
                                                         0.888575      -0.501079
                                                         0.333802      -0.144894
                                                         0.112012      -0.013986
                          1       3    3py               7.341988      -1.188719
                                                         2.542637      -0.973969
                                                         0.888575      -0.501079
                                                         0.333802      -0.144894
                                                         0.112012      -0.013986
                          1       3    3pz               7.341988      -1.188719
                                                         2.542637      -0.973969
                                                         0.888575      -0.501079
                                                         0.333802      -0.144894
                                                         0.112012      -0.013986

                          1       4    4px               7.341988      -0.094798
                                                         2.542637       0.050069
                                                         0.888575      -0.114797
                                                         0.333802       0.144793
                                                         0.112012       0.066710
                          1       4    4py               7.341988      -0.094798
                                                         2.542637       0.050069
                                                         0.888575      -0.114797
                                                         0.333802       0.144793
                                                         0.112012       0.066710
                          1       4    4pz               7.341988      -0.094798
                                                         2.542637       0.050069
                                                         0.888575      -0.114797
                                                         0.333802       0.144793
                                                         0.112012       0.066710

                          1       5    4dx2              7.341988       1.354688
                                                         2.542637       0.690378
                                                         0.888575       0.855359
                                                         0.333802       0.091746
                                                         0.112012       0.001253
                          1       5    4dxy              7.341988       2.346389
                                                         2.542637       1.195770
                                                         0.888575       1.481524
                                                         0.333802       0.158910
                                                         0.112012       0.002169
                          1       5    4dxz              7.341988       2.346389
                                                         2.542637       1.195770
                                                         0.888575       1.481524
                                                         0.333802       0.158910
                                                         0.112012       0.002169
                          1       5    4dy2              7.341988       1.354688
                                                         2.542637       0.690378
                                                         0.888575       0.855359
                                                         0.333802       0.091746
                                                         0.112012       0.001253
                          1       5    4dyz              7.341988       2.346389
                                                         2.542637       1.195770
                                                         0.888575       1.481524
                                                         0.333802       0.158910
                                                         0.112012       0.002169
                          1       5    4dz2              7.341988       1.354688
                                                         2.542637       0.690378
                                                         0.888575       0.855359
                                                         0.333802       0.091746
                                                         0.112012       0.001253

     GTH Potential information for                                    GTH-PBE-q5

       Description:                       Goedecker-Teter-Hutter pseudopotential
                                           Goedecker et al., PRB 54, 1703 (1996)
                                          Hartwigsen et al., PRB 58, 3641 (1998)
                                                      Krack, TCA 114, 145 (2005)

       Gaussian exponent of the core charge distribution:               6.208322
       Electronic configuration (s p d ...):                               2   3

       Parameters of the local part of the GTH pseudopotential:

                          rloc        C1          C2          C3          C4
                        0.283791  -12.415226    1.868096

       Parameters of the non-local part of the GTH pseudopotential:

                   l      r(l)      h(i,j,l)

                   0    0.255405   13.630263
                   1    0.245495

  2. Atomic kind: Ga                                    Number of atoms:     100

     Orbital Basis Set                                        DZVP-MOLOPT-SR-GTH

       Number of orbital shell sets:                                           1
       Number of orbital shells:                                               7
       Number of primitive Cartesian functions:                                6
       Number of Cartesian basis functions:                                   30
       Number of spherical basis functions:                                   25
       Norm type:                                                              2

       Normalised Cartesian orbitals:

                        Set   Shell   Orbital            Exponent    Coefficient

                          1       1    2s                7.066654       0.013136
                                                         3.428369      -0.094392
                                                         1.430064       0.265435
                                                         0.571611       0.056465
                                                         0.232197      -0.192187
                                                         0.076562      -0.044987

                          1       2    3s                7.066654      -0.098564
                                                         3.428369       0.010390
                                                         1.430064       0.351249
                                                         0.571611       0.182615
                                                         0.232197      -0.425358
                                                         0.076562       0.190349

                          1       3    3px               7.066654       0.002364
                                                         3.428369       0.019222
                                                         1.430064       0.250132
                                                         0.571611      -0.058486
                                                         0.232197      -0.159451
                                                         0.076562      -0.020696
                          1       3    3py               7.066654       0.002364
                                                         3.428369       0.019222
                                                         1.430064       0.250132
                                                         0.571611      -0.058486
                                                         0.232197      -0.159451
                                                         0.076562      -0.020696
                          1       3    3pz               7.066654       0.002364
                                                         3.428369       0.019222
                                                         1.430064       0.250132
                                                         0.571611      -0.058486
                                                         0.232197      -0.159451
                                                         0.076562      -0.020696

                          1       4    4px               7.066654       0.492448
                                                         3.428369      -0.614736
                                                         1.430064      -0.191654
                                                         0.571611       0.037801
                                                         0.232197       0.302315
                                                         0.076562      -0.071336
                          1       4    4py               7.066654       0.492448
                                                         3.428369      -0.614736
                                                         1.430064      -0.191654
                                                         0.571611       0.037801
                                                         0.232197       0.302315
                                                         0.076562      -0.071336
                          1       4    4pz               7.066654       0.492448
                                                         3.428369      -0.614736
                                                         1.430064      -0.191654
                                                         0.571611       0.037801
                                                         0.232197       0.302315
                                                         0.076562      -0.071336

                          1       5    4dx2              7.066654     -15.264855
                                                         3.428369      -5.345726
                                                         1.430064      -1.022732
                                                         0.571611      -0.123148
                                                         0.232197      -0.006983
                                                         0.076562      -0.000022
                          1       5    4dxy              7.066654     -26.439504
                                                         3.428369      -9.259069
                                                         1.430064      -1.771423
                                                         0.571611      -0.213299
                                                         0.232197      -0.012094
                                                         0.076562      -0.000037
                          1       5    4dxz              7.066654     -26.439504
                                                         3.428369      -9.259069
                                                         1.430064      -1.771423
                                                         0.571611      -0.213299
                                                         0.232197      -0.012094
                                                         0.076562      -0.000037
                          1       5    4dy2              7.066654     -15.264855
                                                         3.428369      -5.345726
                                                         1.430064      -1.022732
                                                         0.571611      -0.123148
                                                         0.232197      -0.006983
                                                         0.076562      -0.000022
                          1       5    4dyz              7.066654     -26.439504
                                                         3.428369      -9.259069
                                                         1.430064      -1.771423
                                                         0.571611      -0.213299
                                                         0.232197      -0.012094
                                                         0.076562      -0.000037
                          1       5    4dz2              7.066654     -15.264855
                                                         3.428369      -5.345726
                                                         1.430064      -1.022732
                                                         0.571611      -0.123148
                                                         0.232197      -0.006983
                                                         0.076562      -0.000022

                          1       6    5dx2              7.066654      -5.739265
                                                         3.428369      -2.129289
                                                         1.430064      -0.700423
                                                         0.571611       0.161606
                                                         0.232197       0.043513
                                                         0.076562       0.011205
                          1       6    5dxy              7.066654      -9.940698
                                                         3.428369      -3.688037
                                                         1.430064      -1.213168
                                                         0.571611       0.279909
                                                         0.232197       0.075368
                                                         0.076562       0.019407
                          1       6    5dxz              7.066654      -9.940698
                                                         3.428369      -3.688037
                                                         1.430064      -1.213168
                                                         0.571611       0.279909
                                                         0.232197       0.075368
                                                         0.076562       0.019407
                          1       6    5dy2              7.066654      -5.739265
                                                         3.428369      -2.129289
                                                         1.430064      -0.700423
                                                         0.571611       0.161606
                                                         0.232197       0.043513
                                                         0.076562       0.011205
                          1       6    5dyz              7.066654      -9.940698
                                                         3.428369      -3.688037
                                                         1.430064      -1.213168
                                                         0.571611       0.279909
                                                         0.232197       0.075368
                                                         0.076562       0.019407
                          1       6    5dz2              7.066654      -5.739265
                                                         3.428369      -2.129289
                                                         1.430064      -0.700423
                                                         0.571611       0.161606
                                                         0.232197       0.043513
                                                         0.076562       0.011205

                          1       7    5fx3              7.066654       0.705879
                                                         3.428369      -0.273976
                                                         1.430064       0.113667
                                                         0.571611       0.132480
                                                         0.232197       0.012437
                                                         0.076562       0.003241
                          1       7    5fx2y             7.066654       1.578393
                                                         3.428369      -0.612629
                                                         1.430064       0.254167
                                                         0.571611       0.296234
                                                         0.232197       0.027811
                                                         0.076562       0.007246
                          1       7    5fx2z             7.066654       1.578393
                                                         3.428369      -0.612629
                                                         1.430064       0.254167
                                                         0.571611       0.296234
                                                         0.232197       0.027811
                                                         0.076562       0.007246
                          1       7    5fxy2             7.066654       1.578393
                                                         3.428369      -0.612629
                                                         1.430064       0.254167
                                                         0.571611       0.296234
                                                         0.232197       0.027811
                                                         0.076562       0.007246
                          1       7    5fxyz             7.066654       2.733856
                                                         3.428369      -1.061105
                                                         1.430064       0.440230
                                                         0.571611       0.513092
                                                         0.232197       0.048170
                                                         0.076562       0.012551
                          1       7    5fxz2             7.066654       1.578393
                                                         3.428369      -0.612629
                                                         1.430064       0.254167
                                                         0.571611       0.296234
                                                         0.232197       0.027811
                                                         0.076562       0.007246
                          1       7    5fy3              7.066654       0.705879
                                                         3.428369      -0.273976
                                                         1.430064       0.113667
                                                         0.571611       0.132480
                                                         0.232197       0.012437
                                                         0.076562       0.003241
                          1       7    5fy2z             7.066654       1.578393
                                                         3.428369      -0.612629
                                                         1.430064       0.254167
                                                         0.571611       0.296234
                                                         0.232197       0.027811
                                                         0.076562       0.007246
                          1       7    5fyz2             7.066654       1.578393
                                                         3.428369      -0.612629
                                                         1.430064       0.254167
                                                         0.571611       0.296234
                                                         0.232197       0.027811
                                                         0.076562       0.007246
                          1       7    5fz3              7.066654       0.705879
                                                         3.428369      -0.273976
                                                         1.430064       0.113667
                                                         0.571611       0.132480
                                                         0.232197       0.012437
                                                         0.076562       0.003241

     GTH Potential information for                                   GTH-PBE-q13

       Description:                       Goedecker-Teter-Hutter pseudopotential
                                           Goedecker et al., PRB 54, 1703 (1996)
                                          Hartwigsen et al., PRB 58, 3641 (1998)
                                                      Krack, TCA 114, 145 (2005)

       Gaussian exponent of the core charge distribution:               2.082466
       Electronic configuration (s p d ...):                           2   1  10

       Parameters of the local part of the GTH pseudopotential:

                          rloc        C1          C2          C3          C4
                        0.490000

       Parameters of the non-local part of the GTH pseudopotential:

                   l      r(l)      h(i,j,l)

                   0    0.416777   10.475690   -4.921768    0.870706
                                   -4.921768    7.770178   -2.248152
                                    0.870706   -2.248152    1.784415
                   1    0.569627    1.777985    0.195860
                                    0.195860   -0.231744
                   2    0.238126  -16.248680

  3. Atomic kind: O                                     Number of atoms:       2

     Orbital Basis Set                                     DZVP-MOLOPT-SR-GTH-q6

       Number of orbital shell sets:                                           1
       Number of orbital shells:                                               5
       Number of primitive Cartesian functions:                                5
       Number of Cartesian basis functions:                                   14
       Number of spherical basis functions:                                   13
       Norm type:                                                              2

       Normalised Cartesian orbitals:

                        Set   Shell   Orbital            Exponent    Coefficient

                          1       1    2s               10.389228       0.396646
                                                         3.849621       0.208811
                                                         1.388401      -0.301641
                                                         0.496955      -0.274061
                                                         0.162492      -0.033677

                          1       2    3s               10.389228       0.303673
                                                         3.849621       0.240943
                                                         1.388401      -0.313066
                                                         0.496955      -0.043055
                                                         0.162492       0.213991

                          1       3    3px              10.389228      -1.530415
                                                         3.849621      -1.371928
                                                         1.388401      -0.761951
                                                         0.496955      -0.253695
                                                         0.162492      -0.035541
                          1       3    3py              10.389228      -1.530415
                                                         3.849621      -1.371928
                                                         1.388401      -0.761951
                                                         0.496955      -0.253695
                                                         0.162492      -0.035541
                          1       3    3pz              10.389228      -1.530415
                                                         3.849621      -1.371928
                                                         1.388401      -0.761951
                                                         0.496955      -0.253695
                                                         0.162492      -0.035541

                          1       4    4px              10.389228      -0.565392
                                                         3.849621      -0.038231
                                                         1.388401      -0.382373
                                                         0.496955       0.179070
                                                         0.162492       0.122714
                          1       4    4py              10.389228      -0.565392
                                                         3.849621      -0.038231
                                                         1.388401      -0.382373
                                                         0.496955       0.179070
                                                         0.162492       0.122714
                          1       4    4pz              10.389228      -0.565392
                                                         3.849621      -0.038231
                                                         1.388401      -0.382373
                                                         0.496955       0.179070
                                                         0.162492       0.122714

                          1       5    4dx2             10.389228       1.867377
                                                         3.849621       0.670994
                                                         1.388401       1.353441
                                                         0.496955       0.273538
                                                         0.162492       0.006620
                          1       5    4dxy             10.389228       3.234392
                                                         3.849621       1.162195
                                                         1.388401       2.344229
                                                         0.496955       0.473781
                                                         0.162492       0.011466
                          1       5    4dxz             10.389228       3.234392
                                                         3.849621       1.162195
                                                         1.388401       2.344229
                                                         0.496955       0.473781
                                                         0.162492       0.011466
                          1       5    4dy2             10.389228       1.867377
                                                         3.849621       0.670994
                                                         1.388401       1.353441
                                                         0.496955       0.273538
                                                         0.162492       0.006620
                          1       5    4dyz             10.389228       3.234392
                                                         3.849621       1.162195
                                                         1.388401       2.344229
                                                         0.496955       0.473781
                                                         0.162492       0.011466
                          1       5    4dz2             10.389228       1.867377
                                                         3.849621       0.670994
                                                         1.388401       1.353441
                                                         0.496955       0.273538
                                                         0.162492       0.006620

     GTH Potential information for                                    GTH-PBE-q6

       Description:                       Goedecker-Teter-Hutter pseudopotential
                                           Goedecker et al., PRB 54, 1703 (1996)
                                          Hartwigsen et al., PRB 58, 3641 (1998)
                                                      Krack, TCA 114, 145 (2005)

       Gaussian exponent of the core charge distribution:               8.360253
       Electronic configuration (s p d ...):                               2   4

       Parameters of the local part of the GTH pseudopotential:

                          rloc        C1          C2          C3          C4
                        0.244554  -16.667215    2.487311

       Parameters of the non-local part of the GTH pseudopotential:

                   l      r(l)      h(i,j,l)

                   0    0.220956   18.337458
                   1    0.211332

  4. Atomic kind: H                                     Number of atoms:       8

     Orbital Basis Set                                     DZVP-MOLOPT-SR-GTH-q1

       Number of orbital shell sets:                                           1
       Number of orbital shells:                                               3
       Number of primitive Cartesian functions:                                5
       Number of Cartesian basis functions:                                    5
       Number of spherical basis functions:                                    5
       Norm type:                                                              2

       Normalised Cartesian orbitals:

                        Set   Shell   Orbital            Exponent    Coefficient

                          1       1    2s               10.068468      -0.133023
                                                         2.680223      -0.177618
                                                         0.791502      -0.258419
                                                         0.239116      -0.107525
                                                         0.082193      -0.014019

                          1       2    3s               10.068468       0.344673
                                                         2.680223       1.819821
                                                         0.791502      -0.999069
                                                         0.239116       0.017430
                                                         0.082193       0.082660

                          1       3    3px              10.068468       0.155326
                                                         2.680223       0.367157
                                                         0.791502       0.311480
                                                         0.239116       0.080105
                                                         0.082193       0.033440
                          1       3    3py              10.068468       0.155326
                                                         2.680223       0.367157
                                                         0.791502       0.311480
                                                         0.239116       0.080105
                                                         0.082193       0.033440
                          1       3    3pz              10.068468       0.155326
                                                         2.680223       0.367157
                                                         0.791502       0.311480
                                                         0.239116       0.080105
                                                         0.082193       0.033440

     GTH Potential information for                                    GTH-PBE-q1

       Description:                       Goedecker-Teter-Hutter pseudopotential
                                           Goedecker et al., PRB 54, 1703 (1996)
                                          Hartwigsen et al., PRB 58, 3641 (1998)
                                                      Krack, TCA 114, 145 (2005)

       Gaussian exponent of the core charge distribution:              12.500000
       Electronic configuration (s p d ...):                                   1

       Parameters of the local part of the GTH pseudopotential:

                          rloc        C1          C2          C3          C4
                        0.200000   -4.178900    0.724463

  5. Atomic kind: C                                     Number of atoms:       2

     Orbital Basis Set                                     DZVP-MOLOPT-SR-GTH-q4

       Number of orbital shell sets:                                           1
       Number of orbital shells:                                               5
       Number of primitive Cartesian functions:                                5
       Number of Cartesian basis functions:                                   14
       Number of spherical basis functions:                                   13
       Norm type:                                                              2

       Normalised Cartesian orbitals:

                        Set   Shell   Orbital            Exponent    Coefficient

                          1       1    2s                5.605331       0.322515
                                                         2.113016       0.213043
                                                         0.769911      -0.209686
                                                         0.348157      -0.219794
                                                         0.128212      -0.022789

                          1       2    3s                5.605331       0.552234
                                                         2.113016       0.082072
                                                         0.769911       0.007843
                                                         0.348157       0.136893
                                                         0.128212       0.074283

                          1       3    3px               5.605331      -0.703879
                                                         2.113016      -0.642521
                                                         0.769911      -0.374851
                                                         0.348157      -0.139743
                                                         0.128212      -0.027849
                          1       3    3py               5.605331      -0.703879
                                                         2.113016      -0.642521
                                                         0.769911      -0.374851
                                                         0.348157      -0.139743
                                                         0.128212      -0.027849
                          1       3    3pz               5.605331      -0.703879
                                                         2.113016      -0.642521
                                                         0.769911      -0.374851
                                                         0.348157      -0.139743
                                                         0.128212      -0.027849

                          1       4    4px               5.605331      -0.480376
                                                         2.113016      -0.552894
                                                         0.769911      -0.316145
                                                         0.348157       0.210505
                                                         0.128212       0.076095
                          1       4    4py               5.605331      -0.480376
                                                         2.113016      -0.552894
                                                         0.769911      -0.316145
                                                         0.348157       0.210505
                                                         0.128212       0.076095
                          1       4    4pz               5.605331      -0.480376
                                                         2.113016      -0.552894
                                                         0.769911      -0.316145
                                                         0.348157       0.210505
                                                         0.128212       0.076095

                          1       5    4dx2              5.605331       0.640026
                                                         2.113016       0.274300
                                                         0.769911       0.446711
                                                         0.348157       0.028674
                                                         0.128212       0.029790
                          1       5    4dxy              5.605331       1.108557
                                                         2.113016       0.475102
                                                         0.769911       0.773726
                                                         0.348157       0.049666
                                                         0.128212       0.051599
                          1       5    4dxz              5.605331       1.108557
                                                         2.113016       0.475102
                                                         0.769911       0.773726
                                                         0.348157       0.049666
                                                         0.128212       0.051599
                          1       5    4dy2              5.605331       0.640026
                                                         2.113016       0.274300
                                                         0.769911       0.446711
                                                         0.348157       0.028674
                                                         0.128212       0.029790
                          1       5    4dyz              5.605331       1.108557
                                                         2.113016       0.475102
                                                         0.769911       0.773726
                                                         0.348157       0.049666
                                                         0.128212       0.051599
                          1       5    4dz2              5.605331       0.640026
                                                         2.113016       0.274300
                                                         0.769911       0.446711
                                                         0.348157       0.028674
                                                         0.128212       0.029790

     GTH Potential information for                                    GTH-PBE-q4

       Description:                       Goedecker-Teter-Hutter pseudopotential
                                           Goedecker et al., PRB 54, 1703 (1996)
                                          Hartwigsen et al., PRB 58, 3641 (1998)
                                                      Krack, TCA 114, 145 (2005)

       Gaussian exponent of the core charge distribution:               4.364419
       Electronic configuration (s p d ...):                               2   2

       Parameters of the local part of the GTH pseudopotential:

                          rloc        C1          C2          C3          C4
                        0.338471   -8.803674    1.339211

       Parameters of the non-local part of the GTH pseudopotential:

                   l      r(l)      h(i,j,l)

                   0    0.302576    9.622487
                   1    0.291507


 MOLECULE KIND INFORMATION


 All atoms are their own molecule, skipping detailed information


 TOTAL NUMBERS AND MAXIMUM NUMBERS

  Total number of            - Atomic kinds:                                   5
                             - Atoms:                                        212
                             - Shell sets:                                   212
                             - Shells:                                      1244
                             - Primitive Cartesian functions:               1160
                             - Cartesian basis functions:                   4496
                             - Spherical basis functions:                   3892

  Maximum angular momentum of- Orbital basis functions:                        3
                             - Local part of the GTH pseudopotential:          2
                             - Non-local part of the GTH pseudopotential:      4


 MODULE QUICKSTEP:  ATOMIC COORDINATES IN angstrom

  Atom  Kind  Element       X           Y           Z          Z(eff)       Mass

       1     1 N    7    0.049869    1.995936    2.486369      5.00      14.0067
       2     2 Ga  31    0.069005    0.027447    2.821457     13.00      69.7230
       3     1 N    7    0.051793   -0.004709    5.008297      5.00      14.0067
       4     2 Ga  31    0.055364    1.820994    5.790566     13.00      69.7230
       5     1 N    7    0.054981    1.836151    7.793085      5.00      14.0067
       6     2 Ga  31    0.057229   -0.009319    8.435342     13.00      69.7230
       7     1 N    7    0.056794   -0.009439   10.411715      5.00      14.0067
       8     2 Ga  31    0.056906    1.830768   11.061219     13.00      69.7230
       9     1 N    7    0.058220    1.811640   13.056629      5.00      14.0067
      10     2 Ga  31    0.058504   -0.008567   13.858574     13.00      69.7230
      11     1 N    7    0.059089   -0.007088   16.063117      5.00      14.0067
      12     2 Ga  31    0.059243    2.037540   16.476095     13.00      69.7230
      13     2 Ga  31    0.019081    3.696624    1.358583     13.00      69.7230
      14     1 N    7   -1.434112    4.566841    2.512539      5.00      14.0067
      15     2 Ga  31   -1.626345    2.730281    3.274895     13.00      69.7230
      16     1 N    7   -1.556292    2.774968    5.252255      5.00      14.0067
      17     2 Ga  31   -1.586412    4.641857    5.801790     13.00      69.7230
      18     1 N    7   -1.562712    4.639087    7.797716      5.00      14.0067
      19     2 Ga  31   -1.542727    2.779384    8.430982     13.00      69.7230
      20     1 N    7   -1.541053    2.782782   10.426410      5.00      14.0067
      21     2 Ga  31   -1.567420    4.641049   11.064649     13.00      69.7230
      22     1 N    7   -1.581675    4.651434   13.059560      5.00      14.0067
      23     2 Ga  31   -1.538396    2.782188   13.614427     13.00      69.7230
      24     1 N    7   -1.564080    2.766175   15.577629      5.00      14.0067
      25     2 Ga  31   -1.390700    4.541840   16.476048     13.00      69.7230
      26     1 N    7    0.059306    3.712631   17.611281      5.00      14.0067
      27     1 N    7   -3.160622    7.534046    2.501863      5.00      14.0067
      28     2 Ga  31   -3.136815    5.551991    2.833212     13.00      69.7230
      29     1 N    7   -3.161204    5.558969    5.017691      5.00      14.0067
      30     2 Ga  31   -3.168495    7.384240    5.789577     13.00      69.7230
      31     1 N    7   -3.160067    7.408059    7.787516      5.00      14.0067
      32     2 Ga  31   -3.161431    5.562473    8.440888     13.00      69.7230
      33     1 N    7   -3.160032    5.562682   10.414920      5.00      14.0067
      34     2 Ga  31   -3.161308    7.402157   11.064306     13.00      69.7230
      35     1 N    7   -3.158284    7.382272   13.058217      5.00      14.0067
      36     2 Ga  31   -3.158078    5.562005   13.860546     13.00      69.7230
      37     1 N    7   -3.156827    5.563263   16.063959      5.00      14.0067
      38     2 Ga  31   -3.157319    7.609216   16.476309     13.00      69.7230
      39     2 Ga  31   -3.183115    9.282670    1.349133     13.00      69.7230
      40     1 N    7   -4.669567   10.145017    2.500122      5.00      14.0067
      41     2 Ga  31   -4.856172    8.302634    3.252375     13.00      69.7230
      42     1 N    7   -4.769059    8.346440    5.231109      5.00      14.0067
      43     2 Ga  31   -4.796369   10.219568    5.778164     13.00      69.7230
      44     1 N    7   -4.778688   10.208737    7.782903      5.00      14.0067
      45     2 Ga  31   -4.759718    8.354535    8.425569     13.00      69.7230
      46     1 N    7   -4.756565    8.353575   10.421809      5.00      14.0067
      47     2 Ga  31   -4.781908   10.212257   11.061395     13.00      69.7230
      48     1 N    7   -4.797252   10.221563   13.056809      5.00      14.0067
      49     2 Ga  31   -4.755237    8.352940   13.614322     13.00      69.7230
      50     1 N    7   -4.780423    8.336379   15.576691      5.00      14.0067
      51     2 Ga  31   -4.606309   10.112383   16.475184     13.00      69.7230
      52     1 N    7   -3.157613    9.284193   17.610296      5.00      14.0067
      53     1 N    7    3.258421    1.849159    2.612894      5.00      14.0067
      54     2 Ga  31    3.262568    0.089802    3.251658     13.00      69.7230
      55     1 N    7    3.272051   -0.011876    5.231116      5.00      14.0067
      56     2 Ga  31    3.262433    1.843261    5.857529     13.00      69.7230
      57     1 N    7    3.271301    1.846105    7.838152      5.00      14.0067
      58     2 Ga  31    3.269075   -0.020157    8.425462     13.00      69.7230
      59     1 N    7    3.272658   -0.021563   10.422136      5.00      14.0067
      60     2 Ga  31    3.272657    1.847779   11.018170     13.00      69.7230
      61     1 N    7    3.274495    1.848041   12.991410      5.00      14.0067
      62     2 Ga  31    3.274070   -0.021280   13.614092     13.00      69.7230
      63     1 N    7    3.275490    0.010434   15.577630      5.00      14.0067
      64     2 Ga  31    3.275680    1.848135   15.856694     13.00      69.7230
      65     1 N    7    1.542970    4.573079    2.512597      5.00      14.0067
      66     2 Ga  31    1.731230    2.733922    3.258324     13.00      69.7230
      67     1 N    7    1.662531    2.775714    5.243126      5.00      14.0067
      68     2 Ga  31    1.690831    4.638598    5.798865     13.00      69.7230
      69     1 N    7    1.672825    4.639404    7.794889      5.00      14.0067
      70     2 Ga  31    1.654214    2.778812    8.428205     13.00      69.7230
      71     1 N    7    1.654005    2.782902   10.424413      5.00      14.0067
      72     2 Ga  31    1.679877    4.640448   11.064452     13.00      69.7230
      73     1 N    7    1.697672    4.651270   13.058873      5.00      14.0067
      74     2 Ga  31    1.655237    2.781771   13.613825     13.00      69.7230
      75     1 N    7    1.682648    2.766223   15.576710      5.00      14.0067
      76     2 Ga  31    1.508394    4.541271   16.476082     13.00      69.7230
      77     1 N    7    0.042730    7.400727    2.681704      5.00      14.0067
      78     2 Ga  31    0.054220    5.558800    3.326254     13.00      69.7230
      79     1 N    7    0.053257    5.574329    5.264514      5.00      14.0067
      80     2 Ga  31    0.047955    7.414964    5.897960     13.00      69.7230
      81     1 N    7    0.054232    7.419774    7.857240      5.00      14.0067
      82     2 Ga  31    0.054883    5.546320    8.438315     13.00      69.7230
      83     1 N    7    0.056366    5.549133   10.429863      5.00      14.0067
      84     2 Ga  31    0.055629    7.418594   11.023021     13.00      69.7230
      85     1 N    7    0.057908    7.418655   12.994242      5.00      14.0067
      86     2 Ga  31    0.058039    5.548435   13.615613     13.00      69.7230
      87     1 N    7    0.059342    5.580628   15.579369      5.00      14.0067
      88     2 Ga  31    0.059082    7.418530   15.857608     13.00      69.7230
      89     1 N    7   -1.653487   10.137395    2.503569      5.00      14.0067
      90     2 Ga  31   -1.544610    8.332271    3.296205     13.00      69.7230
      91     1 N    7   -1.542428    8.339250    5.238555      5.00      14.0067
      92     2 Ga  31   -1.532326   10.222560    5.790948     13.00      69.7230
      93     1 N    7   -1.543852   10.206662    7.787455      5.00      14.0067
      94     2 Ga  31   -1.567623    8.354455    8.437286     13.00      69.7230
      95     1 N    7   -1.563422    8.353695   10.428085      5.00      14.0067
      96     2 Ga  31   -1.538133   10.213363   11.064124     13.00      69.7230
      97     1 N    7   -1.518585   10.221834   13.058173      5.00      14.0067
      98     2 Ga  31   -1.561284    8.352897   13.615216     13.00      69.7230
      99     1 N    7   -1.533642    8.336575   15.577343      5.00      14.0067
     100     2 Ga  31   -1.708245   10.112230   16.475435     13.00      69.7230
     101     1 N    7    6.485729    1.970962    2.528482      5.00      14.0067
     102     2 Ga  31    6.472470   -0.008041    2.854841     13.00      69.7230
     103     1 N    7    6.488189   -0.009052    5.017712      5.00      14.0067
     104     2 Ga  31    6.485069    1.820834    5.797704     13.00      69.7230
     105     1 N    7    6.487094    1.835576    7.793891      5.00      14.0067
     106     2 Ga  31    6.485395   -0.010147    8.438935     13.00      69.7230
     107     1 N    7    6.488206   -0.009615   10.412975      5.00      14.0067
     108     2 Ga  31    6.488186    1.831474   11.062082     13.00      69.7230
     109     1 N    7    6.490072    1.811452   13.056954      5.00      14.0067
     110     2 Ga  31    6.490135   -0.008462   13.860139     13.00      69.7230
     111     1 N    7    6.491507   -0.007252   16.063569      5.00      14.0067
     112     2 Ga  31    6.491536    2.034894   16.473336     13.00      69.7230
     113     2 Ga  31    6.485985    3.702477    1.518438     13.00      69.7230
     114     1 N    7    4.983426    4.570880    2.526565      5.00      14.0067
     115     2 Ga  31    4.765706    2.713344    3.288968     13.00      69.7230
     116     1 N    7    4.876414    2.775140    5.250077      5.00      14.0067
     117     2 Ga  31    4.854986    4.646367    5.795416     13.00      69.7230
     118     1 N    7    4.869354    4.639129    7.792018      5.00      14.0067
     119     2 Ga  31    4.886618    2.780131    8.428304     13.00      69.7230
     120     1 N    7    4.891248    2.782902   10.423777      5.00      14.0067
     121     2 Ga  31    4.866769    4.641238   11.062839     13.00      69.7230
     122     1 N    7    4.851194    4.651186   13.057964      5.00      14.0067
     123     2 Ga  31    4.893520    2.782155   13.613576     13.00      69.7230
     124     1 N    7    4.868948    2.766751   15.577048      5.00      14.0067
     125     2 Ga  31    5.039377    4.543605   16.472971     13.00      69.7230
     126     1 N    7    6.491943    3.713842   17.606477      5.00      14.0067
     127     1 N    7    3.260503    7.540273    2.492711      5.00      14.0067
     128     1 N    7    3.270417    5.563102    5.017327      5.00      14.0067
     129     2 Ga  31    3.273728    7.384391    5.798749     13.00      69.7230
     130     1 N    7    3.268666    7.408100    7.791170      5.00      14.0067
     131     2 Ga  31    3.271411    5.560270    8.441522     13.00      69.7230
     132     1 N    7    3.272636    5.562204   10.414664      5.00      14.0067
     133     2 Ga  31    3.274361    7.401439   11.064822     13.00      69.7230
     134     1 N    7    3.274522    7.382079   13.058425      5.00      14.0067
     135     2 Ga  31    3.274629    5.561703   13.859545     13.00      69.7230
     136     1 N    7    3.275152    5.563545   16.064602      5.00      14.0067
     137     2 Ga  31    3.275769    7.606036   16.474437     13.00      69.7230
     138     2 Ga  31    3.296731    9.304498    1.480866     13.00      69.7230
     139     1 N    7    1.764299   10.136052    2.514398      5.00      14.0067
     140     2 Ga  31    1.623109    8.317833    3.308546     13.00      69.7230
     141     1 N    7    1.647698    8.337012    5.241306      5.00      14.0067
     142     2 Ga  31    1.633779   10.221140    5.800153     13.00      69.7230
     143     1 N    7    1.653013   10.205187    7.792290      5.00      14.0067
     144     2 Ga  31    1.674499    8.352881    8.441583     13.00      69.7230
     145     1 N    7    1.675699    8.353345   10.430322      5.00      14.0067
     146     2 Ga  31    1.649645   10.213667   11.065148     13.00      69.7230
     147     1 N    7    1.634217   10.221960   13.059152      5.00      14.0067
     148     2 Ga  31    1.677361    8.352892   13.615065     13.00      69.7230
     149     1 N    7    1.652389    8.336724   15.577494      5.00      14.0067
     150     2 Ga  31    1.823291   10.114326   16.473640     13.00      69.7230
     151     1 N    7    3.276379    9.284752   17.606261      5.00      14.0067
     152     1 N    7    9.709910    1.852116    2.620584      5.00      14.0067
     153     2 Ga  31    9.707014    0.112800    3.290110     13.00      69.7230
     154     1 N    7    9.699395   -0.013061    5.250016      5.00      14.0067
     155     2 Ga  31    9.706900    1.849214    5.870012     13.00      69.7230
     156     1 N    7    9.702188    1.846208    7.845466      5.00      14.0067
     157     2 Ga  31    9.705037   -0.020495    8.430730     13.00      69.7230
     158     1 N    7    9.704343   -0.021734   10.425388      5.00      14.0067
     159     2 Ga  31    9.705048    1.848270   11.020238     13.00      69.7230
     160     1 N    7    9.706051    1.847916   12.993267      5.00      14.0067
     161     2 Ga  31    9.706714   -0.021855   13.615061     13.00      69.7230
     162     1 N    7    9.707597    0.010086   15.578751      5.00      14.0067
     163     2 Ga  31    9.707661    1.848343   15.858059     13.00      69.7230
     164     1 N    7    7.988128    4.570364    2.524250      5.00      14.0067
     165     2 Ga  31    8.200929    2.719900    3.292679     13.00      69.7230
     166     1 N    7    8.094763    2.775401    5.253852      5.00      14.0067
     167     2 Ga  31    8.121205    4.648755    5.796243     13.00      69.7230
     168     1 N    7    8.104939    4.638859    7.793871      5.00      14.0067
     169     2 Ga  31    8.085893    2.781347    8.431798     13.00      69.7230
     170     1 N    7    8.085710    2.782818   10.426318      5.00      14.0067
     171     2 Ga  31    8.110965    4.641810   11.063228     13.00      69.7230
     172     1 N    7    8.129394    4.651154   13.058753      5.00      14.0067
     173     2 Ga  31    8.086678    2.782295   13.614433     13.00      69.7230
     174     1 N    7    8.114125    2.766265   15.577945      5.00      14.0067
     175     2 Ga  31    7.945234    4.544188   16.472559     13.00      69.7230
     176     1 N    7    6.486731    7.419530    2.604588      5.00      14.0067
     177     2 Ga  31    6.489649    5.681424    3.287236     13.00      69.7230
     178     1 N    7    6.486722    5.563156    5.248502      5.00      14.0067
     179     2 Ga  31    6.490695    7.422397    5.860963     13.00      69.7230
     180     1 N    7    6.487368    7.419017    7.837743      5.00      14.0067
     181     2 Ga  31    6.487684    5.551677    8.429575     13.00      69.7230
     182     1 N    7    6.488636    5.549862   10.424743      5.00      14.0067
     183     2 Ga  31    6.489796    7.419321   11.018838     13.00      69.7230
     184     1 N    7    6.490466    7.418380   12.991790      5.00      14.0067
     185     2 Ga  31    6.490434    5.548612   13.614746     13.00      69.7230
     186     1 N    7    6.491347    5.580079   15.579075      5.00      14.0067
     187     2 Ga  31    6.491960    7.418167   15.857884     13.00      69.7230
     188     1 N    7    4.775931   10.147796    2.520632      5.00      14.0067
     189     2 Ga  31    4.978238    8.287625    3.277785     13.00      69.7230
     190     1 N    7    4.874463    8.346573    5.241480      5.00      14.0067
     191     2 Ga  31    4.909320   10.220834    5.790092     13.00      69.7230
     192     1 N    7    4.889052   10.208547    7.789207      5.00      14.0067
     193     2 Ga  31    4.871584    8.353158    8.428739     13.00      69.7230
     194     1 N    7    4.869810    8.352899   10.423344      5.00      14.0067
     195     2 Ga  31    4.896060   10.212275   11.061586     13.00      69.7230
     196     1 N    7    4.913705   10.221450   13.057311      5.00      14.0067
     197     2 Ga  31    4.871937    8.352845   13.614526     13.00      69.7230
     198     1 N    7    4.898768    8.336187   15.576942      5.00      14.0067
     199     2 Ga  31    4.729074   10.114567   16.473104     13.00      69.7230
     200     3 O    8    0.020999    4.041139   -0.448462      6.00      15.9994
     201     4 H    1    0.044237    5.828010   -0.381024      1.00       1.0079
     202     5 C    6    1.067083    3.429386   -1.228289      4.00      12.0107
     203     4 H    1    2.070460    3.674093   -0.843222      1.00       1.0079
     204     4 H    1    0.961644    2.334103   -1.252019      1.00       1.0079
     205     4 H    1    0.982880    3.808145   -2.256685      1.00       1.0079
     206     2 Ga  31    3.243808    5.534280    2.857099     13.00      69.7230
     207     3 O    8    0.175839    6.805130   -0.244916      6.00      15.9994
     208     4 H    1    0.032393    7.330412    1.644380      1.00       1.0079
     209     5 C    6    1.539331    7.086668   -0.584936      4.00      12.0107
     210     4 H    1    1.620403    8.174831   -0.736083      1.00       1.0079
     211     4 H    1    2.235799    6.793628    0.222037      1.00       1.0079
     212     4 H    1    1.841825    6.596131   -1.521276      1.00       1.0079




 SCF PARAMETERS         Density guess:                                    ATOMIC
                        --------------------------------------------------------
                        max_scf:                                              80
                        max_scf_history:                                       0
                        max_diis:                                              4
                        --------------------------------------------------------
                        eps_scf:                                        5.00E-06
                        eps_scf_history:                                0.00E+00
                        eps_diis:                                       1.00E-01
                        eps_eigval:                                     1.00E-05
                        --------------------------------------------------------
                        level_shift [a.u.]:                                 0.00
                        --------------------------------------------------------
                        Outer loop SCF in use 
                        No variables optimised in outer loop
                        eps_scf                                         5.00E-06
                        max_scf                                                4
                        No outer loop optimization
                        step_size                                       5.00E-01

 PW_GRID| Information for grid number                                          1
 PW_GRID| Grid distributed over                                    80 processors
 PW_GRID| Real space group dimensions                                    80    1
 PW_GRID| the grid is blocked:                                                NO
 PW_GRID| Cutoff [a.u.]                                                    600.0
 PW_GRID| spherical cutoff:                                                   NO
 PW_GRID|   Bounds   1           -144     143                Points:         288
 PW_GRID|   Bounds   2           -144     143                Points:         288
 PW_GRID|   Bounds   3           -337     337                Points:         675
 PW_GRID| Volume element (a.u.^3)  0.5630E-03     Volume (a.u.^3)     31519.8467
 PW_GRID| Grid span                                                    FULLSPACE
 PW_GRID|   Distribution                         Average         Max         Min
 PW_GRID|   G-Vectors                           699840.0      699840      699840
 PW_GRID|   G-Rays                                2430.0        2430        2430
 PW_GRID|   Real Space Points                   699840.0      777600      583200

 PW_GRID| Information for grid number                                          2
 PW_GRID| Grid distributed over                                    80 processors
 PW_GRID| Real space group dimensions                                    80    1
 PW_GRID| the grid is blocked:                                                NO
 PW_GRID| Cutoff [a.u.]                                                    200.0
 PW_GRID| spherical cutoff:                                                   NO
 PW_GRID|   Bounds   1            -80      79                Points:         160
 PW_GRID|   Bounds   2            -80      79                Points:         160
 PW_GRID|   Bounds   3           -200     199                Points:         400
 PW_GRID| Volume element (a.u.^3)  0.3078E-02     Volume (a.u.^3)     31519.8467
 PW_GRID| Grid span                                                    FULLSPACE
 PW_GRID|   Distribution                         Average         Max         Min
 PW_GRID|   G-Vectors                           128000.0      128160      127840
 PW_GRID|   G-Rays                                 800.0         801         799
 PW_GRID|   Real Space Points                   128000.0      128000      128000

 PW_GRID| Information for grid number                                          3
 PW_GRID| Grid distributed over                                    80 processors
 PW_GRID| Real space group dimensions                                    80    1
 PW_GRID| the grid is blocked:                                                NO
 PW_GRID| Cutoff [a.u.]                                                     66.7
 PW_GRID| spherical cutoff:                                                   NO
 PW_GRID|   Bounds   1            -48      47                Points:          96
 PW_GRID|   Bounds   2            -48      47                Points:          96
 PW_GRID|   Bounds   3           -112     112                Points:         225
 PW_GRID| Volume element (a.u.^3)  0.1520E-01     Volume (a.u.^3)     31519.8467
 PW_GRID| Grid span                                                    FULLSPACE
 PW_GRID|   Distribution                         Average         Max         Min
[...]
 flops    13 x    25 x    50         538119400000     100.0%      0.0%      0.0%
 flops    25 x    13 x    50         538978570000     100.0%      0.0%      0.0%
 flops   991 x    50 x    64         543416832000     100.0%      0.0%      0.0%
 flops   991 x    64 x    50         543416832000     100.0%      0.0%      0.0%
 flops   242 x    64 x   178         693053554688     100.0%      0.0%      0.0%
 flops   242 x    64 x   183         712521351168     100.0%      0.0%      0.0%
 flops    25 x    18 x    13         732217239000     100.0%      0.0%      0.0%
 flops    13 x    18 x    25         732217239000     100.0%      0.0%      0.0%
 flops   973 x    32 x    50         733626432000     100.0%      0.0%      0.0%
 flops   973 x    50 x    32         733626432000     100.0%      0.0%      0.0%
 flops   242 x    64 x   195         759244062720     100.0%      0.0%      0.0%
 flops   955 x    32 x   178         821435197440     100.0%      0.0%      0.0%
 flops   242 x    32 x    32         835915362304     100.0%      0.0%      0.0%
 flops   955 x    32 x   183         844509219840     100.0%      0.0%      0.0%
 flops   991 x    32 x   178         852400293888     100.0%      0.0%      0.0%
 flops   991 x    32 x   183         876344122368     100.0%      0.0%      0.0%
 flops   955 x    32 x   195         899886873600     100.0%      0.0%      0.0%
 flops   991 x    32 x   195         933809310720     100.0%      0.0%      0.0%
 flops     5 x    32 x    25        1029427616000     100.0%      0.0%      0.0%
 flops    25 x    32 x     5        1029427616000     100.0%      0.0%      0.0%
 flops    25 x    25 x    50        1034618750000     100.0%      0.0%      0.0%
 flops   973 x    64 x    50        1067092992000     100.0%      0.0%      0.0%
 flops   973 x    50 x    64        1067092992000     100.0%      0.0%      0.0%
 flops   955 x    64 x   178        1194814832640     100.0%      0.0%      0.0%
 flops   242 x    64 x    32        1215876890624     100.0%      0.0%      0.0%
 flops   242 x    32 x    64        1215876890624     100.0%      0.0%      0.0%
 flops   955 x    64 x   183        1228377047040     100.0%      0.0%      0.0%
 flops   991 x    64 x   178        1239854972928     100.0%      0.0%      0.0%
 flops   991 x    64 x   183        1274682359808     100.0%      0.0%      0.0%
 flops   955 x    64 x   195        1308926361600     100.0%      0.0%      0.0%
 flops   224 x    32 x   178        1323102240768     100.0%      0.0%      0.0%
 flops   991 x    64 x   195        1358268088320     100.0%      0.0%      0.0%
 flops   224 x    32 x   183        1360268034048     100.0%      0.0%      0.0%
 flops    25 x    18 x    25        1392750000000     100.0%      0.0%      0.0%
 flops   224 x    32 x   195        1449465937920     100.0%      0.0%      0.0%
 flops   973 x    32 x   178        1673835491328     100.0%      0.0%      0.0%
 flops   973 x    32 x   183        1720853342208     100.0%      0.0%      0.0%
 flops   242 x    64 x    64        1768548204544     100.0%      0.0%      0.0%
 flops   973 x    32 x   195        1833696184320     100.0%      0.0%      0.0%
 flops    13 x    13 x    32        1913616646656     100.0%      0.0%      0.0%
 flops   224 x    64 x   178        1924512350208     100.0%      0.0%      0.0%
 flops   224 x    64 x   183        1978571685888     100.0%      0.0%      0.0%
 flops   224 x    64 x   195        2108314091520     100.0%      0.0%      0.0%
 flops   224 x    32 x    32        2321219518464     100.0%      0.0%      0.0%
 flops   973 x    64 x   178        2434669805568     100.0%      0.0%      0.0%
 flops   973 x    64 x   183        2503059406848     100.0%      0.0%      0.0%
 flops   955 x    32 x    32        2534592614400     100.0%      0.0%      0.0%
 flops   991 x    32 x    32        2630137466880     100.0%      0.0%      0.0%
 flops   973 x    64 x   195        2667194449920     100.0%      0.0%      0.0%
 flops    13 x    13 x    64        2783442395136     100.0%      0.0%      0.0%
 flops   224 x    32 x    64        3376319299584     100.0%      0.0%      0.0%
 flops   224 x    64 x    32        3376319299584     100.0%      0.0%      0.0%
 flops   955 x    32 x    64        3686680166400     100.0%      0.0%      0.0%
 flops   955 x    64 x    32        3686680166400     100.0%      0.0%      0.0%
 flops    13 x    25 x    32        3788360576000     100.0%      0.0%      0.0%
 flops    25 x    13 x    32        3794409132800     100.0%      0.0%      0.0%
 flops   991 x    32 x    64        3825654497280     100.0%      0.0%      0.0%
 flops   991 x    64 x    32        3825654497280     100.0%      0.0%      0.0%
 flops   224 x    64 x    64        4911009890304     100.0%      0.0%      0.0%
 flops   973 x    32 x    32        5164730081280     100.0%      0.0%      0.0%
 flops   955 x    64 x    64        5362443878400     100.0%      0.0%      0.0%
 flops    13 x    25 x    64        5510342656000     100.0%      0.0%      0.0%
 flops    25 x    13 x    64        5519140556800     100.0%      0.0%      0.0%
 flops   991 x    64 x    64        5564588359680     100.0%      0.0%      0.0%
 flops    25 x    25 x    32        7283716000000     100.0%      0.0%      0.0%
 flops   973 x    64 x    32        7512334663680     100.0%      0.0%      0.0%
 flops   973 x    32 x    64        7512334663680     100.0%      0.0%      0.0%
 flops    25 x    25 x    64       10594496000000     100.0%      0.0%      0.0%
 flops   973 x    64 x    64       10927032238080     100.0%      0.0%      0.0%
 flops    13 x    32 x    13       18201453716992     100.0%      0.0%      0.0%
 flops    25 x    32 x    13       36448147008000     100.0%      0.0%      0.0%
 flops    13 x    32 x    25       36448147008000     100.0%      0.0%      0.0%
 flops    25 x    32 x    25       69328000000000     100.0%      0.0%      0.0%
 flops inhomo. stacks             125618766859264     100.0%      0.0%      0.0%
 flops total                       469.296323E+12     100.0%      0.0%      0.0%
 flops max/rank                      8.148320E+12     100.0%      0.0%      0.0%
 matmuls inhomo. stacks                  12642560     100.0%      0.0%      0.0%
 matmuls total                         9114348526     100.0%      0.0%      0.0%
 number of processed stacks             169517192     100.0%      0.0%      0.0%
 average stack size                                    53.8       0.0       0.0
 marketing flops                   501.001023E+12
 -------------------------------------------------------------------------------
 # multiplications                          45697
 max memory usage/rank               1.531109E+09
 # max total images/rank                        5
 # max 3D layers                                1
 # MPI messages exchanged               416756640
 MPI messages size (bytes):
  total size                        49.837651E+12
  min size                           0.000000E+00
  max size                           1.894792E+06
  average size                     119.584539E+03
 MPI breakdown and total messages size (bytes):
             size <=      128             2385640                        0
       128 < size <=     8192            56698565             464474644480
      8192 < size <=    32768           130689315            2666103587360
     32768 < size <=   131072           178932880           12992907494944
    131072 < size <=  4194304            48050240           33645974758288
   4194304 < size <= 16777216                   0                        0
  16777216 < size                               0                        0
 -------------------------------------------------------------------------------

 *** WARNING in dbcsr/mm/dbcsr_mm.F:268 :: Using a non-square number of ***
 *** MPI ranks might lead to poor performance.                          ***
 *** Used ranks: 80                                                     ***
 *** Suggested: 81 169                                                  ***

 -------------------------------------------------------------------------------
 
 MEMORY| Estimated peak process memory [MiB]                                1483

 -------------------------------------------------------------------------------
 ----                             MULTIGRID INFO                            ----
 -------------------------------------------------------------------------------
 count for grid        1:        1209426          cutoff [a.u.]          600.00
 count for grid        2:        8529274          cutoff [a.u.]          200.00
 count for grid        3:        7702709          cutoff [a.u.]           66.67
 count for grid        4:       11319985          cutoff [a.u.]           22.22
 count for grid        5:       10267803          cutoff [a.u.]            7.41
 total gridlevel count  :       39029197

 -------------------------------------------------------------------------------
 -                                                                             -
 -                         MESSAGE PASSING PERFORMANCE                         -
 -                                                                             -
 -------------------------------------------------------------------------------

 ROUTINE             CALLS      AVE VOLUME [Bytes]
 MP_Group             4253
 MP_Bcast            60370                   7664.
 MP_Allreduce       398931                    252.
 MP_Sync              2269
 MP_Alltoall        248010                5420550.
 MP_SendRecv         21804                   5936.
 MP_ISendRecv      1148976                 133520.
 MP_Wait          10125833
 MP_comm_split        2264
 MP_ISend         11692680                 113178.
 MP_IRecv         11696112                 113078.
 MP_Recv              1292                 162816.
 MP_Memory         5098894
 -------------------------------------------------------------------------------


 -------------------------------------------------------------------------------
 -                                                                             -
 -                           R E F E R E N C E S                               -
 -                                                                             -
 -------------------------------------------------------------------------------
 
 CP2K version 7.0 (Development Version), the CP2K developers group (2018).
 CP2K is freely available from https://www.cp2k.org/ .

 Schuett, Ole; Messmer, Peter; Hutter, Juerg; VandeVondele, Joost. 
 Electronic Structure Calculations on Graphics Processing Units, John Wiley & Sons, Ltd, 173-190 (2016). 
 GPU-Accelerated Sparse Matrix-Matrix Multiplication for Linear Scaling Density Functional Theory.
 http://dx.doi.org/10.1002/9781118670712.ch8


 Borstnik, U; VandeVondele, J; Weber, V; Hutter, J. 
 PARALLEL COMPUTING, 40 (5-6), 47-58 (2014). 
 Sparse matrix multiplication: The distributed block-compressed sparse
 row library.
 http://dx.doi.org/10.1016/j.parco.2014.03.012


 Hutter, J; Iannuzzi, M; Schiffmann, F; VandeVondele, J. 
 WILEY INTERDISCIPLINARY REVIEWS-COMPUTATIONAL MOLECULAR SCIENCE, 4 (1), 15-25 (2014). 
 CP2K: atomistic simulations of condensed matter systems.
 http://dx.doi.org/10.1002/wcms.1159


 Grimme, S; Ehrlich, S; Goerigk, L. 
 JOURNAL OF COMPUTATIONAL CHEMISTRY, 32, 1456 (2011). 
 Effect of the damping function in dispersion corrected density functional theory.
 http://dx.doi.org/10.1002/jcc.21759


 Grimme, S; Antony, J; Ehrlich, S; Krieg, H. 
 JOURNAL OF CHEMICAL PHYSICS, 132 (15), 154104 (2010). 
 A consistent and accurate ab initio parametrization of density
 functional dispersion correction (DFT-D) for the 94 elements H-Pu.
 http://dx.doi.org/10.1063/1.3382344


 VandeVondele, J; Hutter, J. 
 JOURNAL OF CHEMICAL PHYSICS, 127 (11), 114105 (2007). 
 Gaussian basis sets for accurate calculations on molecular systems in
 gas and condensed phases.
 http://dx.doi.org/10.1063/1.2770708


 Krack, M. 
 THEORETICAL CHEMISTRY ACCOUNTS, 114 (1-3), 145-152 (2005). 
 Pseudopotentials for H to Kr optimized for gradient-corrected
 exchange-correlation functionals.
 http://dx.doi.org/10.1007/s00214-005-0655-y


 VandeVondele, J; Krack, M; Mohamed, F; Parrinello, M; Chassaing, T;
 Hutter, J. COMPUTER PHYSICS COMMUNICATIONS, 167 (2), 103-128 (2005). 
 QUICKSTEP: Fast and accurate density functional calculations using a
 mixed Gaussian and plane waves approach.
 http://dx.doi.org/10.1016/j.cpc.2004.12.014


 Frigo, M; Johnson, SG. 
 PROCEEDINGS OF THE IEEE, 93 (2), 216-231 (2005). 
 The design and implementation of FFTW3.
 http://dx.doi.org/10.1109/JPROC.2004.840301


 Kolafa, J. 
 JOURNAL OF COMPUTATIONAL CHEMISTRY, 25 (3), 335-342 (2004). 
 Time-reversible always stable predictor-corrector method for molecular dynamics of polarizable molecules.
 http://dx.doi.org/10.1002/jcc.10385


 VandeVondele, J; Hutter, J. 
 JOURNAL OF CHEMICAL PHYSICS, 118 (10), 4365-4369 (2003). 
 An efficient orbital transformation method for electronic structure
 calculations.
 http://dx.doi.org/10.1063/1.1543154


 Hartwigsen, C; Goedecker, S; Hutter, J. 
 PHYSICAL REVIEW B, 58 (7), 3641-3662 (1998). 
 Relativistic separable dual-space Gaussian pseudopotentials from H to Rn.
 http://dx.doi.org/10.1103/PhysRevB.58.3641


 Lippert, G; Hutter, J; Parrinello, M. 
 MOLECULAR PHYSICS, 92 (3), 477-487 (1997). 
 A hybrid Gaussian and plane wave density functional scheme.
 http://dx.doi.org/10.1080/002689797170220


 Perdew, JP; Burke, K; Ernzerhof, M. 
 PHYSICAL REVIEW LETTERS, 77 (18), 3865-3868 (1996). 
 Generalized gradient approximation made simple.
 http://dx.doi.org/10.1103/PhysRevLett.77.3865


 Goedecker, S; Teter, M; Hutter, J. 
 PHYSICAL REVIEW B, 54 (3), 1703-1710 (1996). 
 Separable dual-space Gaussian pseudopotentials.
 http://dx.doi.org/10.1103/PhysRevB.54.1703


 -------------------------------------------------------------------------------
 -                                                                             -
 -                                T I M I N G                                  -
 -                                                                             -
 -------------------------------------------------------------------------------
 SUBROUTINE                       CALLS  ASD         SELF TIME        TOTAL TIME
                                MAXIMUM       AVERAGE  MAXIMUM  AVERAGE  MAXIMUM
 CP2K                                 1  1.0     0.33     0.35 25710.24 25710.28
 cp_geo_opt                           1  2.0     0.13     0.14 25708.85 25708.86
 geoopt_bfgs                          1  3.0     0.61     0.73 25708.72 25708.73
 cp_eval_at                          70  4.0     0.06     0.11 25059.17 25059.23
 qs_forces                           69  5.0     0.10     0.15 24826.95 24826.96
 qs_energies                         70  6.0     0.49     0.88 23659.46 23659.59
 scf_env_do_scf                      70  7.0     0.19     0.41 22751.05 22751.09
 scf_env_do_scf_inner_loop         1500  8.0     0.22     0.32 21173.87 21173.94
 rebuild_ks_matrix                 1569  9.9     0.01     0.02  9696.20  9698.35
 qs_ks_build_kohn_sham_matrix      1569 10.9     0.98     1.77  9696.19  9698.34
 qs_ks_update_qs_env               1573  9.0     0.02     0.03  8459.31  8461.05
 qs_rho_update_rho                 1570  9.0     0.15     0.28  8128.74  8133.69
 calculate_rho_elec                3140 10.0  4069.03  4136.46  8128.59  8133.43
 sum_up_and_integrate               854 11.8    12.97    14.51  5213.00  5214.66
 integrate_v_rspace                1708 12.8  2873.97  2967.35  5200.00  5203.02
 pw_transfer                      49257 13.4     5.34     6.16  4983.27  5005.13
 fft_wrap_pw1pw2                  46119 14.4     0.54     0.62  4958.51  4979.83
 fft_wrap_pw1pw2_600              26727 15.7   296.56   337.87  4605.98  4623.10
 fft3d_ps                         46119 16.4  1377.98  1522.20  4264.56  4305.12
 rs_pw_transfer                   24589 13.0     0.35     0.42  3903.43  3958.69
 density_rs2pw                     3140 11.0     0.25     0.32  3636.32  3718.03
 qs_vxc_create                     1569 11.9     0.05     0.07  3504.58  3505.37
 dbcsr_multiply_generic           45697 13.8     3.01     3.88  3079.56  3084.90
 qs_scf_new_mos                    1500  9.0     0.02     0.05  2826.86  2829.49
 qs_scf_loop_do_ot                 1500 10.0     0.19     0.40  2826.84  2829.46
 mp_waitall_1                   9241873 16.7  2721.76  2827.20  2721.76  2827.20
 mp_bcast_b                       27837 15.6  2774.07  2812.41  2774.07  2812.41
 external_control                  1568  8.8    35.07  2803.30  2806.90  2809.52
 mp_alltoall_z22v                 46119 18.4  2498.63  2779.40  2498.63  2779.40
 ot_scf_mini                       1500 11.0     0.27     0.48  2602.74  2604.74
 xc_vxc_pw_create                   854 12.8   179.30   202.68  2579.69  2580.12
 multiply_cannon                  45697 14.8    14.50    15.45  2382.17  2431.66
 xc_rho_set_and_dset_create        1569 13.9    27.71    29.85  1908.94  1940.65
 mp_waitany                      883960 14.9  1724.63  1854.81  1724.63  1854.81
 potential_pw2rs                   1708 13.8     1.46     1.64  1840.81  1844.11
 x_to_yz                          20101 18.0   218.67   252.47  1637.25  1738.61
 rs_pw_transfer_RS2PW_600          3280 13.0   652.20   716.31  1659.44  1715.78
 init_scf_loop                       73  8.0     0.04     0.10  1574.75  1574.92
 multiply_cannon_metrocomm3      913940 15.8     2.44     2.59  1402.00  1572.80
 yz_to_x                          16322 16.9   134.33   140.68  1212.20  1350.05
 ot_mini                           1500 12.0     0.04     0.08  1324.11  1325.79
 qs_ks_update_qs_env_forces          69  6.0     0.00     0.00  1252.71  1252.90
 rs_pw_transfer_PW2RS_600          1917 15.3   429.23   465.15  1079.91  1108.32
 xc_exc_calc                        715 13.0     3.48     3.93   924.84   925.25
 prepare_preconditioner              73  9.0     0.00     0.00   861.73   862.00
 qs_ot_get_derivative              1570 13.0     0.02     0.05   842.02   843.62
 cp_fm_syevd                       2264 14.1     0.02     0.03   780.80   831.46
 make_preconditioner                146 10.0     0.01     0.04   796.45   796.56
 multiply_cannon_metrocomm1      913940 15.8     2.78     2.98   568.19   745.53
 make_full_all                      146 11.0     0.06     0.18   733.66   733.94
 mp_alltoall_d11v                 49249 15.4   622.86   699.43   622.86   699.43
 rs_distribute_matrix              4986 12.0     6.14    12.48   585.18   659.27
 cp_fm_redistribute_end            2264 15.1   229.53   609.92   233.16   612.53
 cp_fm_syevd_base                  2264 14.8   376.87   584.48   376.87   584.48
 qs_ot_get_p                       3146 11.9     0.05     0.10   571.54   577.86
 init_scf_run                        70  7.0     0.00     0.01   566.01   566.02
 scf_env_initial_rho_setup           70  8.0     0.00     0.00   566.01   566.01
 wfi_extrapolate                     70  9.0     0.04     0.10   558.49   558.51
 -------------------------------------------------------------------------------

 The number of warnings for this run is : 1
 
 -------------------------------------------------------------------------------
  **** **** ******  **  PROGRAM ENDED AT                 2019-07-10 14:53:45.308
 ***** ** ***  *** **   PROGRAM RAN ON            blg9216.int.ets1.calculquebec.
 **    ****   ******    PROGRAM RAN BY                                       rzk
 ***** **    ** ** **   PROGRAM PROCESS ID                                  9529
  **** **  *******  **  PROGRAM STOPPED IN /lustre04/scratch/rzk/rzk/GaN-carbene
                                           /443-adatoms-both-2x2/09-BondBreaking
                                           -CH/02-0401-CH-to-NTop-PES
