 DBCSR| Multiplication driver                                               BLAS
 DBCSR| Multrec recursion limit                                              512
 DBCSR| Multiplication stack size                                           1000
 DBCSR| Maximum elements for images                                    UNLIMITED
 DBCSR| Multiplicative factor virtual images                                   1
 DBCSR| Multiplication size stacks                                             3
 DBCSR| Number of 3D layers                                               SINGLE
 DBCSR| Use MPI memory allocation                                              T
 DBCSR| Use RMA algorithm                                                      F
 DBCSR| Use Communication thread                                               T
 DBCSR| Communication thread load                                             87


  **** **** ******  **  PROGRAM STARTED AT               2019-07-08 21:40:21.111
 ***** ** ***  *** **   PROGRAM STARTED ON        blg9216.int.ets1.calculquebec.
 **    ****   ******    PROGRAM STARTED BY                                   rzk
 ***** **    ** ** **   PROGRAM PROCESS ID                                265718
  **** **  *******  **  PROGRAM STARTED IN /lustre04/scratch/rzk/rzk/GaN-carbene
                                           /443-adatoms-both-2x2/09-BondBreaking
                                           -CH/02-0401-CH-to-NTop-PES

 CP2K| version string:                    CP2K version 7.0 (Development Version)
 CP2K| source code revision number:                                    svn:18619
 CP2K| cp2kflags: libint fftw3 libxc parallel mpi3 scalapack mkl                
 CP2K| is freely available from                            https://www.cp2k.org/
 CP2K| Program compiled at                          Sun Apr  7 00:48:11 EDT 2019
 CP2K| Program compiled on                      beluga2.int.ets1.calculquebec.ca
 CP2K| Program compiled for                    Beluga-Linux-x86-64-intel-openmpi
 CP2K| Data directory path    /home/rzk/projects/def-rzk/group/cp2k/cp2k-mcgill/
 CP2K| Input file name                                            TEST-1.restart
 
 GLOBAL| Force Environment number                                              1
 GLOBAL| Basis set file name                                        BASIS_MOLOPT
 GLOBAL| Potential file name                                      GTH_POTENTIALS
 GLOBAL| MM Potential file name                                     MM_POTENTIAL
 GLOBAL| Coordinate file name                                      __STD_INPUT__
 GLOBAL| Method name                                                        CP2K
 GLOBAL| Project name                                                       TEST
 GLOBAL| Preferred FFT library                                             FFTW3
 GLOBAL| Preferred diagonalization lib.                                       SL
 GLOBAL| Run type                                                        GEO_OPT
 GLOBAL| All-to-all communication in single precision                          F
 GLOBAL| FFTs using library dependent lengths                                  F
 GLOBAL| Global print level                                               MEDIUM
 GLOBAL| MPI I/O enabled                                                       T
 GLOBAL| Total number of message passing processes                            80
 GLOBAL| Number of threads for this process                                    1
 GLOBAL| This output is from process                                           0
 GLOBAL| CPU model name :  Intel(R) Xeon(R) Gold 6148 CPU @ 2.40GHz

 MEMORY| system memory details [Kb]
 MEMORY|                        rank 0           min           max       average
 MEMORY| MemTotal            196614300     196614300     196614300     196614300
 MEMORY| MemFree             182738456     181767808     182741060     182301192
 MEMORY| Buffers                     0             0             0             0
 MEMORY| Cached                1427624       1405616       1429444       1417265
 MEMORY| Slab                   936168        936136       1064684       1000436
 MEMORY| SReclaimable           107304        103872        107336        105598
 MEMORY| MemLikelyFree       184273384     183277296     184275676     183824056


 *** Fundamental physical constants (SI units) ***

 *** Literature: B. J. Mohr and B. N. Taylor,
 ***             CODATA recommended values of the fundamental physical
 ***             constants: 2006, Web Version 5.1
 ***             http://physics.nist.gov/constants

 Speed of light in vacuum [m/s]                             2.99792458000000E+08
 Magnetic constant or permeability of vacuum [N/A**2]       1.25663706143592E-06
 Electric constant or permittivity of vacuum [F/m]          8.85418781762039E-12
 Planck constant (h) [J*s]                                  6.62606896000000E-34
 Planck constant (h-bar) [J*s]                              1.05457162825177E-34
 Elementary charge [C]                                      1.60217648700000E-19
 Electron mass [kg]                                         9.10938215000000E-31
 Electron g factor [ ]                                     -2.00231930436220E+00
 Proton mass [kg]                                           1.67262163700000E-27
 Fine-structure constant                                    7.29735253760000E-03
 Rydberg constant [1/m]                                     1.09737315685270E+07
 Avogadro constant [1/mol]                                  6.02214179000000E+23
 Boltzmann constant [J/K]                                   1.38065040000000E-23
 Atomic mass unit [kg]                                      1.66053878200000E-27
 Bohr radius [m]                                            5.29177208590000E-11

 *** Conversion factors ***

 [u] -> [a.u.]                                              1.82288848426455E+03
 [Angstrom] -> [Bohr] = [a.u.]                              1.88972613288564E+00
 [a.u.] = [Bohr] -> [Angstrom]                              5.29177208590000E-01
 [a.u.] -> [s]                                              2.41888432650478E-17
 [a.u.] -> [fs]                                             2.41888432650478E-02
 [a.u.] -> [J]                                              4.35974393937059E-18
 [a.u.] -> [N]                                              8.23872205491840E-08
 [a.u.] -> [K]                                              3.15774647902944E+05
 [a.u.] -> [kJ/mol]                                         2.62549961709828E+03
 [a.u.] -> [kcal/mol]                                       6.27509468713739E+02
 [a.u.] -> [Pa]                                             2.94210107994716E+13
 [a.u.] -> [bar]                                            2.94210107994716E+08
 [a.u.] -> [atm]                                            2.90362800883016E+08
 [a.u.] -> [eV]                                             2.72113838565563E+01
 [a.u.] -> [Hz]                                             6.57968392072181E+15
 [a.u.] -> [1/cm] (wave numbers)                            2.19474631370540E+05
 [a.u./Bohr**2] -> [1/cm]                                   5.14048714338585E+03
 
          ----------------------------------------------------------------------
 COLVARS| COLVAR INPUT INDEX:        1
 COLVARS| BOND          >>> ATOMS:                                   127     211
          ----------------------------------------------------------------------

 CELL_TOP| Volume [angstrom^3]:                                         4586.323
 CELL_TOP| Vector a [angstrom    12.864     0.000     0.000    |a| =      12.864
 CELL_TOP| Vector b [angstrom    -6.432    11.141     0.000    |b| =      12.864
 CELL_TOP| Vector c [angstrom     0.000     0.000    32.000    |c| =      32.000
 CELL_TOP| Angle (b,c), alpha [degree]:                                   90.000
 CELL_TOP| Angle (a,c), beta  [degree]:                                   90.000
 CELL_TOP| Angle (a,b), gamma [degree]:                                  120.000
 CELL_TOP| Numerically orthorhombic:                                          NO
 RESTRAINT| Active restraint on COLLECTIVE section Nr.     1. K [a.u.]= 2.000000
 
 GENERATE|  Preliminary Number of Bonds generated:                             0
 GENERATE|  Achieved consistency in connectivity generation.

 CELL| Volume [angstrom^3]:                                             4586.323
 CELL| Vector a [angstrom]:      12.864     0.000     0.000    |a| =      12.864
 CELL| Vector b [angstrom]:      -6.432    11.141     0.000    |b| =      12.864
 CELL| Vector c [angstrom]:       0.000     0.000    32.000    |c| =      32.000
 CELL| Angle (b,c), alpha [degree]:                                       90.000
 CELL| Angle (a,c), beta  [degree]:                                       90.000
 CELL| Angle (a,b), gamma [degree]:                                      120.000
 CELL| Numerically orthorhombic:                                              NO

 CELL_REF| Volume [angstrom^3]:                                         4670.759
 CELL_REF| Vector a [angstrom    12.982     0.000     0.000    |a| =      12.982
 CELL_REF| Vector b [angstrom    -6.491    11.243     0.000    |b| =      12.982
 CELL_REF| Vector c [angstrom     0.000     0.000    32.000    |c| =      32.000
 CELL_REF| Angle (b,c), alpha [degree]:                                   90.000
 CELL_REF| Angle (a,c), beta  [degree]:                                   90.000
 CELL_REF| Angle (a,b), gamma [degree]:                                  120.000
 CELL_REF| Numerically orthorhombic:                                          NO

 *******************************************************************************
 *******************************************************************************
 **                                                                           **
 **     #####                         ##              ##                      **
 **    ##   ##            ##          ##              ##                      **
 **   ##     ##                       ##            ######                    **
 **   ##     ##  ##   ##  ##   #####  ##  ##   ####   ##    #####    #####    **
 **   ##     ##  ##   ##  ##  ##      ## ##   ##      ##   ##   ##  ##   ##   **
 **   ##  ## ##  ##   ##  ##  ##      ####     ###    ##   ######   ######    **
 **    ##  ###   ##   ##  ##  ##      ## ##      ##   ##   ##       ##        **
 **     #######   #####   ##   #####  ##  ##  ####    ##    #####   ##        **
 **           ##                                                    ##        **
 **                                                                           **
 **                                                ... make the atoms dance   **
 **                                                                           **
 **            Copyright (C) by CP2K developers group (2000 - 2018)           **
 **                                                                           **
 *******************************************************************************

 DFT| Spin unrestricted (spin-polarized) Kohn-Sham calculation               UKS
 DFT| Multiplicity                                                             1
 DFT| Number of spin states                                                    2
 DFT| Charge                                                                   0
 DFT| Self-interaction correction (SIC)                                       NO
 DFT| Cutoffs: density                                              1.000000E-10
 DFT|          gradient                                             1.000000E-10
 DFT|          tau                                                  1.000000E-10
 DFT|          cutoff_smoothing_range                               0.000000E+00
 DFT| XC density smoothing                                                  NONE
 DFT| XC derivatives                                                          PW
 FUNCTIONAL| ROUTINE=NEW
 FUNCTIONAL| PBE:
 FUNCTIONAL| J.P.Perdew, K.Burke, M.Ernzerhof, Phys. Rev. Letter, vol. 77, n 18,
 FUNCTIONAL|  pp. 3865-3868, (1996){spin polarized}                             
 vdW POTENTIAL|                                                   Pair Potential
 vdW POTENTIAL|          DFT-D3 (Version 3.1)
 vdW POTENTIAL|          Potential Form: S. Grimme et al, JCP 132: 154104 (2010)
 vdW POTENTIAL|          Zero Damping
 vdW POTENTIAL|          Cutoff Radius [Bohr]:                             18.90
 vdW POTENTIAL|          s6 Scaling Factor:                               1.0000
 vdW POTENTIAL|          sr6 Scaling Factor:                              1.2170
 vdW POTENTIAL|          s8 Scaling Factor:                               0.7220
 vdW POTENTIAL|          Cutoff for CN calculation:                   0.1000E-05

 QS| Method:                                                                 GPW
 QS| Density plane wave grid type                        NON-SPHERICAL FULLSPACE
 QS| Number of grid levels:                                                    5
 QS| Density cutoff [a.u.]:                                                600.0
 QS| Multi grid cutoff [a.u.]: 1) grid level                               600.0
 QS|                           2) grid level                               200.0
 QS|                           3) grid level                                66.7
 QS|                           4) grid level                                22.2
 QS|                           5) grid level                                 7.4
 QS| Grid level progression factor:                                          3.0
 QS| Relative density cutoff [a.u.]:                                        20.0
 QS| Consistent realspace mapping and integration 
 QS| Interaction thresholds: eps_pgf_orb:                                1.0E-07
 QS|                         eps_filter_matrix:                          0.0E+00
 QS|                         eps_core_charge:                            1.0E-16
 QS|                         eps_rho_gspace:                             1.0E-14
 QS|                         eps_rho_rspace:                             1.0E-14
 QS|                         eps_gvg_rspace:                             1.0E-07
 QS|                         eps_ppl:                                    1.0E-02
 QS|                         eps_ppnl:                                   1.0E-09


 ATOMIC KIND INFORMATION

  1. Atomic kind: N                                     Number of atoms:     100

     Orbital Basis Set                                        DZVP-MOLOPT-SR-GTH

       Number of orbital shell sets:                                           1
       Number of orbital shells:                                               5
       Number of primitive Cartesian functions:                                5
       Number of Cartesian basis functions:                                   14
       Number of spherical basis functions:                                   13
       Norm type:                                                              2

       Normalised Cartesian orbitals:

                        Set   Shell   Orbital            Exponent    Coefficient

                          1       1    2s                7.341988       0.360561
                                                         2.542637       0.139177
                                                         0.888575      -0.289383
                                                         0.333802      -0.182244
                                                         0.112012      -0.019197

                          1       2    3s                7.341988       0.282000
                                                         2.542637       0.177875
                                                         0.888575      -0.278381
                                                         0.333802       0.008577
                                                         0.112012       0.154176

                          1       3    3px               7.341988      -1.188719
                                                         2.542637      -0.973969
                                                         0.888575      -0.501079
                                                         0.333802      -0.144894
                                                         0.112012      -0.013986
                          1       3    3py               7.341988      -1.188719
                                                         2.542637      -0.973969
                                                         0.888575      -0.501079
                                                         0.333802      -0.144894
                                                         0.112012      -0.013986
                          1       3    3pz               7.341988      -1.188719
                                                         2.542637      -0.973969
                                                         0.888575      -0.501079
                                                         0.333802      -0.144894
                                                         0.112012      -0.013986

                          1       4    4px               7.341988      -0.094798
                                                         2.542637       0.050069
                                                         0.888575      -0.114797
                                                         0.333802       0.144793
                                                         0.112012       0.066710
                          1       4    4py               7.341988      -0.094798
                                                         2.542637       0.050069
                                                         0.888575      -0.114797
                                                         0.333802       0.144793
                                                         0.112012       0.066710
                          1       4    4pz               7.341988      -0.094798
                                                         2.542637       0.050069
                                                         0.888575      -0.114797
                                                         0.333802       0.144793
                                                         0.112012       0.066710

                          1       5    4dx2              7.341988       1.354688
                                                         2.542637       0.690378
                                                         0.888575       0.855359
                                                         0.333802       0.091746
                                                         0.112012       0.001253
                          1       5    4dxy              7.341988       2.346389
                                                         2.542637       1.195770
                                                         0.888575       1.481524
                                                         0.333802       0.158910
                                                         0.112012       0.002169
                          1       5    4dxz              7.341988       2.346389
                                                         2.542637       1.195770
                                                         0.888575       1.481524
                                                         0.333802       0.158910
                                                         0.112012       0.002169
                          1       5    4dy2              7.341988       1.354688
                                                         2.542637       0.690378
                                                         0.888575       0.855359
                                                         0.333802       0.091746
                                                         0.112012       0.001253
                          1       5    4dyz              7.341988       2.346389
                                                         2.542637       1.195770
                                                         0.888575       1.481524
                                                         0.333802       0.158910
                                                         0.112012       0.002169
                          1       5    4dz2              7.341988       1.354688
                                                         2.542637       0.690378
                                                         0.888575       0.855359
                                                         0.333802       0.091746
                                                         0.112012       0.001253

     GTH Potential information for                                    GTH-PBE-q5

       Description:                       Goedecker-Teter-Hutter pseudopotential
                                           Goedecker et al., PRB 54, 1703 (1996)
                                          Hartwigsen et al., PRB 58, 3641 (1998)
                                                      Krack, TCA 114, 145 (2005)

       Gaussian exponent of the core charge distribution:               6.208322
       Electronic configuration (s p d ...):                               2   3

       Parameters of the local part of the GTH pseudopotential:

                          rloc        C1          C2          C3          C4
                        0.283791  -12.415226    1.868096

       Parameters of the non-local part of the GTH pseudopotential:

                   l      r(l)      h(i,j,l)

                   0    0.255405   13.630263
                   1    0.245495

  2. Atomic kind: Ga                                    Number of atoms:     100

     Orbital Basis Set                                        DZVP-MOLOPT-SR-GTH

       Number of orbital shell sets:                                           1
       Number of orbital shells:                                               7
       Number of primitive Cartesian functions:                                6
       Number of Cartesian basis functions:                                   30
       Number of spherical basis functions:                                   25
       Norm type:                                                              2

       Normalised Cartesian orbitals:

                        Set   Shell   Orbital            Exponent    Coefficient

                          1       1    2s                7.066654       0.013136
                                                         3.428369      -0.094392
                                                         1.430064       0.265435
                                                         0.571611       0.056465
                                                         0.232197      -0.192187
                                                         0.076562      -0.044987

                          1       2    3s                7.066654      -0.098564
                                                         3.428369       0.010390
                                                         1.430064       0.351249
                                                         0.571611       0.182615
                                                         0.232197      -0.425358
                                                         0.076562       0.190349

                          1       3    3px               7.066654       0.002364
                                                         3.428369       0.019222
                                                         1.430064       0.250132
                                                         0.571611      -0.058486
                                                         0.232197      -0.159451
                                                         0.076562      -0.020696
                          1       3    3py               7.066654       0.002364
                                                         3.428369       0.019222
                                                         1.430064       0.250132
                                                         0.571611      -0.058486
                                                         0.232197      -0.159451
                                                         0.076562      -0.020696
                          1       3    3pz               7.066654       0.002364
                                                         3.428369       0.019222
                                                         1.430064       0.250132
                                                         0.571611      -0.058486
                                                         0.232197      -0.159451
                                                         0.076562      -0.020696

                          1       4    4px               7.066654       0.492448
                                                         3.428369      -0.614736
                                                         1.430064      -0.191654
                                                         0.571611       0.037801
                                                         0.232197       0.302315
                                                         0.076562      -0.071336
                          1       4    4py               7.066654       0.492448
                                                         3.428369      -0.614736
                                                         1.430064      -0.191654
                                                         0.571611       0.037801
                                                         0.232197       0.302315
                                                         0.076562      -0.071336
                          1       4    4pz               7.066654       0.492448
                                                         3.428369      -0.614736
                                                         1.430064      -0.191654
                                                         0.571611       0.037801
                                                         0.232197       0.302315
                                                         0.076562      -0.071336

                          1       5    4dx2              7.066654     -15.264855
                                                         3.428369      -5.345726
                                                         1.430064      -1.022732
                                                         0.571611      -0.123148
                                                         0.232197      -0.006983
                                                         0.076562      -0.000022
                          1       5    4dxy              7.066654     -26.439504
                                                         3.428369      -9.259069
                                                         1.430064      -1.771423
                                                         0.571611      -0.213299
                                                         0.232197      -0.012094
                                                         0.076562      -0.000037
                          1       5    4dxz              7.066654     -26.439504
                                                         3.428369      -9.259069
                                                         1.430064      -1.771423
                                                         0.571611      -0.213299
                                                         0.232197      -0.012094
                                                         0.076562      -0.000037
                          1       5    4dy2              7.066654     -15.264855
                                                         3.428369      -5.345726
                                                         1.430064      -1.022732
                                                         0.571611      -0.123148
                                                         0.232197      -0.006983
                                                         0.076562      -0.000022
                          1       5    4dyz              7.066654     -26.439504
                                                         3.428369      -9.259069
                                                         1.430064      -1.771423
                                                         0.571611      -0.213299
                                                         0.232197      -0.012094
                                                         0.076562      -0.000037
                          1       5    4dz2              7.066654     -15.264855
                                                         3.428369      -5.345726
                                                         1.430064      -1.022732
                                                         0.571611      -0.123148
                                                         0.232197      -0.006983
                                                         0.076562      -0.000022

                          1       6    5dx2              7.066654      -5.739265
                                                         3.428369      -2.129289
                                                         1.430064      -0.700423
                                                         0.571611       0.161606
                                                         0.232197       0.043513
                                                         0.076562       0.011205
                          1       6    5dxy              7.066654      -9.940698
                                                         3.428369      -3.688037
                                                         1.430064      -1.213168
                                                         0.571611       0.279909
                                                         0.232197       0.075368
                                                         0.076562       0.019407
                          1       6    5dxz              7.066654      -9.940698
                                                         3.428369      -3.688037
                                                         1.430064      -1.213168
                                                         0.571611       0.279909
                                                         0.232197       0.075368
                                                         0.076562       0.019407
                          1       6    5dy2              7.066654      -5.739265
                                                         3.428369      -2.129289
                                                         1.430064      -0.700423
                                                         0.571611       0.161606
                                                         0.232197       0.043513
                                                         0.076562       0.011205
                          1       6    5dyz              7.066654      -9.940698
                                                         3.428369      -3.688037
                                                         1.430064      -1.213168
                                                         0.571611       0.279909
                                                         0.232197       0.075368
                                                         0.076562       0.019407
                          1       6    5dz2              7.066654      -5.739265
                                                         3.428369      -2.129289
                                                         1.430064      -0.700423
                                                         0.571611       0.161606
                                                         0.232197       0.043513
                                                         0.076562       0.011205

                          1       7    5fx3              7.066654       0.705879
                                                         3.428369      -0.273976
                                                         1.430064       0.113667
                                                         0.571611       0.132480
                                                         0.232197       0.012437
                                                         0.076562       0.003241
                          1       7    5fx2y             7.066654       1.578393
                                                         3.428369      -0.612629
                                                         1.430064       0.254167
                                                         0.571611       0.296234
                                                         0.232197       0.027811
                                                         0.076562       0.007246
                          1       7    5fx2z             7.066654       1.578393
                                                         3.428369      -0.612629
                                                         1.430064       0.254167
                                                         0.571611       0.296234
                                                         0.232197       0.027811
                                                         0.076562       0.007246
                          1       7    5fxy2             7.066654       1.578393
                                                         3.428369      -0.612629
                                                         1.430064       0.254167
                                                         0.571611       0.296234
                                                         0.232197       0.027811
                                                         0.076562       0.007246
                          1       7    5fxyz             7.066654       2.733856
                                                         3.428369      -1.061105
                                                         1.430064       0.440230
                                                         0.571611       0.513092
                                                         0.232197       0.048170
                                                         0.076562       0.012551
                          1       7    5fxz2             7.066654       1.578393
                                                         3.428369      -0.612629
                                                         1.430064       0.254167
                                                         0.571611       0.296234
                                                         0.232197       0.027811
                                                         0.076562       0.007246
                          1       7    5fy3              7.066654       0.705879
                                                         3.428369      -0.273976
                                                         1.430064       0.113667
                                                         0.571611       0.132480
                                                         0.232197       0.012437
                                                         0.076562       0.003241
                          1       7    5fy2z             7.066654       1.578393
                                                         3.428369      -0.612629
                                                         1.430064       0.254167
                                                         0.571611       0.296234
                                                         0.232197       0.027811
                                                         0.076562       0.007246
                          1       7    5fyz2             7.066654       1.578393
                                                         3.428369      -0.612629
                                                         1.430064       0.254167
                                                         0.571611       0.296234
                                                         0.232197       0.027811
                                                         0.076562       0.007246
                          1       7    5fz3              7.066654       0.705879
                                                         3.428369      -0.273976
                                                         1.430064       0.113667
                                                         0.571611       0.132480
                                                         0.232197       0.012437
                                                         0.076562       0.003241

     GTH Potential information for                                   GTH-PBE-q13

       Description:                       Goedecker-Teter-Hutter pseudopotential
                                           Goedecker et al., PRB 54, 1703 (1996)
                                          Hartwigsen et al., PRB 58, 3641 (1998)
                                                      Krack, TCA 114, 145 (2005)

       Gaussian exponent of the core charge distribution:               2.082466
       Electronic configuration (s p d ...):                           2   1  10

       Parameters of the local part of the GTH pseudopotential:

                          rloc        C1          C2          C3          C4
                        0.490000

       Parameters of the non-local part of the GTH pseudopotential:

                   l      r(l)      h(i,j,l)

                   0    0.416777   10.475690   -4.921768    0.870706
                                   -4.921768    7.770178   -2.248152
                                    0.870706   -2.248152    1.784415
                   1    0.569627    1.777985    0.195860
                                    0.195860   -0.231744
                   2    0.238126  -16.248680

  3. Atomic kind: O                                     Number of atoms:       2

     Orbital Basis Set                                     DZVP-MOLOPT-SR-GTH-q6

       Number of orbital shell sets:                                           1
       Number of orbital shells:                                               5
       Number of primitive Cartesian functions:                                5
       Number of Cartesian basis functions:                                   14
       Number of spherical basis functions:                                   13
       Norm type:                                                              2

       Normalised Cartesian orbitals:

                        Set   Shell   Orbital            Exponent    Coefficient

                          1       1    2s               10.389228       0.396646
                                                         3.849621       0.208811
                                                         1.388401      -0.301641
                                                         0.496955      -0.274061
                                                         0.162492      -0.033677

                          1       2    3s               10.389228       0.303673
                                                         3.849621       0.240943
                                                         1.388401      -0.313066
                                                         0.496955      -0.043055
                                                         0.162492       0.213991

                          1       3    3px              10.389228      -1.530415
                                                         3.849621      -1.371928
                                                         1.388401      -0.761951
                                                         0.496955      -0.253695
                                                         0.162492      -0.035541
                          1       3    3py              10.389228      -1.530415
                                                         3.849621      -1.371928
                                                         1.388401      -0.761951
                                                         0.496955      -0.253695
                                                         0.162492      -0.035541
                          1       3    3pz              10.389228      -1.530415
                                                         3.849621      -1.371928
                                                         1.388401      -0.761951
                                                         0.496955      -0.253695
                                                         0.162492      -0.035541

                          1       4    4px              10.389228      -0.565392
                                                         3.849621      -0.038231
                                                         1.388401      -0.382373
                                                         0.496955       0.179070
                                                         0.162492       0.122714
                          1       4    4py              10.389228      -0.565392
                                                         3.849621      -0.038231
                                                         1.388401      -0.382373
                                                         0.496955       0.179070
                                                         0.162492       0.122714
                          1       4    4pz              10.389228      -0.565392
                                                         3.849621      -0.038231
                                                         1.388401      -0.382373
                                                         0.496955       0.179070
                                                         0.162492       0.122714

                          1       5    4dx2             10.389228       1.867377
                                                         3.849621       0.670994
                                                         1.388401       1.353441
                                                         0.496955       0.273538
                                                         0.162492       0.006620
                          1       5    4dxy             10.389228       3.234392
                                                         3.849621       1.162195
                                                         1.388401       2.344229
                                                         0.496955       0.473781
                                                         0.162492       0.011466
                          1       5    4dxz             10.389228       3.234392
                                                         3.849621       1.162195
                                                         1.388401       2.344229
                                                         0.496955       0.473781
                                                         0.162492       0.011466
                          1       5    4dy2             10.389228       1.867377
                                                         3.849621       0.670994
                                                         1.388401       1.353441
                                                         0.496955       0.273538
                                                         0.162492       0.006620
                          1       5    4dyz             10.389228       3.234392
                                                         3.849621       1.162195
                                                         1.388401       2.344229
                                                         0.496955       0.473781
                                                         0.162492       0.011466
                          1       5    4dz2             10.389228       1.867377
                                                         3.849621       0.670994
                                                         1.388401       1.353441
                                                         0.496955       0.273538
                                                         0.162492       0.006620

     GTH Potential information for                                    GTH-PBE-q6

       Description:                       Goedecker-Teter-Hutter pseudopotential
                                           Goedecker et al., PRB 54, 1703 (1996)
                                          Hartwigsen et al., PRB 58, 3641 (1998)
                                                      Krack, TCA 114, 145 (2005)

       Gaussian exponent of the core charge distribution:               8.360253
       Electronic configuration (s p d ...):                               2   4

       Parameters of the local part of the GTH pseudopotential:

                          rloc        C1          C2          C3          C4
                        0.244554  -16.667215    2.487311

       Parameters of the non-local part of the GTH pseudopotential:

                   l      r(l)      h(i,j,l)

                   0    0.220956   18.337458
                   1    0.211332

  4. Atomic kind: H                                     Number of atoms:       8

     Orbital Basis Set                                     DZVP-MOLOPT-SR-GTH-q1

       Number of orbital shell sets:                                           1
       Number of orbital shells:                                               3
       Number of primitive Cartesian functions:                                5
       Number of Cartesian basis functions:                                    5
       Number of spherical basis functions:                                    5
       Norm type:                                                              2

       Normalised Cartesian orbitals:

                        Set   Shell   Orbital            Exponent    Coefficient

                          1       1    2s               10.068468      -0.133023
                                                         2.680223      -0.177618
                                                         0.791502      -0.258419
                                                         0.239116      -0.107525
                                                         0.082193      -0.014019

                          1       2    3s               10.068468       0.344673
                                                         2.680223       1.819821
                                                         0.791502      -0.999069
                                                         0.239116       0.017430
                                                         0.082193       0.082660

                          1       3    3px              10.068468       0.155326
                                                         2.680223       0.367157
                                                         0.791502       0.311480
                                                         0.239116       0.080105
                                                         0.082193       0.033440
                          1       3    3py              10.068468       0.155326
                                                         2.680223       0.367157
                                                         0.791502       0.311480
                                                         0.239116       0.080105
                                                         0.082193       0.033440
                          1       3    3pz              10.068468       0.155326
                                                         2.680223       0.367157
                                                         0.791502       0.311480
                                                         0.239116       0.080105
                                                         0.082193       0.033440

     GTH Potential information for                                    GTH-PBE-q1

       Description:                       Goedecker-Teter-Hutter pseudopotential
                                           Goedecker et al., PRB 54, 1703 (1996)
                                          Hartwigsen et al., PRB 58, 3641 (1998)
                                                      Krack, TCA 114, 145 (2005)

       Gaussian exponent of the core charge distribution:              12.500000
       Electronic configuration (s p d ...):                                   1

       Parameters of the local part of the GTH pseudopotential:

                          rloc        C1          C2          C3          C4
                        0.200000   -4.178900    0.724463

  5. Atomic kind: C                                     Number of atoms:       2

     Orbital Basis Set                                     DZVP-MOLOPT-SR-GTH-q4

       Number of orbital shell sets:                                           1
       Number of orbital shells:                                               5
       Number of primitive Cartesian functions:                                5
       Number of Cartesian basis functions:                                   14
       Number of spherical basis functions:                                   13
       Norm type:                                                              2

       Normalised Cartesian orbitals:

                        Set   Shell   Orbital            Exponent    Coefficient

                          1       1    2s                5.605331       0.322515
                                                         2.113016       0.213043
                                                         0.769911      -0.209686
                                                         0.348157      -0.219794
                                                         0.128212      -0.022789

                          1       2    3s                5.605331       0.552234
                                                         2.113016       0.082072
                                                         0.769911       0.007843
                                                         0.348157       0.136893
                                                         0.128212       0.074283

                          1       3    3px               5.605331      -0.703879
                                                         2.113016      -0.642521
                                                         0.769911      -0.374851
                                                         0.348157      -0.139743
                                                         0.128212      -0.027849
                          1       3    3py               5.605331      -0.703879
                                                         2.113016      -0.642521
                                                         0.769911      -0.374851
                                                         0.348157      -0.139743
                                                         0.128212      -0.027849
                          1       3    3pz               5.605331      -0.703879
                                                         2.113016      -0.642521
                                                         0.769911      -0.374851
                                                         0.348157      -0.139743
                                                         0.128212      -0.027849

                          1       4    4px               5.605331      -0.480376
                                                         2.113016      -0.552894
                                                         0.769911      -0.316145
                                                         0.348157       0.210505
                                                         0.128212       0.076095
                          1       4    4py               5.605331      -0.480376
                                                         2.113016      -0.552894
                                                         0.769911      -0.316145
                                                         0.348157       0.210505
                                                         0.128212       0.076095
                          1       4    4pz               5.605331      -0.480376
                                                         2.113016      -0.552894
                                                         0.769911      -0.316145
                                                         0.348157       0.210505
                                                         0.128212       0.076095

                          1       5    4dx2              5.605331       0.640026
                                                         2.113016       0.274300
                                                         0.769911       0.446711
                                                         0.348157       0.028674
                                                         0.128212       0.029790
                          1       5    4dxy              5.605331       1.108557
                                                         2.113016       0.475102
                                                         0.769911       0.773726
                                                         0.348157       0.049666
                                                         0.128212       0.051599
                          1       5    4dxz              5.605331       1.108557
                                                         2.113016       0.475102
                                                         0.769911       0.773726
                                                         0.348157       0.049666
                                                         0.128212       0.051599
                          1       5    4dy2              5.605331       0.640026
                                                         2.113016       0.274300
                                                         0.769911       0.446711
                                                         0.348157       0.028674
                                                         0.128212       0.029790
                          1       5    4dyz              5.605331       1.108557
                                                         2.113016       0.475102
                                                         0.769911       0.773726
                                                         0.348157       0.049666
                                                         0.128212       0.051599
                          1       5    4dz2              5.605331       0.640026
                                                         2.113016       0.274300
                                                         0.769911       0.446711
                                                         0.348157       0.028674
                                                         0.128212       0.029790

     GTH Potential information for                                    GTH-PBE-q4

       Description:                       Goedecker-Teter-Hutter pseudopotential
                                           Goedecker et al., PRB 54, 1703 (1996)
                                          Hartwigsen et al., PRB 58, 3641 (1998)
                                                      Krack, TCA 114, 145 (2005)

       Gaussian exponent of the core charge distribution:               4.364419
       Electronic configuration (s p d ...):                               2   2

       Parameters of the local part of the GTH pseudopotential:

                          rloc        C1          C2          C3          C4
                        0.338471   -8.803674    1.339211

       Parameters of the non-local part of the GTH pseudopotential:

                   l      r(l)      h(i,j,l)

                   0    0.302576    9.622487
                   1    0.291507


 MOLECULE KIND INFORMATION


 All atoms are their own molecule, skipping detailed information


 TOTAL NUMBERS AND MAXIMUM NUMBERS

  Total number of            - Atomic kinds:                                   5
                             - Atoms:                                        212
                             - Shell sets:                                   212
                             - Shells:                                      1244
                             - Primitive Cartesian functions:               1160
                             - Cartesian basis functions:                   4496
                             - Spherical basis functions:                   3892

  Maximum angular momentum of- Orbital basis functions:                        3
                             - Local part of the GTH pseudopotential:          2
                             - Non-local part of the GTH pseudopotential:      4


 MODULE QUICKSTEP:  ATOMIC COORDINATES IN angstrom

  Atom  Kind  Element       X           Y           Z          Z(eff)       Mass

       1     1 N    7    0.075930    1.977480    2.483283      5.00      14.0067
       2     2 Ga  31    0.078293    0.011534    2.827216     13.00      69.7230
       3     1 N    7    0.079477   -0.026962    5.005841      5.00      14.0067
       4     2 Ga  31    0.080982    1.800887    5.797488     13.00      69.7230
       5     1 N    7    0.079896    1.814474    7.794498      5.00      14.0067
       6     2 Ga  31    0.079674   -0.029387    8.445624     13.00      69.7230
       7     1 N    7    0.079729   -0.030804   10.415597      5.00      14.0067
       8     2 Ga  31    0.079996    1.808630   11.073182     13.00      69.7230
       9     1 N    7    0.080577    1.789536   13.061888      5.00      14.0067
      10     2 Ga  31    0.080288   -0.029657   13.878439     13.00      69.7230
      11     1 N    7    0.080177   -0.029850   16.064889      5.00      14.0067
      12     2 Ga  31    0.080281    2.019125   16.485288     13.00      69.7230
      13     2 Ga  31    0.042703    3.685882    1.362238     13.00      69.7230
      14     1 N    7   -1.409592    4.547214    2.521714      5.00      14.0067
      15     2 Ga  31   -1.602739    2.706996    3.278462     13.00      69.7230
      16     1 N    7   -1.530743    2.752956    5.252751      5.00      14.0067
      17     2 Ga  31   -1.559709    4.618480    5.810044     13.00      69.7230
      18     1 N    7   -1.538769    4.617656    7.800228      5.00      14.0067
      19     2 Ga  31   -1.518461    2.757512    8.439616     13.00      69.7230
      20     1 N    7   -1.517346    2.761099   10.429137      5.00      14.0067
      21     2 Ga  31   -1.544309    4.619527   11.075775     13.00      69.7230
      22     1 N    7   -1.560191    4.630910   13.063548      5.00      14.0067
      23     2 Ga  31   -1.517061    2.761049   13.622352     13.00      69.7230
      24     1 N    7   -1.548155    2.743380   15.578574      5.00      14.0067
      25     2 Ga  31   -1.361009    4.515571   16.485576     13.00      69.7230
      26     1 N    7    0.075087    3.680221   17.614545      5.00      14.0067
      27     1 N    7   -3.133757    7.517416    2.520929      5.00      14.0067
      28     2 Ga  31   -3.112727    5.517475    2.852529     13.00      69.7230
      29     1 N    7   -3.136164    5.540270    5.019183      5.00      14.0067
      30     2 Ga  31   -3.144433    7.360679    5.808668     13.00      69.7230
      31     1 N    7   -3.136123    7.386449    7.795899      5.00      14.0067
      32     2 Ga  31   -3.137021    5.539263    8.451674     13.00      69.7230
      33     1 N    7   -3.136530    5.540943   10.419081      5.00      14.0067
      34     2 Ga  31   -3.137960    7.379313   11.076749     13.00      69.7230
      35     1 N    7   -3.135992    7.360274   13.063910      5.00      14.0067
      36     2 Ga  31   -3.136290    5.540155   13.879614     13.00      69.7230
      37     1 N    7   -3.136204    5.540447   16.065282      5.00      14.0067
      38     2 Ga  31   -3.136143    7.589749   16.485526     13.00      69.7230
      39     2 Ga  31   -3.151210    9.254731    1.462799     13.00      69.7230
      40     1 N    7   -4.640877   10.121833    2.510307      5.00      14.0067
      41     2 Ga  31   -4.848868    8.271913    3.282214     13.00      69.7230
      42     1 N    7   -4.744242    8.325611    5.244288      5.00      14.0067
      43     2 Ga  31   -4.773744   10.199969    5.796108     13.00      69.7230
      44     1 N    7   -4.754705   10.187692    7.790057      5.00      14.0067
      45     2 Ga  31   -4.736664    8.332966    8.440005     13.00      69.7230
      46     1 N    7   -4.733417    8.332203   10.428007      5.00      14.0067
      47     2 Ga  31   -4.759940   10.191703   11.073738     13.00      69.7230
      48     1 N    7   -4.775929   10.201574   13.062015      5.00      14.0067
      49     2 Ga  31   -4.733596    8.332420   13.623007     13.00      69.7230
      50     1 N    7   -4.764526    8.314375   15.579117      5.00      14.0067
      51     2 Ga  31   -4.577918   10.086995   16.485295     13.00      69.7230
      52     1 N    7   -3.141608    9.251562   17.614216      5.00      14.0067
      53     1 N    7    3.285223    1.830811    2.609124      5.00      14.0067
      54     2 Ga  31    3.287274    0.088244    3.279330     13.00      69.7230
      55     1 N    7    3.297045   -0.033309    5.242685      5.00      14.0067
      56     2 Ga  31    3.287752    1.828028    5.870953     13.00      69.7230
      57     1 N    7    3.295696    1.825126    7.843941      5.00      14.0067
      58     2 Ga  31    3.293508   -0.040476    8.439420     13.00      69.7230
      59     1 N    7    3.295781   -0.043555   10.427221      5.00      14.0067
      60     2 Ga  31    3.296036    1.826820   11.027005     13.00      69.7230
      61     1 N    7    3.297150    1.827156   12.992045      5.00      14.0067
      62     2 Ga  31    3.296605   -0.041174   13.622910     13.00      69.7230
      63     1 N    7    3.298226   -0.007168   15.578344      5.00      14.0067
      64     2 Ga  31    3.298526    1.828431   15.863469     13.00      69.7230
      65     1 N    7    1.567010    4.551212    2.511982      5.00      14.0067
      66     2 Ga  31    1.756788    2.715654    3.261527     13.00      69.7230
      67     1 N    7    1.688413    2.754039    5.243393      5.00      14.0067
      68     2 Ga  31    1.718182    4.617037    5.808339     13.00      69.7230
      69     1 N    7    1.697872    4.617438    7.799023      5.00      14.0067
      70     2 Ga  31    1.677740    2.757991    8.439806     13.00      69.7230
      71     1 N    7    1.676756    2.761294   10.428481      5.00      14.0067
      72     2 Ga  31    1.703972    4.619518   11.074545     13.00      69.7230
      73     1 N    7    1.721098    4.630834   13.062324      5.00      14.0067
      74     2 Ga  31    1.678501    2.761250   13.622443     13.00      69.7230
      75     1 N    7    1.708829    2.745633   15.577910      5.00      14.0067
      76     2 Ga  31    1.516335    4.512549   16.487440     13.00      69.7230
      77     1 N    7    0.072509    7.377208    2.694279      5.00      14.0067
      78     2 Ga  31    0.083155    5.534582    3.337878     13.00      69.7230
      79     1 N    7    0.079319    5.552457    5.271534      5.00      14.0067
      80     2 Ga  31    0.080158    7.391473    5.911428     13.00      69.7230
      81     1 N    7    0.079572    7.398019    7.864315      5.00      14.0067
      82     2 Ga  31    0.079844    5.523608    8.448958     13.00      69.7230
      83     1 N    7    0.079711    5.526773   10.433266      5.00      14.0067
      84     2 Ga  31    0.079876    7.396839   11.030850     13.00      69.7230
      85     1 N    7    0.080826    7.397960   12.994545      5.00      14.0067
      86     2 Ga  31    0.080843    5.528420   13.623473     13.00      69.7230
      87     1 N    7    0.082285    5.563243   15.578766      5.00      14.0067
      88     2 Ga  31    0.082080    7.398513   15.864192     13.00      69.7230
      89     1 N    7   -1.630734   10.110146    2.516720      5.00      14.0067
      90     2 Ga  31   -1.501008    8.299575    3.330666     13.00      69.7230
      91     1 N    7   -1.517562    8.317823    5.257785      5.00      14.0067
      92     2 Ga  31   -1.505015   10.203081    5.808985     13.00      69.7230
      93     1 N    7   -1.518820   10.186093    7.795472      5.00      14.0067
      94     2 Ga  31   -1.541840    8.332743    8.450728     13.00      69.7230
      95     1 N    7   -1.540504    8.332321   10.433322      5.00      14.0067
      96     2 Ga  31   -1.513822   10.192521   11.075167     13.00      69.7230
      97     1 N    7   -1.495467   10.201716   13.062396      5.00      14.0067
      98     2 Ga  31   -1.538035    8.332449   13.623723     13.00      69.7230
      99     1 N    7   -1.507337    8.316499   15.579000      5.00      14.0067
     100     2 Ga  31   -1.699785   10.083788   16.487345     13.00      69.7230
     101     1 N    7    6.510738    1.949230    2.530600      5.00      14.0067
     102     2 Ga  31    6.511707   -0.024426    2.867330     13.00      69.7230
     103     1 N    7    6.510739   -0.032258    5.017525      5.00      14.0067
     104     2 Ga  31    6.510587    1.800920    5.803779     13.00      69.7230
     105     1 N    7    6.511484    1.813921    7.795066      5.00      14.0067
     106     2 Ga  31    6.512150   -0.030049    8.449485     13.00      69.7230
     107     1 N    7    6.512268   -0.030837   10.417079      5.00      14.0067
     108     2 Ga  31    6.512085    1.809912   11.072484     13.00      69.7230
     109     1 N    7    6.512352    1.789925   13.061085      5.00      14.0067
     110     2 Ga  31    6.512233   -0.029240   13.876612     13.00      69.7230
     111     1 N    7    6.510992   -0.030384   16.066516      5.00      14.0067
     112     2 Ga  31    6.512546    2.011776   16.483122     13.00      69.7230
     113     2 Ga  31    6.514064    3.681697    1.512771     13.00      69.7230
     114     1 N    7    5.008579    4.549843    2.525152      5.00      14.0067
     115     2 Ga  31    4.793239    2.696845    3.291735     13.00      69.7230
     116     1 N    7    4.901314    2.753686    5.251290      5.00      14.0067
     117     2 Ga  31    4.878808    4.625640    5.802928     13.00      69.7230
     118     1 N    7    4.893938    4.617654    7.794908      5.00      14.0067
     119     2 Ga  31    4.911927    2.759440    8.439024     13.00      69.7230
     120     1 N    7    4.915340    2.761689   10.427175      5.00      14.0067
     121     2 Ga  31    4.889504    4.620569   11.072641     13.00      69.7230
     122     1 N    7    4.872629    4.630586   13.061260      5.00      14.0067
     123     2 Ga  31    4.915259    2.761552   13.622219     13.00      69.7230
     124     1 N    7    4.890753    2.747511   15.580914      5.00      14.0067
     125     2 Ga  31    5.064306    4.520033   16.483087     13.00      69.7230
     126     1 N    7    6.507242    3.680891   17.626333      5.00      14.0067
     127     1 N    7    3.288983    7.517412    2.508227      5.00      14.0067
     128     1 N    7    3.295051    5.540593    5.020281      5.00      14.0067
     129     2 Ga  31    3.299289    7.362385    5.804890     13.00      69.7230
     130     1 N    7    3.293522    7.387072    7.793042      5.00      14.0067
     131     2 Ga  31    3.296192    5.539714    8.449672     13.00      69.7230
     132     1 N    7    3.296179    5.541236   10.417733      5.00      14.0067
     133     2 Ga  31    3.297889    7.379557   11.075315     13.00      69.7230
     134     1 N    7    3.296755    7.360638   13.062982      5.00      14.0067
     135     2 Ga  31    3.296723    5.540031   13.876519     13.00      69.7230
     136     1 N    7    3.295099    5.539657   16.066546      5.00      14.0067
     137     2 Ga  31    3.296733    7.582295   16.484031     13.00      69.7230
     138     2 Ga  31    3.321378    9.269498    1.450017     13.00      69.7230
     139     1 N    7    1.787611   10.112530    2.510472      5.00      14.0067
     140     2 Ga  31    1.655957    8.300046    3.311586     13.00      69.7230
     141     1 N    7    1.672979    8.316317    5.244275      5.00      14.0067
     142     2 Ga  31    1.661906   10.199423    5.805785     13.00      69.7230
     143     1 N    7    1.677288   10.184610    7.793249      5.00      14.0067
     144     2 Ga  31    1.700320    8.332378    8.450894     13.00      69.7230
     145     1 N    7    1.700130    8.332549   10.433261      5.00      14.0067
     146     2 Ga  31    1.673561   10.192620   11.075284     13.00      69.7230
     147     1 N    7    1.656353   10.201410   13.062913      5.00      14.0067
     148     2 Ga  31    1.699346    8.332222   13.623581     13.00      69.7230
     149     1 N    7    1.674536    8.318012   15.582311      5.00      14.0067
     150     2 Ga  31    1.848688   10.090667   16.484008     13.00      69.7230
     151     1 N    7    3.291622    9.251588   17.626829      5.00      14.0067
     152     1 N    7    9.735332    1.829169    2.618025      5.00      14.0067
     153     2 Ga  31    9.731658    0.085282    3.282266     13.00      69.7230
     154     1 N    7    9.724414   -0.034680    5.244963      5.00      14.0067
     155     2 Ga  31    9.732659    1.825795    5.874624     13.00      69.7230
     156     1 N    7    9.726936    1.824549    7.846404      5.00      14.0067
     157     2 Ga  31    9.729679   -0.041773    8.438007     13.00      69.7230
     158     1 N    7    9.727985   -0.044016   10.426503      5.00      14.0067
     159     2 Ga  31    9.727935    1.826277   11.026952     13.00      69.7230
     160     1 N    7    9.727527    1.826141   12.993578      5.00      14.0067
     161     2 Ga  31    9.729408   -0.042502   13.622762     13.00      69.7230
     162     1 N    7    9.729409   -0.012987   15.580846      5.00      14.0067
     163     2 Ga  31    9.726810    1.826594   15.859783     13.00      69.7230
     164     1 N    7    8.013249    4.549635    2.529785      5.00      14.0067
     165     2 Ga  31    8.227193    2.695993    3.295495     13.00      69.7230
     166     1 N    7    8.120479    2.753455    5.254428      5.00      14.0067
     167     2 Ga  31    8.144168    4.625924    5.802935     13.00      69.7230
     168     1 N    7    8.129836    4.617941    7.795229      5.00      14.0067
     169     2 Ga  31    8.110737    2.759826    8.439398     13.00      69.7230
     170     1 N    7    8.108707    2.761671   10.427670      5.00      14.0067
     171     2 Ga  31    8.134663    4.620471   11.073462     13.00      69.7230
     172     1 N    7    8.152505    4.630749   13.061484      5.00      14.0067
     173     2 Ga  31    8.109339    2.762092   13.622127     13.00      69.7230
     174     1 N    7    8.135029    2.747623   15.580069      5.00      14.0067
     175     2 Ga  31    7.957294    4.518002   16.482534     13.00      69.7230
     176     1 N    7    6.509524    7.396678    2.602433      5.00      14.0067
     177     2 Ga  31    6.509921    5.657467    3.291358     13.00      69.7230
     178     1 N    7    6.511249    5.542574    5.250607      5.00      14.0067
     179     2 Ga  31    6.510039    7.398978    5.874415     13.00      69.7230
     180     1 N    7    6.511227    7.397715    7.843894      5.00      14.0067
     181     2 Ga  31    6.511828    5.529217    8.439802     13.00      69.7230
     182     1 N    7    6.512099    5.527986   10.427583      5.00      14.0067
     183     2 Ga  31    6.511561    7.397435   11.027422     13.00      69.7230
     184     1 N    7    6.511551    7.397276   12.993660      5.00      14.0067
     185     2 Ga  31    6.512839    5.527718   13.622407     13.00      69.7230
     186     1 N    7    6.513003    5.557372   15.580287      5.00      14.0067
     187     2 Ga  31    6.511026    7.396316   15.860321     13.00      69.7230
     188     1 N    7    4.800462   10.123744    2.515584      5.00      14.0067
     189     2 Ga  31    5.000817    8.270228    3.279095     13.00      69.7230
     190     1 N    7    4.900421    8.325152    5.242039      5.00      14.0067
     191     2 Ga  31    4.932040   10.199332    5.794522     13.00      69.7230
     192     1 N    7    4.914124   10.187858    7.788953      5.00      14.0067
     193     2 Ga  31    4.894515    8.333082    8.438012     13.00      69.7230
     194     1 N    7    4.892503    8.332247   10.426147      5.00      14.0067
     195     2 Ga  31    4.919411   10.191303   11.072476     13.00      69.7230
     196     1 N    7    4.936520   10.201215   13.060904      5.00      14.0067
     197     2 Ga  31    4.893829    8.333051   13.622991     13.00      69.7230
     198     1 N    7    4.919365    8.318304   15.580987      5.00      14.0067
     199     2 Ga  31    4.741493   10.088775   16.483387     13.00      69.7230
     200     3 O    8    0.014921    4.094849   -0.434530      6.00      15.9994
     201     4 H    1   -0.179843    5.875786   -0.345647      1.00       1.0079
     202     5 C    6    1.132185    3.641629   -1.221852      4.00      12.0107
     203     4 H    1    2.098724    3.946714   -0.788209      1.00       1.0079
     204     4 H    1    1.128515    2.545839   -1.327176      1.00       1.0079
     205     4 H    1    1.039890    4.086335   -2.223058      1.00       1.0079
     206     2 Ga  31    3.267597    5.517056    2.858990     13.00      69.7230
     207     3 O    8   -0.183269    6.862017   -0.203125      6.00      15.9994
     208     4 H    1    0.029247    7.309348    1.656921      1.00       1.0079
     209     5 C    6    0.944382    7.396940   -0.905966      4.00      12.0107
     210     4 H    1    0.956618    8.481977   -0.729651      1.00       1.0079
     211     4 H    1    1.895917    6.971435   -0.544813      1.00       1.0079
     212     4 H    1    0.870076    7.226110   -1.991179      1.00       1.0079




 SCF PARAMETERS         Density guess:                                    ATOMIC
                        --------------------------------------------------------
                        max_scf:                                              80
                        max_scf_history:                                       0
                        max_diis:                                              4
                        --------------------------------------------------------
                        eps_scf:                                        5.00E-06
                        eps_scf_history:                                0.00E+00
                        eps_diis:                                       1.00E-01
                        eps_eigval:                                     1.00E-05
                        --------------------------------------------------------
                        level_shift [a.u.]:                                 0.00
                        --------------------------------------------------------
                        Outer loop SCF in use 
                        No variables optimised in outer loop
                        eps_scf                                         5.00E-06
                        max_scf                                                4
                        No outer loop optimization
                        step_size                                       5.00E-01

 PW_GRID| Information for grid number                                          1
 PW_GRID| Grid distributed over                                    80 processors
 PW_GRID| Real space group dimensions                                    80    1
 PW_GRID| the grid is blocked:                                                NO
 PW_GRID| Cutoff [a.u.]                                                    600.0
 PW_GRID| spherical cutoff:                                                   NO
 PW_GRID|   Bounds   1           -144     143                Points:         288
 PW_GRID|   Bounds   2           -144     143                Points:         288
 PW_GRID|   Bounds   3           -337     337                Points:         675
 PW_GRID| Volume element (a.u.^3)  0.5630E-03     Volume (a.u.^3)     31519.8467
 PW_GRID| Grid span                                                    FULLSPACE
 PW_GRID|   Distribution                         Average         Max         Min
 PW_GRID|   G-Vectors                           699840.0      699840      699840
 PW_GRID|   G-Rays                                2430.0        2430        2430
 PW_GRID|   Real Space Points                   699840.0      777600      583200

 PW_GRID| Information for grid number                                          2
 PW_GRID| Grid distributed over                                    80 processors
 PW_GRID| Real space group dimensions                                    80    1
 PW_GRID| the grid is blocked:                                                NO
 PW_GRID| Cutoff [a.u.]                                                    200.0
 PW_GRID| spherical cutoff:                                                   NO
 PW_GRID|   Bounds   1            -80      79                Points:         160
 PW_GRID|   Bounds   2            -80      79                Points:         160
 PW_GRID|   Bounds   3           -200     199                Points:         400
 PW_GRID| Volume element (a.u.^3)  0.3078E-02     Volume (a.u.^3)     31519.8467
 PW_GRID| Grid span                                                    FULLSPACE
 PW_GRID|   Distribution                         Average         Max         Min
 PW_GRID|   G-Vectors                           128000.0      128160      127840
 PW_GRID|   G-Rays                                 800.0         801         799
 PW_GRID|   Real Space Points                   128000.0      128000      128000

 PW_GRID| Information for grid number                                          3
 PW_GRID| Grid distributed over                                    80 processors
 PW_GRID| Real space group dimensions                                    80    1
 PW_GRID| the grid is blocked:                                                NO
 PW_GRID| Cutoff [a.u.]                                                     66.7
 PW_GRID| spherical cutoff:                                                   NO
 PW_GRID|   Bounds   1            -48      47                Points:          96
 PW_GRID|   Bounds   2            -48      47                Points:          96
 PW_GRID|   Bounds   3           -112     112                Points:         225
 PW_GRID| Volume element (a.u.^3)  0.1520E-01     Volume (a.u.^3)     31519.8467
 PW_GRID| Grid span                                                    FULLSPACE
 PW_GRID|   Distribution                         Average         Max         Min
[...]
 flops   991 x    64 x    50          95998566400     100.0%      0.0%      0.0%
 flops    13 x    25 x    50          97179095000     100.0%      0.0%      0.0%
 flops    25 x    13 x    50          97265480000     100.0%      0.0%      0.0%
 flops   242 x    64 x   178         123683946496     100.0%      0.0%      0.0%
 flops   242 x    64 x   183         127158214656     100.0%      0.0%      0.0%
 flops   973 x    32 x    50         129600486400     100.0%      0.0%      0.0%
 flops   973 x    50 x    32         129600486400     100.0%      0.0%      0.0%
 flops   242 x    64 x   195         135496458240     100.0%      0.0%      0.0%
 flops   242 x    32 x    32         136130846720     100.0%      0.0%      0.0%
 flops    25 x    18 x    13         139882602600     100.0%      0.0%      0.0%
 flops    13 x    18 x    25         139882602600     100.0%      0.0%      0.0%
 flops   955 x    32 x   178         151266621440     100.0%      0.0%      0.0%
 flops   955 x    32 x   183         155515683840     100.0%      0.0%      0.0%
 flops   991 x    32 x   178         156968818688     100.0%      0.0%      0.0%
 flops   991 x    32 x   183         161378055168     100.0%      0.0%      0.0%
 flops   955 x    32 x   195         165713433600     100.0%      0.0%      0.0%
 flops   991 x    32 x   195         171960222720     100.0%      0.0%      0.0%
 flops    25 x    25 x    50         186850000000     100.0%      0.0%      0.0%
 flops   973 x    64 x    50         188509798400     100.0%      0.0%      0.0%
 flops   973 x    50 x    64         188509798400     100.0%      0.0%      0.0%
 flops     5 x    32 x    25         196694176000     100.0%      0.0%      0.0%
 flops    25 x    32 x     5         196694176000     100.0%      0.0%      0.0%
 flops   242 x    64 x    32         198008504320     100.0%      0.0%      0.0%
 flops   242 x    32 x    64         198008504320     100.0%      0.0%      0.0%
 flops   955 x    64 x   178         220024176640     100.0%      0.0%      0.0%
 flops   955 x    64 x   183         226204631040     100.0%      0.0%      0.0%
 flops   991 x    64 x   178         228318281728     100.0%      0.0%      0.0%
 flops   991 x    64 x   183         234731716608     100.0%      0.0%      0.0%
 flops   224 x    32 x   178         236123897856     100.0%      0.0%      0.0%
 flops   955 x    64 x   195         241037721600     100.0%      0.0%      0.0%
 flops   224 x    32 x   183         242756591616     100.0%      0.0%      0.0%
 flops   991 x    64 x   195         250123960320     100.0%      0.0%      0.0%
 flops   224 x    32 x   195         258675056640     100.0%      0.0%      0.0%
 flops    25 x    18 x    25         266175000000     100.0%      0.0%      0.0%
 flops   242 x    64 x    64         288012369920     100.0%      0.0%      0.0%
 flops   973 x    32 x   178         308235440128     100.0%      0.0%      0.0%
 flops   973 x    32 x   183         316893739008     100.0%      0.0%      0.0%
 flops   973 x    32 x   195         337673656320     100.0%      0.0%      0.0%
 flops   224 x    64 x   178         343452942336     100.0%      0.0%      0.0%
 flops    13 x    13 x    32         345443484672     100.0%      0.0%      0.0%
 flops   224 x    64 x   183         353100496896     100.0%      0.0%      0.0%
 flops   224 x    64 x   195         376254627840     100.0%      0.0%      0.0%
 flops   224 x    32 x    32         378016235520     100.0%      0.0%      0.0%
 flops   955 x    32 x    32         447754362880     100.0%      0.0%      0.0%
 flops   973 x    64 x   178         448342458368     100.0%      0.0%      0.0%
 flops   973 x    64 x   183         460936347648     100.0%      0.0%      0.0%
 flops   991 x    32 x    32         464633061376     100.0%      0.0%      0.0%
 flops   973 x    64 x   195         491161681920     100.0%      0.0%      0.0%
 flops    13 x    13 x    64         502463250432     100.0%      0.0%      0.0%
 flops   224 x    32 x    64         549841797120     100.0%      0.0%      0.0%
 flops   224 x    64 x    32         549841797120     100.0%      0.0%      0.0%
 flops   955 x    32 x    64         651279073280     100.0%      0.0%      0.0%
 flops   955 x    64 x    32         651279073280     100.0%      0.0%      0.0%
 flops   991 x    32 x    64         675829907456     100.0%      0.0%      0.0%
 flops   991 x    64 x    32         675829907456     100.0%      0.0%      0.0%
 flops    13 x    25 x    32         684140828800     100.0%      0.0%      0.0%
 flops    25 x    13 x    32         684748979200     100.0%      0.0%      0.0%
 flops   224 x    64 x    64         799769886720     100.0%      0.0%      0.0%
 flops   973 x    32 x    32         912387424256     100.0%      0.0%      0.0%
 flops   955 x    64 x    64         947315015680     100.0%      0.0%      0.0%
 flops   991 x    64 x    64         983025319936     100.0%      0.0%      0.0%
 flops    13 x    25 x    64         995113932800     100.0%      0.0%      0.0%
 flops    25 x    13 x    64         995998515200     100.0%      0.0%      0.0%
 flops    25 x    25 x    32        1315424000000     100.0%      0.0%      0.0%
 flops   973 x    64 x    32        1327108980736     100.0%      0.0%      0.0%
 flops   973 x    32 x    64        1327108980736     100.0%      0.0%      0.0%
 flops    25 x    25 x    64        1913344000000     100.0%      0.0%      0.0%
 flops   973 x    64 x    64        1930340335616     100.0%      0.0%      0.0%
 flops    13 x    32 x    13        3477067543040     100.0%      0.0%      0.0%
 flops    25 x    32 x    13        6963045107200     100.0%      0.0%      0.0%
 flops    13 x    32 x    25        6963045107200     100.0%      0.0%      0.0%
 flops    25 x    32 x    25       13249600000000     100.0%      0.0%      0.0%
 flops inhomo. stacks              22882833643936     100.0%      0.0%      0.0%
 flops total                        86.105285E+12     100.0%      0.0%      0.0%
 flops max/rank                      1.495223E+12     100.0%      0.0%      0.0%
 matmuls inhomo. stacks                   2278080     100.0%      0.0%      0.0%
 matmuls total                         1724803834     100.0%      0.0%      0.0%
 number of processed stacks              30933680     100.0%      0.0%      0.0%
 average stack size                                    55.8       0.0       0.0
 marketing flops                    92.000146E+12
 -------------------------------------------------------------------------------
 # multiplications                           8043
 max memory usage/rank               1.375625E+09
 # max total images/rank                        5
 # max 3D layers                                1
 # MPI messages exchanged                73352160
 MPI messages size (bytes):
  total size                         9.098331E+12
  min size                           0.000000E+00
  max size                           1.894792E+06
  average size                     124.036312E+03
 MPI breakdown and total messages size (bytes):
             size <=      128              588240                        0
       128 < size <=     8192             9575962              78446280704
      8192 < size <=    32768            22068918             450203944512
     32768 < size <=   131072            32398800            2347800954624
    131072 < size <=  4194304             8720240            6222643803248
   4194304 < size <= 16777216                   0                        0
  16777216 < size                               0                        0
 -------------------------------------------------------------------------------

 *** WARNING in dbcsr/mm/dbcsr_mm.F:268 :: Using a non-square number of ***
 *** MPI ranks might lead to poor performance.                          ***
 *** Used ranks: 80                                                     ***
 *** Suggested: 81 169                                                  ***

 -------------------------------------------------------------------------------
 
 MEMORY| Estimated peak process memory [MiB]                                1340

 -------------------------------------------------------------------------------
 ----                             MULTIGRID INFO                            ----
 -------------------------------------------------------------------------------
 count for grid        1:        1099422          cutoff [a.u.]          600.00
 count for grid        2:        4011781          cutoff [a.u.]          200.00
 count for grid        3:        3186136          cutoff [a.u.]           66.67
 count for grid        4:        3672778          cutoff [a.u.]           22.22
 count for grid        5:        2814912          cutoff [a.u.]            7.41
 total gridlevel count  :       14785029

 -------------------------------------------------------------------------------
 -                                                                             -
 -                         MESSAGE PASSING PERFORMANCE                         -
 -                                                                             -
 -------------------------------------------------------------------------------

 ROUTINE             CALLS      AVE VOLUME [Bytes]
 MP_Group              841
 MP_Bcast            13308                  28843.
 MP_Allreduce        77473                    336.
 MP_Sync               373
 MP_Alltoall         45760                5295457.
 MP_SendRecv          5056                   5936.
 MP_ISendRecv       206664                 133520.
 MP_Wait           1792236
 MP_comm_split         368
 MP_ISend          2062592                 117389.
 MP_IRecv          2063224                 117300.
 MP_Recv               285                 162816.
 MP_Memory          894288
 -------------------------------------------------------------------------------


 -------------------------------------------------------------------------------
 -                                                                             -
 -                           R E F E R E N C E S                               -
 -                                                                             -
 -------------------------------------------------------------------------------
 
 CP2K version 7.0 (Development Version), the CP2K developers group (2018).
 CP2K is freely available from https://www.cp2k.org/ .

 Schuett, Ole; Messmer, Peter; Hutter, Juerg; VandeVondele, Joost. 
 Electronic Structure Calculations on Graphics Processing Units, John Wiley & Sons, Ltd, 173-190 (2016). 
 GPU-Accelerated Sparse Matrix-Matrix Multiplication for Linear Scaling Density Functional Theory.
 http://dx.doi.org/10.1002/9781118670712.ch8


 Borstnik, U; VandeVondele, J; Weber, V; Hutter, J. 
 PARALLEL COMPUTING, 40 (5-6), 47-58 (2014). 
 Sparse matrix multiplication: The distributed block-compressed sparse
 row library.
 http://dx.doi.org/10.1016/j.parco.2014.03.012


 Hutter, J; Iannuzzi, M; Schiffmann, F; VandeVondele, J. 
 WILEY INTERDISCIPLINARY REVIEWS-COMPUTATIONAL MOLECULAR SCIENCE, 4 (1), 15-25 (2014). 
 CP2K: atomistic simulations of condensed matter systems.
 http://dx.doi.org/10.1002/wcms.1159


 Grimme, S; Ehrlich, S; Goerigk, L. 
 JOURNAL OF COMPUTATIONAL CHEMISTRY, 32, 1456 (2011). 
 Effect of the damping function in dispersion corrected density functional theory.
 http://dx.doi.org/10.1002/jcc.21759


 Grimme, S; Antony, J; Ehrlich, S; Krieg, H. 
 JOURNAL OF CHEMICAL PHYSICS, 132 (15), 154104 (2010). 
 A consistent and accurate ab initio parametrization of density
 functional dispersion correction (DFT-D) for the 94 elements H-Pu.
 http://dx.doi.org/10.1063/1.3382344


 VandeVondele, J; Hutter, J. 
 JOURNAL OF CHEMICAL PHYSICS, 127 (11), 114105 (2007). 
 Gaussian basis sets for accurate calculations on molecular systems in
 gas and condensed phases.
 http://dx.doi.org/10.1063/1.2770708


 Krack, M. 
 THEORETICAL CHEMISTRY ACCOUNTS, 114 (1-3), 145-152 (2005). 
 Pseudopotentials for H to Kr optimized for gradient-corrected
 exchange-correlation functionals.
 http://dx.doi.org/10.1007/s00214-005-0655-y


 VandeVondele, J; Krack, M; Mohamed, F; Parrinello, M; Chassaing, T;
 Hutter, J. COMPUTER PHYSICS COMMUNICATIONS, 167 (2), 103-128 (2005). 
 QUICKSTEP: Fast and accurate density functional calculations using a
 mixed Gaussian and plane waves approach.
 http://dx.doi.org/10.1016/j.cpc.2004.12.014


 Frigo, M; Johnson, SG. 
 PROCEEDINGS OF THE IEEE, 93 (2), 216-231 (2005). 
 The design and implementation of FFTW3.
 http://dx.doi.org/10.1109/JPROC.2004.840301


 Kolafa, J. 
 JOURNAL OF COMPUTATIONAL CHEMISTRY, 25 (3), 335-342 (2004). 
 Time-reversible always stable predictor-corrector method for molecular dynamics of polarizable molecules.
 http://dx.doi.org/10.1002/jcc.10385


 VandeVondele, J; Hutter, J. 
 JOURNAL OF CHEMICAL PHYSICS, 118 (10), 4365-4369 (2003). 
 An efficient orbital transformation method for electronic structure
 calculations.
 http://dx.doi.org/10.1063/1.1543154


 Hartwigsen, C; Goedecker, S; Hutter, J. 
 PHYSICAL REVIEW B, 58 (7), 3641-3662 (1998). 
 Relativistic separable dual-space Gaussian pseudopotentials from H to Rn.
 http://dx.doi.org/10.1103/PhysRevB.58.3641


 Lippert, G; Hutter, J; Parrinello, M. 
 MOLECULAR PHYSICS, 92 (3), 477-487 (1997). 
 A hybrid Gaussian and plane wave density functional scheme.
 http://dx.doi.org/10.1080/002689797170220


 Perdew, JP; Burke, K; Ernzerhof, M. 
 PHYSICAL REVIEW LETTERS, 77 (18), 3865-3868 (1996). 
 Generalized gradient approximation made simple.
 http://dx.doi.org/10.1103/PhysRevLett.77.3865


 Goedecker, S; Teter, M; Hutter, J. 
 PHYSICAL REVIEW B, 54 (3), 1703-1710 (1996). 
 Separable dual-space Gaussian pseudopotentials.
 http://dx.doi.org/10.1103/PhysRevB.54.1703


 -------------------------------------------------------------------------------
 -                                                                             -
 -                                T I M I N G                                  -
 -                                                                             -
 -------------------------------------------------------------------------------
 SUBROUTINE                       CALLS  ASD         SELF TIME        TOTAL TIME
                                MAXIMUM       AVERAGE  MAXIMUM  AVERAGE  MAXIMUM
 CP2K                                 1  1.0    0.072    0.094 4045.628 4045.706
 cp_geo_opt                           1  2.0    0.000    0.000 4044.006 4044.084
 geoopt_bfgs                          1  3.0    0.025    0.048 4044.006 4044.083
 cp_eval_at                          17  4.0    0.006    0.031 4031.921 4031.970
 qs_forces                           16  5.0    0.006    0.025 3960.565 3960.576
 qs_energies                         17  5.9    0.009    0.029 3709.902 3709.986
 scf_env_do_scf                      17  6.9    0.006    0.038 3486.087 3486.099
 scf_env_do_scf_inner_loop          263  8.0    0.016    0.037 3101.570 3101.617
 rebuild_ks_matrix                  279  9.8    0.003    0.013 1731.730 1732.092
 qs_ks_build_kohn_sham_matrix       279 10.8    0.086    0.177 1731.728 1732.089
 qs_ks_update_qs_env                281  9.0    0.002    0.003 1445.783 1446.061
 qs_rho_update_rho                  280  9.0    0.003    0.003 1437.010 1437.774
 calculate_rho_elec                 560 10.0  723.764  736.919 1437.007 1437.771
 sum_up_and_integrate               156 11.7    2.319    2.614  967.907  968.510
 integrate_v_rspace                 312 12.7  548.430  566.349  965.587  966.344
 pw_transfer                       8852 13.3    0.934    1.096  844.604  849.392
 fft_wrap_pw1pw2                   8294 14.4    0.095    0.109  840.211  844.954
 fft_wrap_pw1pw2_600               4806 15.6   53.854   61.612  783.327  787.978
 rs_pw_transfer                    4444 12.9    0.056    0.070  731.448  740.914
 fft3d_ps                          8294 16.4  247.372  275.680  714.955  721.559
 density_rs2pw                      560 11.0    0.041    0.053  643.268  657.026
 qs_vxc_create                      279 11.8    0.008    0.021  589.970  590.110
 dbcsr_multiply_generic            8043 13.7    0.530    0.739  553.039  554.216
 mp_waitall_1                   1631372 16.7  498.494  527.057  498.494  527.057
 qs_scf_new_mos                     263  9.0    0.002    0.003  479.197  479.533
 qs_scf_loop_do_ot                  263 10.0    0.011    0.047  479.195  479.531
 mp_alltoall_z22v                  8294 18.4  397.674  446.784  397.674  446.784
 multiply_cannon                   8043 14.7    2.550    2.695  433.217  441.852
 ot_scf_mini                        263 11.0    0.044    0.115  438.551  438.830
 xc_vxc_pw_create                   156 12.7   23.428   26.467  436.613  436.696
 init_scf_loop                       18  7.9    0.001    0.018  383.950  383.964
 mp_waitany                      160864 14.9  319.398  344.517  319.398  344.517
 potential_pw2rs                    312 13.7    0.245    0.274  338.249  339.070
 xc_rho_set_and_dset_create         279 13.8    4.946    5.315  325.936  331.519
 rs_pw_transfer_RS2PW_600           594 13.0  119.549  131.397  300.435  310.343
 multiply_cannon_metrocomm3      160860 15.7    0.441    0.481  263.398  293.134
 qs_ks_update_qs_env_forces          16  6.0    0.000    0.000  288.180  288.273
 x_to_yz                           3605 18.0   39.343   45.198  266.037  283.846
 ot_mini                            263 12.0    0.002    0.015  225.703  225.895
 yz_to_x                           2945 16.8   24.450   25.704  195.028  218.310
 rs_pw_transfer_PW2RS_600           362 15.1   81.020   87.820  207.661  212.968
 prepare_preconditioner              18  8.9    0.000    0.000  206.928  207.005
 make_preconditioner                 36  9.9    0.001    0.016  190.028  190.073
 make_full_all                       36 10.9    0.015    0.029  173.251  173.367
 xc_exc_calc                        123 13.0    0.596    0.683  153.350  153.430
 cp_fm_syevd                        368 13.7    0.003    0.004  140.515  141.116
 qs_ot_get_derivative               280 13.0    0.004    0.015  139.813  140.070
 init_scf_run                        17  6.9    0.001    0.003  139.195  139.208
 scf_env_initial_rho_setup           17  7.9    0.000    0.001  139.195  139.207
 cp_fm_redistribute_end             368 14.7   46.768  135.711   47.589  136.474
 cp_fm_syevd_base                   368 14.4   88.349  131.814   88.349  131.814
 wfi_extrapolate                     17  8.9    0.008    0.046  129.248  129.260
 multiply_cannon_metrocomm1      160860 15.7    0.511    0.556   90.345  123.444
 mp_alltoall_d11v                  9540 15.1  102.353  122.375  102.353  122.375
 rs_distribute_matrix               904 12.0    1.139    2.182   94.438  114.070
 apply_preconditioner_dbcsr         316 14.0    0.001    0.001   93.741   93.969
 apply_all                          316 15.0    0.037    0.060   93.740   93.968
 qs_ot_get_p                        562 11.9    0.007    0.025   91.828   93.103
 ot_new_cg_direction                140 13.0    0.006    0.026   84.252   84.292
 -------------------------------------------------------------------------------

 The number of warnings for this run is : 1
 
 -------------------------------------------------------------------------------
  **** **** ******  **  PROGRAM ENDED AT                 2019-07-08 22:48:12.452
 ***** ** ***  *** **   PROGRAM RAN ON            blg9216.int.ets1.calculquebec.
 **    ****   ******    PROGRAM RAN BY                                       rzk
 ***** **    ** ** **   PROGRAM PROCESS ID                                265718
  **** **  *******  **  PROGRAM STOPPED IN /lustre04/scratch/rzk/rzk/GaN-carbene
                                           /443-adatoms-both-2x2/09-BondBreaking
                                           -CH/02-0401-CH-to-NTop-PES
