 DBCSR| Multiplication driver                                               BLAS
 DBCSR| Multrec recursion limit                                              512
 DBCSR| Multiplication stack size                                           1000
 DBCSR| Maximum elements for images                                    UNLIMITED
 DBCSR| Multiplicative factor virtual images                                   1
 DBCSR| Multiplication size stacks                                             3
 DBCSR| Number of 3D layers                                               SINGLE
 DBCSR| Use MPI memory allocation                                              T
 DBCSR| Use RMA algorithm                                                      F
 DBCSR| Use Communication thread                                               T
 DBCSR| Communication thread load                                             87


  **** **** ******  **  PROGRAM STARTED AT               2019-07-09 17:27:39.937
 ***** ** ***  *** **   PROGRAM STARTED ON        blg9251.int.ets1.calculquebec.
 **    ****   ******    PROGRAM STARTED BY                                   rzk
 ***** **    ** ** **   PROGRAM PROCESS ID                                307657
  **** **  *******  **  PROGRAM STARTED IN /lustre04/scratch/rzk/rzk/GaN-carbene
                                           /443-adatoms-both-2x2/09-BondBreaking
                                           -CH/02-0401-CH-to-NTop-PES

 CP2K| version string:                    CP2K version 7.0 (Development Version)
 CP2K| source code revision number:                                    svn:18619
 CP2K| cp2kflags: libint fftw3 libxc parallel mpi3 scalapack mkl                
 CP2K| is freely available from                            https://www.cp2k.org/
 CP2K| Program compiled at                          Sun Apr  7 00:48:11 EDT 2019
 CP2K| Program compiled on                      beluga2.int.ets1.calculquebec.ca
 CP2K| Program compiled for                    Beluga-Linux-x86-64-intel-openmpi
 CP2K| Data directory path    /home/rzk/projects/def-rzk/group/cp2k/cp2k-mcgill/
 CP2K| Input file name                                            TEST-1.restart
 
 GLOBAL| Force Environment number                                              1
 GLOBAL| Basis set file name                                        BASIS_MOLOPT
 GLOBAL| Potential file name                                      GTH_POTENTIALS
 GLOBAL| MM Potential file name                                     MM_POTENTIAL
 GLOBAL| Coordinate file name                                      __STD_INPUT__
 GLOBAL| Method name                                                        CP2K
 GLOBAL| Project name                                                       TEST
 GLOBAL| Preferred FFT library                                             FFTW3
 GLOBAL| Preferred diagonalization lib.                                       SL
 GLOBAL| Run type                                                        GEO_OPT
 GLOBAL| All-to-all communication in single precision                          F
 GLOBAL| FFTs using library dependent lengths                                  F
 GLOBAL| Global print level                                               MEDIUM
 GLOBAL| MPI I/O enabled                                                       T
 GLOBAL| Total number of message passing processes                            80
 GLOBAL| Number of threads for this process                                    1
 GLOBAL| This output is from process                                           0
 GLOBAL| CPU model name :  Intel(R) Xeon(R) Gold 6148 CPU @ 2.40GHz

 MEMORY| system memory details [Kb]
 MEMORY|                        rank 0           min           max       average
 MEMORY| MemTotal            196614296     196614296     196614300     196614298
 MEMORY| MemFree             182579032     136425044     182582752     159523499
 MEMORY| Buffers                     0             0             0             0
 MEMORY| Cached                1385208       1385208      42566684      21975938
 MEMORY| Slab                  1264852       1264852       6402916       3833880
 MEMORY| SReclaimable           132008        132008        296816        214412
 MEMORY| MemLikelyFree       184096248     179288544     184099968     181713850


 *** Fundamental physical constants (SI units) ***

 *** Literature: B. J. Mohr and B. N. Taylor,
 ***             CODATA recommended values of the fundamental physical
 ***             constants: 2006, Web Version 5.1
 ***             http://physics.nist.gov/constants

 Speed of light in vacuum [m/s]                             2.99792458000000E+08
 Magnetic constant or permeability of vacuum [N/A**2]       1.25663706143592E-06
 Electric constant or permittivity of vacuum [F/m]          8.85418781762039E-12
 Planck constant (h) [J*s]                                  6.62606896000000E-34
 Planck constant (h-bar) [J*s]                              1.05457162825177E-34
 Elementary charge [C]                                      1.60217648700000E-19
 Electron mass [kg]                                         9.10938215000000E-31
 Electron g factor [ ]                                     -2.00231930436220E+00
 Proton mass [kg]                                           1.67262163700000E-27
 Fine-structure constant                                    7.29735253760000E-03
 Rydberg constant [1/m]                                     1.09737315685270E+07
 Avogadro constant [1/mol]                                  6.02214179000000E+23
 Boltzmann constant [J/K]                                   1.38065040000000E-23
 Atomic mass unit [kg]                                      1.66053878200000E-27
 Bohr radius [m]                                            5.29177208590000E-11

 *** Conversion factors ***

 [u] -> [a.u.]                                              1.82288848426455E+03
 [Angstrom] -> [Bohr] = [a.u.]                              1.88972613288564E+00
 [a.u.] = [Bohr] -> [Angstrom]                              5.29177208590000E-01
 [a.u.] -> [s]                                              2.41888432650478E-17
 [a.u.] -> [fs]                                             2.41888432650478E-02
 [a.u.] -> [J]                                              4.35974393937059E-18
 [a.u.] -> [N]                                              8.23872205491840E-08
 [a.u.] -> [K]                                              3.15774647902944E+05
 [a.u.] -> [kJ/mol]                                         2.62549961709828E+03
 [a.u.] -> [kcal/mol]                                       6.27509468713739E+02
 [a.u.] -> [Pa]                                             2.94210107994716E+13
 [a.u.] -> [bar]                                            2.94210107994716E+08
 [a.u.] -> [atm]                                            2.90362800883016E+08
 [a.u.] -> [eV]                                             2.72113838565563E+01
 [a.u.] -> [Hz]                                             6.57968392072181E+15
 [a.u.] -> [1/cm] (wave numbers)                            2.19474631370540E+05
 [a.u./Bohr**2] -> [1/cm]                                   5.14048714338585E+03
 
          ----------------------------------------------------------------------
 COLVARS| COLVAR INPUT INDEX:        1
 COLVARS| BOND          >>> ATOMS:                                   127     211
          ----------------------------------------------------------------------

 CELL_TOP| Volume [angstrom^3]:                                         4586.323
 CELL_TOP| Vector a [angstrom    12.864     0.000     0.000    |a| =      12.864
 CELL_TOP| Vector b [angstrom    -6.432    11.141     0.000    |b| =      12.864
 CELL_TOP| Vector c [angstrom     0.000     0.000    32.000    |c| =      32.000
 CELL_TOP| Angle (b,c), alpha [degree]:                                   90.000
 CELL_TOP| Angle (a,c), beta  [degree]:                                   90.000
 CELL_TOP| Angle (a,b), gamma [degree]:                                  120.000
 CELL_TOP| Numerically orthorhombic:                                          NO
 RESTRAINT| Active restraint on COLLECTIVE section Nr.     1. K [a.u.]= 2.000000
 
 GENERATE|  Preliminary Number of Bonds generated:                             0
 GENERATE|  Achieved consistency in connectivity generation.

 CELL| Volume [angstrom^3]:                                             4586.323
 CELL| Vector a [angstrom]:      12.864     0.000     0.000    |a| =      12.864
 CELL| Vector b [angstrom]:      -6.432    11.141     0.000    |b| =      12.864
 CELL| Vector c [angstrom]:       0.000     0.000    32.000    |c| =      32.000
 CELL| Angle (b,c), alpha [degree]:                                       90.000
 CELL| Angle (a,c), beta  [degree]:                                       90.000
 CELL| Angle (a,b), gamma [degree]:                                      120.000
 CELL| Numerically orthorhombic:                                              NO

 CELL_REF| Volume [angstrom^3]:                                         4670.759
 CELL_REF| Vector a [angstrom    12.982     0.000     0.000    |a| =      12.982
 CELL_REF| Vector b [angstrom    -6.491    11.243     0.000    |b| =      12.982
 CELL_REF| Vector c [angstrom     0.000     0.000    32.000    |c| =      32.000
 CELL_REF| Angle (b,c), alpha [degree]:                                   90.000
 CELL_REF| Angle (a,c), beta  [degree]:                                   90.000
 CELL_REF| Angle (a,b), gamma [degree]:                                  120.000
 CELL_REF| Numerically orthorhombic:                                          NO

 *******************************************************************************
 *******************************************************************************
 **                                                                           **
 **     #####                         ##              ##                      **
 **    ##   ##            ##          ##              ##                      **
 **   ##     ##                       ##            ######                    **
 **   ##     ##  ##   ##  ##   #####  ##  ##   ####   ##    #####    #####    **
 **   ##     ##  ##   ##  ##  ##      ## ##   ##      ##   ##   ##  ##   ##   **
 **   ##  ## ##  ##   ##  ##  ##      ####     ###    ##   ######   ######    **
 **    ##  ###   ##   ##  ##  ##      ## ##      ##   ##   ##       ##        **
 **     #######   #####   ##   #####  ##  ##  ####    ##    #####   ##        **
 **           ##                                                    ##        **
 **                                                                           **
 **                                                ... make the atoms dance   **
 **                                                                           **
 **            Copyright (C) by CP2K developers group (2000 - 2018)           **
 **                                                                           **
 *******************************************************************************

 DFT| Spin unrestricted (spin-polarized) Kohn-Sham calculation               UKS
 DFT| Multiplicity                                                             1
 DFT| Number of spin states                                                    2
 DFT| Charge                                                                   0
 DFT| Self-interaction correction (SIC)                                       NO
 DFT| Cutoffs: density                                              1.000000E-10
 DFT|          gradient                                             1.000000E-10
 DFT|          tau                                                  1.000000E-10
 DFT|          cutoff_smoothing_range                               0.000000E+00
 DFT| XC density smoothing                                                  NONE
 DFT| XC derivatives                                                          PW
 FUNCTIONAL| ROUTINE=NEW
 FUNCTIONAL| PBE:
 FUNCTIONAL| J.P.Perdew, K.Burke, M.Ernzerhof, Phys. Rev. Letter, vol. 77, n 18,
 FUNCTIONAL|  pp. 3865-3868, (1996){spin polarized}                             
 vdW POTENTIAL|                                                   Pair Potential
 vdW POTENTIAL|          DFT-D3 (Version 3.1)
 vdW POTENTIAL|          Potential Form: S. Grimme et al, JCP 132: 154104 (2010)
 vdW POTENTIAL|          Zero Damping
 vdW POTENTIAL|          Cutoff Radius [Bohr]:                             18.90
 vdW POTENTIAL|          s6 Scaling Factor:                               1.0000
 vdW POTENTIAL|          sr6 Scaling Factor:                              1.2170
 vdW POTENTIAL|          s8 Scaling Factor:                               0.7220
 vdW POTENTIAL|          Cutoff for CN calculation:                   0.1000E-05

 QS| Method:                                                                 GPW
 QS| Density plane wave grid type                        NON-SPHERICAL FULLSPACE
 QS| Number of grid levels:                                                    5
 QS| Density cutoff [a.u.]:                                                600.0
 QS| Multi grid cutoff [a.u.]: 1) grid level                               600.0
 QS|                           2) grid level                               200.0
 QS|                           3) grid level                                66.7
 QS|                           4) grid level                                22.2
 QS|                           5) grid level                                 7.4
 QS| Grid level progression factor:                                          3.0
 QS| Relative density cutoff [a.u.]:                                        20.0
 QS| Consistent realspace mapping and integration 
 QS| Interaction thresholds: eps_pgf_orb:                                1.0E-07
 QS|                         eps_filter_matrix:                          0.0E+00
 QS|                         eps_core_charge:                            1.0E-16
 QS|                         eps_rho_gspace:                             1.0E-14
 QS|                         eps_rho_rspace:                             1.0E-14
 QS|                         eps_gvg_rspace:                             1.0E-07
 QS|                         eps_ppl:                                    1.0E-02
 QS|                         eps_ppnl:                                   1.0E-09


 ATOMIC KIND INFORMATION

  1. Atomic kind: N                                     Number of atoms:     100

     Orbital Basis Set                                        DZVP-MOLOPT-SR-GTH

       Number of orbital shell sets:                                           1
       Number of orbital shells:                                               5
       Number of primitive Cartesian functions:                                5
       Number of Cartesian basis functions:                                   14
       Number of spherical basis functions:                                   13
       Norm type:                                                              2

       Normalised Cartesian orbitals:

                        Set   Shell   Orbital            Exponent    Coefficient

                          1       1    2s                7.341988       0.360561
                                                         2.542637       0.139177
                                                         0.888575      -0.289383
                                                         0.333802      -0.182244
                                                         0.112012      -0.019197

                          1       2    3s                7.341988       0.282000
                                                         2.542637       0.177875
                                                         0.888575      -0.278381
                                                         0.333802       0.008577
                                                         0.112012       0.154176

                          1       3    3px               7.341988      -1.188719
                                                         2.542637      -0.973969
                                                         0.888575      -0.501079
                                                         0.333802      -0.144894
                                                         0.112012      -0.013986
                          1       3    3py               7.341988      -1.188719
                                                         2.542637      -0.973969
                                                         0.888575      -0.501079
                                                         0.333802      -0.144894
                                                         0.112012      -0.013986
                          1       3    3pz               7.341988      -1.188719
                                                         2.542637      -0.973969
                                                         0.888575      -0.501079
                                                         0.333802      -0.144894
                                                         0.112012      -0.013986

                          1       4    4px               7.341988      -0.094798
                                                         2.542637       0.050069
                                                         0.888575      -0.114797
                                                         0.333802       0.144793
                                                         0.112012       0.066710
                          1       4    4py               7.341988      -0.094798
                                                         2.542637       0.050069
                                                         0.888575      -0.114797
                                                         0.333802       0.144793
                                                         0.112012       0.066710
                          1       4    4pz               7.341988      -0.094798
                                                         2.542637       0.050069
                                                         0.888575      -0.114797
                                                         0.333802       0.144793
                                                         0.112012       0.066710

                          1       5    4dx2              7.341988       1.354688
                                                         2.542637       0.690378
                                                         0.888575       0.855359
                                                         0.333802       0.091746
                                                         0.112012       0.001253
                          1       5    4dxy              7.341988       2.346389
                                                         2.542637       1.195770
                                                         0.888575       1.481524
                                                         0.333802       0.158910
                                                         0.112012       0.002169
                          1       5    4dxz              7.341988       2.346389
                                                         2.542637       1.195770
                                                         0.888575       1.481524
                                                         0.333802       0.158910
                                                         0.112012       0.002169
                          1       5    4dy2              7.341988       1.354688
                                                         2.542637       0.690378
                                                         0.888575       0.855359
                                                         0.333802       0.091746
                                                         0.112012       0.001253
                          1       5    4dyz              7.341988       2.346389
                                                         2.542637       1.195770
                                                         0.888575       1.481524
                                                         0.333802       0.158910
                                                         0.112012       0.002169
                          1       5    4dz2              7.341988       1.354688
                                                         2.542637       0.690378
                                                         0.888575       0.855359
                                                         0.333802       0.091746
                                                         0.112012       0.001253

     GTH Potential information for                                    GTH-PBE-q5

       Description:                       Goedecker-Teter-Hutter pseudopotential
                                           Goedecker et al., PRB 54, 1703 (1996)
                                          Hartwigsen et al., PRB 58, 3641 (1998)
                                                      Krack, TCA 114, 145 (2005)

       Gaussian exponent of the core charge distribution:               6.208322
       Electronic configuration (s p d ...):                               2   3

       Parameters of the local part of the GTH pseudopotential:

                          rloc        C1          C2          C3          C4
                        0.283791  -12.415226    1.868096

       Parameters of the non-local part of the GTH pseudopotential:

                   l      r(l)      h(i,j,l)

                   0    0.255405   13.630263
                   1    0.245495

  2. Atomic kind: Ga                                    Number of atoms:     100

     Orbital Basis Set                                        DZVP-MOLOPT-SR-GTH

       Number of orbital shell sets:                                           1
       Number of orbital shells:                                               7
       Number of primitive Cartesian functions:                                6
       Number of Cartesian basis functions:                                   30
       Number of spherical basis functions:                                   25
       Norm type:                                                              2

       Normalised Cartesian orbitals:

                        Set   Shell   Orbital            Exponent    Coefficient

                          1       1    2s                7.066654       0.013136
                                                         3.428369      -0.094392
                                                         1.430064       0.265435
                                                         0.571611       0.056465
                                                         0.232197      -0.192187
                                                         0.076562      -0.044987

                          1       2    3s                7.066654      -0.098564
                                                         3.428369       0.010390
                                                         1.430064       0.351249
                                                         0.571611       0.182615
                                                         0.232197      -0.425358
                                                         0.076562       0.190349

                          1       3    3px               7.066654       0.002364
                                                         3.428369       0.019222
                                                         1.430064       0.250132
                                                         0.571611      -0.058486
                                                         0.232197      -0.159451
                                                         0.076562      -0.020696
                          1       3    3py               7.066654       0.002364
                                                         3.428369       0.019222
                                                         1.430064       0.250132
                                                         0.571611      -0.058486
                                                         0.232197      -0.159451
                                                         0.076562      -0.020696
                          1       3    3pz               7.066654       0.002364
                                                         3.428369       0.019222
                                                         1.430064       0.250132
                                                         0.571611      -0.058486
                                                         0.232197      -0.159451
                                                         0.076562      -0.020696

                          1       4    4px               7.066654       0.492448
                                                         3.428369      -0.614736
                                                         1.430064      -0.191654
                                                         0.571611       0.037801
                                                         0.232197       0.302315
                                                         0.076562      -0.071336
                          1       4    4py               7.066654       0.492448
                                                         3.428369      -0.614736
                                                         1.430064      -0.191654
                                                         0.571611       0.037801
                                                         0.232197       0.302315
                                                         0.076562      -0.071336
                          1       4    4pz               7.066654       0.492448
                                                         3.428369      -0.614736
                                                         1.430064      -0.191654
                                                         0.571611       0.037801
                                                         0.232197       0.302315
                                                         0.076562      -0.071336

                          1       5    4dx2              7.066654     -15.264855
                                                         3.428369      -5.345726
                                                         1.430064      -1.022732
                                                         0.571611      -0.123148
                                                         0.232197      -0.006983
                                                         0.076562      -0.000022
                          1       5    4dxy              7.066654     -26.439504
                                                         3.428369      -9.259069
                                                         1.430064      -1.771423
                                                         0.571611      -0.213299
                                                         0.232197      -0.012094
                                                         0.076562      -0.000037
                          1       5    4dxz              7.066654     -26.439504
                                                         3.428369      -9.259069
                                                         1.430064      -1.771423
                                                         0.571611      -0.213299
                                                         0.232197      -0.012094
                                                         0.076562      -0.000037
                          1       5    4dy2              7.066654     -15.264855
                                                         3.428369      -5.345726
                                                         1.430064      -1.022732
                                                         0.571611      -0.123148
                                                         0.232197      -0.006983
                                                         0.076562      -0.000022
                          1       5    4dyz              7.066654     -26.439504
                                                         3.428369      -9.259069
                                                         1.430064      -1.771423
                                                         0.571611      -0.213299
                                                         0.232197      -0.012094
                                                         0.076562      -0.000037
                          1       5    4dz2              7.066654     -15.264855
                                                         3.428369      -5.345726
                                                         1.430064      -1.022732
                                                         0.571611      -0.123148
                                                         0.232197      -0.006983
                                                         0.076562      -0.000022

                          1       6    5dx2              7.066654      -5.739265
                                                         3.428369      -2.129289
                                                         1.430064      -0.700423
                                                         0.571611       0.161606
                                                         0.232197       0.043513
                                                         0.076562       0.011205
                          1       6    5dxy              7.066654      -9.940698
                                                         3.428369      -3.688037
                                                         1.430064      -1.213168
                                                         0.571611       0.279909
                                                         0.232197       0.075368
                                                         0.076562       0.019407
                          1       6    5dxz              7.066654      -9.940698
                                                         3.428369      -3.688037
                                                         1.430064      -1.213168
                                                         0.571611       0.279909
                                                         0.232197       0.075368
                                                         0.076562       0.019407
                          1       6    5dy2              7.066654      -5.739265
                                                         3.428369      -2.129289
                                                         1.430064      -0.700423
                                                         0.571611       0.161606
                                                         0.232197       0.043513
                                                         0.076562       0.011205
                          1       6    5dyz              7.066654      -9.940698
                                                         3.428369      -3.688037
                                                         1.430064      -1.213168
                                                         0.571611       0.279909
                                                         0.232197       0.075368
                                                         0.076562       0.019407
                          1       6    5dz2              7.066654      -5.739265
                                                         3.428369      -2.129289
                                                         1.430064      -0.700423
                                                         0.571611       0.161606
                                                         0.232197       0.043513
                                                         0.076562       0.011205

                          1       7    5fx3              7.066654       0.705879
                                                         3.428369      -0.273976
                                                         1.430064       0.113667
                                                         0.571611       0.132480
                                                         0.232197       0.012437
                                                         0.076562       0.003241
                          1       7    5fx2y             7.066654       1.578393
                                                         3.428369      -0.612629
                                                         1.430064       0.254167
                                                         0.571611       0.296234
                                                         0.232197       0.027811
                                                         0.076562       0.007246
                          1       7    5fx2z             7.066654       1.578393
                                                         3.428369      -0.612629
                                                         1.430064       0.254167
                                                         0.571611       0.296234
                                                         0.232197       0.027811
                                                         0.076562       0.007246
                          1       7    5fxy2             7.066654       1.578393
                                                         3.428369      -0.612629
                                                         1.430064       0.254167
                                                         0.571611       0.296234
                                                         0.232197       0.027811
                                                         0.076562       0.007246
                          1       7    5fxyz             7.066654       2.733856
                                                         3.428369      -1.061105
                                                         1.430064       0.440230
                                                         0.571611       0.513092
                                                         0.232197       0.048170
                                                         0.076562       0.012551
                          1       7    5fxz2             7.066654       1.578393
                                                         3.428369      -0.612629
                                                         1.430064       0.254167
                                                         0.571611       0.296234
                                                         0.232197       0.027811
                                                         0.076562       0.007246
                          1       7    5fy3              7.066654       0.705879
                                                         3.428369      -0.273976
                                                         1.430064       0.113667
                                                         0.571611       0.132480
                                                         0.232197       0.012437
                                                         0.076562       0.003241
                          1       7    5fy2z             7.066654       1.578393
                                                         3.428369      -0.612629
                                                         1.430064       0.254167
                                                         0.571611       0.296234
                                                         0.232197       0.027811
                                                         0.076562       0.007246
                          1       7    5fyz2             7.066654       1.578393
                                                         3.428369      -0.612629
                                                         1.430064       0.254167
                                                         0.571611       0.296234
                                                         0.232197       0.027811
                                                         0.076562       0.007246
                          1       7    5fz3              7.066654       0.705879
                                                         3.428369      -0.273976
                                                         1.430064       0.113667
                                                         0.571611       0.132480
                                                         0.232197       0.012437
                                                         0.076562       0.003241

     GTH Potential information for                                   GTH-PBE-q13

       Description:                       Goedecker-Teter-Hutter pseudopotential
                                           Goedecker et al., PRB 54, 1703 (1996)
                                          Hartwigsen et al., PRB 58, 3641 (1998)
                                                      Krack, TCA 114, 145 (2005)

       Gaussian exponent of the core charge distribution:               2.082466
       Electronic configuration (s p d ...):                           2   1  10

       Parameters of the local part of the GTH pseudopotential:

                          rloc        C1          C2          C3          C4
                        0.490000

       Parameters of the non-local part of the GTH pseudopotential:

                   l      r(l)      h(i,j,l)

                   0    0.416777   10.475690   -4.921768    0.870706
                                   -4.921768    7.770178   -2.248152
                                    0.870706   -2.248152    1.784415
                   1    0.569627    1.777985    0.195860
                                    0.195860   -0.231744
                   2    0.238126  -16.248680

  3. Atomic kind: O                                     Number of atoms:       2

     Orbital Basis Set                                     DZVP-MOLOPT-SR-GTH-q6

       Number of orbital shell sets:                                           1
       Number of orbital shells:                                               5
       Number of primitive Cartesian functions:                                5
       Number of Cartesian basis functions:                                   14
       Number of spherical basis functions:                                   13
       Norm type:                                                              2

       Normalised Cartesian orbitals:

                        Set   Shell   Orbital            Exponent    Coefficient

                          1       1    2s               10.389228       0.396646
                                                         3.849621       0.208811
                                                         1.388401      -0.301641
                                                         0.496955      -0.274061
                                                         0.162492      -0.033677

                          1       2    3s               10.389228       0.303673
                                                         3.849621       0.240943
                                                         1.388401      -0.313066
                                                         0.496955      -0.043055
                                                         0.162492       0.213991

                          1       3    3px              10.389228      -1.530415
                                                         3.849621      -1.371928
                                                         1.388401      -0.761951
                                                         0.496955      -0.253695
                                                         0.162492      -0.035541
                          1       3    3py              10.389228      -1.530415
                                                         3.849621      -1.371928
                                                         1.388401      -0.761951
                                                         0.496955      -0.253695
                                                         0.162492      -0.035541
                          1       3    3pz              10.389228      -1.530415
                                                         3.849621      -1.371928
                                                         1.388401      -0.761951
                                                         0.496955      -0.253695
                                                         0.162492      -0.035541

                          1       4    4px              10.389228      -0.565392
                                                         3.849621      -0.038231
                                                         1.388401      -0.382373
                                                         0.496955       0.179070
                                                         0.162492       0.122714
                          1       4    4py              10.389228      -0.565392
                                                         3.849621      -0.038231
                                                         1.388401      -0.382373
                                                         0.496955       0.179070
                                                         0.162492       0.122714
                          1       4    4pz              10.389228      -0.565392
                                                         3.849621      -0.038231
                                                         1.388401      -0.382373
                                                         0.496955       0.179070
                                                         0.162492       0.122714

                          1       5    4dx2             10.389228       1.867377
                                                         3.849621       0.670994
                                                         1.388401       1.353441
                                                         0.496955       0.273538
                                                         0.162492       0.006620
                          1       5    4dxy             10.389228       3.234392
                                                         3.849621       1.162195
                                                         1.388401       2.344229
                                                         0.496955       0.473781
                                                         0.162492       0.011466
                          1       5    4dxz             10.389228       3.234392
                                                         3.849621       1.162195
                                                         1.388401       2.344229
                                                         0.496955       0.473781
                                                         0.162492       0.011466
                          1       5    4dy2             10.389228       1.867377
                                                         3.849621       0.670994
                                                         1.388401       1.353441
                                                         0.496955       0.273538
                                                         0.162492       0.006620
                          1       5    4dyz             10.389228       3.234392
                                                         3.849621       1.162195
                                                         1.388401       2.344229
                                                         0.496955       0.473781
                                                         0.162492       0.011466
                          1       5    4dz2             10.389228       1.867377
                                                         3.849621       0.670994
                                                         1.388401       1.353441
                                                         0.496955       0.273538
                                                         0.162492       0.006620

     GTH Potential information for                                    GTH-PBE-q6

       Description:                       Goedecker-Teter-Hutter pseudopotential
                                           Goedecker et al., PRB 54, 1703 (1996)
                                          Hartwigsen et al., PRB 58, 3641 (1998)
                                                      Krack, TCA 114, 145 (2005)

       Gaussian exponent of the core charge distribution:               8.360253
       Electronic configuration (s p d ...):                               2   4

       Parameters of the local part of the GTH pseudopotential:

                          rloc        C1          C2          C3          C4
                        0.244554  -16.667215    2.487311

       Parameters of the non-local part of the GTH pseudopotential:

                   l      r(l)      h(i,j,l)

                   0    0.220956   18.337458
                   1    0.211332

  4. Atomic kind: H                                     Number of atoms:       8

     Orbital Basis Set                                     DZVP-MOLOPT-SR-GTH-q1

       Number of orbital shell sets:                                           1
       Number of orbital shells:                                               3
       Number of primitive Cartesian functions:                                5
       Number of Cartesian basis functions:                                    5
       Number of spherical basis functions:                                    5
       Norm type:                                                              2

       Normalised Cartesian orbitals:

                        Set   Shell   Orbital            Exponent    Coefficient

                          1       1    2s               10.068468      -0.133023
                                                         2.680223      -0.177618
                                                         0.791502      -0.258419
                                                         0.239116      -0.107525
                                                         0.082193      -0.014019

                          1       2    3s               10.068468       0.344673
                                                         2.680223       1.819821
                                                         0.791502      -0.999069
                                                         0.239116       0.017430
                                                         0.082193       0.082660

                          1       3    3px              10.068468       0.155326
                                                         2.680223       0.367157
                                                         0.791502       0.311480
                                                         0.239116       0.080105
                                                         0.082193       0.033440
                          1       3    3py              10.068468       0.155326
                                                         2.680223       0.367157
                                                         0.791502       0.311480
                                                         0.239116       0.080105
                                                         0.082193       0.033440
                          1       3    3pz              10.068468       0.155326
                                                         2.680223       0.367157
                                                         0.791502       0.311480
                                                         0.239116       0.080105
                                                         0.082193       0.033440

     GTH Potential information for                                    GTH-PBE-q1

       Description:                       Goedecker-Teter-Hutter pseudopotential
                                           Goedecker et al., PRB 54, 1703 (1996)
                                          Hartwigsen et al., PRB 58, 3641 (1998)
                                                      Krack, TCA 114, 145 (2005)

       Gaussian exponent of the core charge distribution:              12.500000
       Electronic configuration (s p d ...):                                   1

       Parameters of the local part of the GTH pseudopotential:

                          rloc        C1          C2          C3          C4
                        0.200000   -4.178900    0.724463

  5. Atomic kind: C                                     Number of atoms:       2

     Orbital Basis Set                                     DZVP-MOLOPT-SR-GTH-q4

       Number of orbital shell sets:                                           1
       Number of orbital shells:                                               5
       Number of primitive Cartesian functions:                                5
       Number of Cartesian basis functions:                                   14
       Number of spherical basis functions:                                   13
       Norm type:                                                              2

       Normalised Cartesian orbitals:

                        Set   Shell   Orbital            Exponent    Coefficient

                          1       1    2s                5.605331       0.322515
                                                         2.113016       0.213043
                                                         0.769911      -0.209686
                                                         0.348157      -0.219794
                                                         0.128212      -0.022789

                          1       2    3s                5.605331       0.552234
                                                         2.113016       0.082072
                                                         0.769911       0.007843
                                                         0.348157       0.136893
                                                         0.128212       0.074283

                          1       3    3px               5.605331      -0.703879
                                                         2.113016      -0.642521
                                                         0.769911      -0.374851
                                                         0.348157      -0.139743
                                                         0.128212      -0.027849
                          1       3    3py               5.605331      -0.703879
                                                         2.113016      -0.642521
                                                         0.769911      -0.374851
                                                         0.348157      -0.139743
                                                         0.128212      -0.027849
                          1       3    3pz               5.605331      -0.703879
                                                         2.113016      -0.642521
                                                         0.769911      -0.374851
                                                         0.348157      -0.139743
                                                         0.128212      -0.027849

                          1       4    4px               5.605331      -0.480376
                                                         2.113016      -0.552894
                                                         0.769911      -0.316145
                                                         0.348157       0.210505
                                                         0.128212       0.076095
                          1       4    4py               5.605331      -0.480376
                                                         2.113016      -0.552894
                                                         0.769911      -0.316145
                                                         0.348157       0.210505
                                                         0.128212       0.076095
                          1       4    4pz               5.605331      -0.480376
                                                         2.113016      -0.552894
                                                         0.769911      -0.316145
                                                         0.348157       0.210505
                                                         0.128212       0.076095

                          1       5    4dx2              5.605331       0.640026
                                                         2.113016       0.274300
                                                         0.769911       0.446711
                                                         0.348157       0.028674
                                                         0.128212       0.029790
                          1       5    4dxy              5.605331       1.108557
                                                         2.113016       0.475102
                                                         0.769911       0.773726
                                                         0.348157       0.049666
                                                         0.128212       0.051599
                          1       5    4dxz              5.605331       1.108557
                                                         2.113016       0.475102
                                                         0.769911       0.773726
                                                         0.348157       0.049666
                                                         0.128212       0.051599
                          1       5    4dy2              5.605331       0.640026
                                                         2.113016       0.274300
                                                         0.769911       0.446711
                                                         0.348157       0.028674
                                                         0.128212       0.029790
                          1       5    4dyz              5.605331       1.108557
                                                         2.113016       0.475102
                                                         0.769911       0.773726
                                                         0.348157       0.049666
                                                         0.128212       0.051599
                          1       5    4dz2              5.605331       0.640026
                                                         2.113016       0.274300
                                                         0.769911       0.446711
                                                         0.348157       0.028674
                                                         0.128212       0.029790

     GTH Potential information for                                    GTH-PBE-q4

       Description:                       Goedecker-Teter-Hutter pseudopotential
                                           Goedecker et al., PRB 54, 1703 (1996)
                                          Hartwigsen et al., PRB 58, 3641 (1998)
                                                      Krack, TCA 114, 145 (2005)

       Gaussian exponent of the core charge distribution:               4.364419
       Electronic configuration (s p d ...):                               2   2

       Parameters of the local part of the GTH pseudopotential:

                          rloc        C1          C2          C3          C4
                        0.338471   -8.803674    1.339211

       Parameters of the non-local part of the GTH pseudopotential:

                   l      r(l)      h(i,j,l)

                   0    0.302576    9.622487
                   1    0.291507


 MOLECULE KIND INFORMATION


 All atoms are their own molecule, skipping detailed information


 TOTAL NUMBERS AND MAXIMUM NUMBERS

  Total number of            - Atomic kinds:                                   5
                             - Atoms:                                        212
                             - Shell sets:                                   212
                             - Shells:                                      1244
                             - Primitive Cartesian functions:               1160
                             - Cartesian basis functions:                   4496
                             - Spherical basis functions:                   3892

  Maximum angular momentum of- Orbital basis functions:                        3
                             - Local part of the GTH pseudopotential:          2
                             - Non-local part of the GTH pseudopotential:      4


 MODULE QUICKSTEP:  ATOMIC COORDINATES IN angstrom

  Atom  Kind  Element       X           Y           Z          Z(eff)       Mass

       1     1 N    7    0.076687    1.980416    2.494046      5.00      14.0067
       2     2 Ga  31    0.061875    0.010891    2.826595     13.00      69.7230
       3     1 N    7    0.080167   -0.021981    5.015907      5.00      14.0067
       4     2 Ga  31    0.078929    1.803309    5.799457     13.00      69.7230
       5     1 N    7    0.077241    1.818901    7.801243      5.00      14.0067
       6     2 Ga  31    0.074867   -0.026286    8.443840     13.00      69.7230
       7     1 N    7    0.075903   -0.027206   10.419326      5.00      14.0067
       8     2 Ga  31    0.075943    1.813060   11.068569     13.00      69.7230
       9     1 N    7    0.075904    1.793661   13.062953      5.00      14.0067
      10     2 Ga  31    0.076001   -0.025712   13.866646     13.00      69.7230
      11     1 N    7    0.075718   -0.024746   16.068881      5.00      14.0067
      12     2 Ga  31    0.075441    2.020424   16.481454     13.00      69.7230
      13     2 Ga  31    0.046784    3.683811    1.369176     13.00      69.7230
      14     1 N    7   -1.409315    4.550990    2.525506      5.00      14.0067
      15     2 Ga  31   -1.603355    2.708032    3.282159     13.00      69.7230
      16     1 N    7   -1.531954    2.757726    5.259472      5.00      14.0067
      17     2 Ga  31   -1.560251    4.623058    5.808914     13.00      69.7230
      18     1 N    7   -1.541546    4.622526    7.803953      5.00      14.0067
      19     2 Ga  31   -1.522319    2.761548    8.436391     13.00      69.7230
      20     1 N    7   -1.521018    2.765506   10.431712      5.00      14.0067
      21     2 Ga  31   -1.547259    4.623104   11.071948     13.00      69.7230
      22     1 N    7   -1.563991    4.633775   13.065482      5.00      14.0067
      23     2 Ga  31   -1.521199    2.764116   13.620136     13.00      69.7230
      24     1 N    7   -1.547615    2.748357   15.581883      5.00      14.0067
      25     2 Ga  31   -1.374502    4.524141   16.481097     13.00      69.7230
      26     1 N    7    0.075078    3.695309   17.616454      5.00      14.0067
      27     1 N    7   -3.133051    7.522596    2.529293      5.00      14.0067
      28     2 Ga  31   -3.112258    5.518455    2.853147     13.00      69.7230
      29     1 N    7   -3.138182    5.544653    5.022253      5.00      14.0067
      30     2 Ga  31   -3.145766    7.365127    5.808314     13.00      69.7230
      31     1 N    7   -3.138489    7.390272    7.799664      5.00      14.0067
      32     2 Ga  31   -3.139944    5.543196    8.450422     13.00      69.7230
      33     1 N    7   -3.140231    5.544748   10.422593      5.00      14.0067
      34     2 Ga  31   -3.141560    7.383807   11.072796     13.00      69.7230
      35     1 N    7   -3.140527    7.364535   13.065319      5.00      14.0067
      36     2 Ga  31   -3.140278    5.544265   13.868495     13.00      69.7230
      37     1 N    7   -3.140483    5.545808   16.069453      5.00      14.0067
      38     2 Ga  31   -3.140774    7.590853   16.481677     13.00      69.7230
      39     2 Ga  31   -3.152183    9.260149    1.498987     13.00      69.7230
      40     1 N    7   -4.641103   10.126628    2.517578      5.00      14.0067
      41     2 Ga  31   -4.858222    8.275818    3.290045     13.00      69.7230
      42     1 N    7   -4.745828    8.330306    5.251580      5.00      14.0067
      43     2 Ga  31   -4.777669   10.205096    5.799752     13.00      69.7230
      44     1 N    7   -4.756832   10.191732    7.797362      5.00      14.0067
      45     2 Ga  31   -4.740341    8.336098    8.437187     13.00      69.7230
      46     1 N    7   -4.736746    8.335905   10.430768      5.00      14.0067
      47     2 Ga  31   -4.763451   10.194976   11.070098     13.00      69.7230
      48     1 N    7   -4.779708   10.204161   13.064328      5.00      14.0067
      49     2 Ga  31   -4.737705    8.335388   13.621372     13.00      69.7230
      50     1 N    7   -4.763988    8.319010   15.582828      5.00      14.0067
      51     2 Ga  31   -4.591027   10.095409   16.480424     13.00      69.7230
      52     1 N    7   -3.141291    9.266538   17.615076      5.00      14.0067
      53     1 N    7    3.283032    1.835972    2.617511      5.00      14.0067
      54     2 Ga  31    3.285367    0.096475    3.289508     13.00      69.7230
      55     1 N    7    3.294812   -0.029160    5.251917      5.00      14.0067
      56     2 Ga  31    3.285911    1.832856    5.874984     13.00      69.7230
      57     1 N    7    3.293159    1.829212    7.851256      5.00      14.0067
      58     2 Ga  31    3.290776   -0.036517    8.440186     13.00      69.7230
      59     1 N    7    3.292429   -0.038866   10.433246      5.00      14.0067
      60     2 Ga  31    3.292414    1.831389   11.027440     13.00      69.7230
      61     1 N    7    3.292252    1.830270   12.999124      5.00      14.0067
      62     2 Ga  31    3.291795   -0.039175   13.621740     13.00      69.7230
      63     1 N    7    3.291777   -0.006951   15.584312      5.00      14.0067
      64     2 Ga  31    3.291708    1.830977   15.861738     13.00      69.7230
      65     1 N    7    1.568546    4.554287    2.520055      5.00      14.0067
      66     2 Ga  31    1.755036    2.721726    3.269486     13.00      69.7230
      67     1 N    7    1.686788    2.758210    5.253140      5.00      14.0067
      68     2 Ga  31    1.717405    4.622957    5.809096     13.00      69.7230
      69     1 N    7    1.694234    4.621524    7.805010      5.00      14.0067
      70     2 Ga  31    1.674472    2.762571    8.439355     13.00      69.7230
      71     1 N    7    1.673742    2.765251   10.433473      5.00      14.0067
      72     2 Ga  31    1.699977    4.623669   11.071563     13.00      69.7230
      73     1 N    7    1.716020    4.633916   13.065305      5.00      14.0067
      74     2 Ga  31    1.672580    2.764548   13.620660     13.00      69.7230
      75     1 N    7    1.698874    2.748426   15.582333      5.00      14.0067
      76     2 Ga  31    1.524886    4.523846   16.481234     13.00      69.7230
      77     1 N    7    0.078391    7.383816    2.695386      5.00      14.0067
      78     2 Ga  31    0.086511    5.542285    3.337346     13.00      69.7230
      79     1 N    7    0.077467    5.556956    5.274585      5.00      14.0067
      80     2 Ga  31    0.084863    7.398034    5.906983     13.00      69.7230
      81     1 N    7    0.077392    7.402399    7.865900      5.00      14.0067
      82     2 Ga  31    0.076914    5.529113    8.446703     13.00      69.7230
      83     1 N    7    0.076037    5.531836   10.437233      5.00      14.0067
      84     2 Ga  31    0.076711    7.401491   11.030027     13.00      69.7230
      85     1 N    7    0.075897    7.401342   13.000592      5.00      14.0067
      86     2 Ga  31    0.076068    5.530792   13.621859     13.00      69.7230
      87     1 N    7    0.075737    5.563280   15.584435      5.00      14.0067
      88     2 Ga  31    0.075796    7.400987   15.862448     13.00      69.7230
      89     1 N    7   -1.633207   10.115005    2.524220      5.00      14.0067
      90     2 Ga  31   -1.490343    8.301701    3.335965     13.00      69.7230
      91     1 N    7   -1.518666    8.322019    5.263019      5.00      14.0067
      92     2 Ga  31   -1.505357   10.207865    5.811036     13.00      69.7230
      93     1 N    7   -1.522403   10.189746    7.801605      5.00      14.0067
      94     2 Ga  31   -1.543460    8.335955    8.448387     13.00      69.7230
      95     1 N    7   -1.543600    8.336057   10.436905      5.00      14.0067
      96     2 Ga  31   -1.517291   10.196062   11.072729     13.00      69.7230
      97     1 N    7   -1.500396   10.204576   13.065823      5.00      14.0067
      98     2 Ga  31   -1.543613    8.335521   13.622219     13.00      69.7230
      99     1 N    7   -1.516982    8.319004   15.583526      5.00      14.0067
     100     2 Ga  31   -1.691220   10.095003   16.480814     13.00      69.7230
     101     1 N    7    6.508409    1.954068    2.537895      5.00      14.0067
     102     2 Ga  31    6.525993   -0.026276    2.864294     13.00      69.7230
     103     1 N    7    6.505925   -0.026780    5.025437      5.00      14.0067
     104     2 Ga  31    6.508112    1.803317    5.805651     13.00      69.7230
     105     1 N    7    6.508291    1.818293    7.801486      5.00      14.0067
     106     2 Ga  31    6.510578   -0.026968    8.447666     13.00      69.7230
     107     1 N    7    6.508740   -0.027106   10.420731      5.00      14.0067
     108     2 Ga  31    6.509024    1.813977   11.069407     13.00      69.7230
     109     1 N    7    6.508294    1.793717   13.063428      5.00      14.0067
     110     2 Ga  31    6.508236   -0.025503   13.868050     13.00      69.7230
     111     1 N    7    6.507540   -0.024959   16.069500      5.00      14.0067
     112     2 Ga  31    6.507790    2.019341   16.479933     13.00      69.7230
     113     2 Ga  31    6.513283    3.685949    1.533395     13.00      69.7230
     114     1 N    7    5.007427    4.553166    2.530805      5.00      14.0067
     115     2 Ga  31    4.790605    2.701860    3.298191     13.00      69.7230
     116     1 N    7    4.899008    2.758038    5.259101      5.00      14.0067
     117     2 Ga  31    4.874876    4.630906    5.805268     13.00      69.7230
     118     1 N    7    4.891554    4.621294    7.801797      5.00      14.0067
     119     2 Ga  31    4.909572    2.763831    8.439680     13.00      69.7230
     120     1 N    7    4.911551    2.765471   10.433036      5.00      14.0067
     121     2 Ga  31    4.886294    4.624765   11.070005     13.00      69.7230
     122     1 N    7    4.868830    4.633913   13.064411      5.00      14.0067
     123     2 Ga  31    4.911440    2.764741   13.620318     13.00      69.7230
     124     1 N    7    4.885001    2.748607   15.582473      5.00      14.0067
     125     2 Ga  31    5.056677    4.525093   16.479191     13.00      69.7230
     126     1 N    7    6.507951    3.696044   17.612821      5.00      14.0067
     127     1 N    7    3.289017    7.516625    2.494934      5.00      14.0067
     128     1 N    7    3.293557    5.542919    5.029735      5.00      14.0067
     129     2 Ga  31    3.297327    7.369300    5.798078     13.00      69.7230
     130     1 N    7    3.290527    7.391464    7.795456      5.00      14.0067
     131     2 Ga  31    3.293052    5.545311    8.447640     13.00      69.7230
     132     1 N    7    3.292631    5.545130   10.421319      5.00      14.0067
     133     2 Ga  31    3.294464    7.384123   11.071468     13.00      69.7230
     134     1 N    7    3.292587    7.364461   13.064762      5.00      14.0067
     135     2 Ga  31    3.292400    5.544161   13.867800     13.00      69.7230
     136     1 N    7    3.291508    5.545500   16.069443      5.00      14.0067
     137     2 Ga  31    3.291810    7.589415   16.480340     13.00      69.7230
     138     2 Ga  31    3.332531    9.289811    1.341703     13.00      69.7230
     139     1 N    7    1.784590   10.122835    2.509141      5.00      14.0067
     140     2 Ga  31    1.677530    8.315418    3.290596     13.00      69.7230
     141     1 N    7    1.671993    8.320601    5.238232      5.00      14.0067
     142     2 Ga  31    1.661937   10.201521    5.798266     13.00      69.7230
     143     1 N    7    1.674197   10.188237    7.795038      5.00      14.0067
     144     2 Ga  31    1.698244    8.336863    8.447216     13.00      69.7230
     145     1 N    7    1.696232    8.336419   10.436593      5.00      14.0067
     146     2 Ga  31    1.670823   10.196347   11.071861     13.00      69.7230
     147     1 N    7    1.652551   10.204631   13.065478      5.00      14.0067
     148     2 Ga  31    1.695568    8.335353   13.621321     13.00      69.7230
     149     1 N    7    1.668907    8.319212   15.583266      5.00      14.0067
     150     2 Ga  31    1.840579   10.096023   16.479324     13.00      69.7230
     151     1 N    7    3.292100    9.266787   17.613194      5.00      14.0067
     152     1 N    7    9.735755    1.829474    2.629890      5.00      14.0067
     153     2 Ga  31    9.729578    0.069621    3.266470     13.00      69.7230
     154     1 N    7    9.722310   -0.029943    5.244454      5.00      14.0067
     155     2 Ga  31    9.730968    1.825039    5.870371     13.00      69.7230
     156     1 N    7    9.724035    1.828767    7.849023      5.00      14.0067
     157     2 Ga  31    9.726653   -0.038356    8.432841     13.00      69.7230
     158     1 N    7    9.724339   -0.039321   10.429284      5.00      14.0067
     159     2 Ga  31    9.724785    1.830560   11.024699     13.00      69.7230
     160     1 N    7    9.723963    1.830114   12.997357      5.00      14.0067
     161     2 Ga  31    9.724831   -0.038915   13.620856     13.00      69.7230
     162     1 N    7    9.723943   -0.007223   15.584068      5.00      14.0067
     163     2 Ga  31    9.724263    1.831007   15.861998     13.00      69.7230
     164     1 N    7    8.012296    4.553855    2.538476      5.00      14.0067
     165     2 Ga  31    8.228972    2.694907    3.301042     13.00      69.7230
     166     1 N    7    8.117669    2.757575    5.261188      5.00      14.0067
     167     2 Ga  31    8.141369    4.629918    5.802753     13.00      69.7230
     168     1 N    7    8.127087    4.622347    7.799526      5.00      14.0067
     169     2 Ga  31    8.108613    2.763575    8.436898     13.00      69.7230
     170     1 N    7    8.105521    2.765745   10.431321      5.00      14.0067
     171     2 Ga  31    8.130392    4.624014   11.070620     13.00      69.7230
     172     1 N    7    8.147739    4.633905   13.064737      5.00      14.0067
     173     2 Ga  31    8.105189    2.764658   13.620142     13.00      69.7230
     174     1 N    7    8.130897    2.748353   15.582438      5.00      14.0067
     175     2 Ga  31    7.958923    4.525187   16.479188     13.00      69.7230
     176     1 N    7    6.504342    7.403031    2.610558      5.00      14.0067
     177     2 Ga  31    6.504541    5.666119    3.296140     13.00      69.7230
     178     1 N    7    6.508745    5.546334    5.256704      5.00      14.0067
     179     2 Ga  31    6.502133    7.405694    5.870080     13.00      69.7230
     180     1 N    7    6.508207    7.401874    7.846138      5.00      14.0067
     181     2 Ga  31    6.508957    5.534469    8.437813     13.00      69.7230
     182     1 N    7    6.508743    5.532728   10.431825      5.00      14.0067
     183     2 Ga  31    6.508000    7.402271   11.025747     13.00      69.7230
     184     1 N    7    6.508033    7.401337   12.997874      5.00      14.0067
     185     2 Ga  31    6.508254    5.531581   13.620810     13.00      69.7230
     186     1 N    7    6.507676    5.563307   15.584060      5.00      14.0067
     187     2 Ga  31    6.508011    7.401229   15.862565     13.00      69.7230
     188     1 N    7    4.803022   10.130786    2.517559      5.00      14.0067
     189     2 Ga  31    4.978080    8.282322    3.257471     13.00      69.7230
     190     1 N    7    4.898393    8.328684    5.237939      5.00      14.0067
     191     2 Ga  31    4.927781   10.201245    5.786377     13.00      69.7230
     192     1 N    7    4.911057   10.191560    7.790878      5.00      14.0067
     193     2 Ga  31    4.890890    8.337476    8.433475     13.00      69.7230
     194     1 N    7    4.889314    8.336022   10.428947      5.00      14.0067
     195     2 Ga  31    4.914662   10.194701   11.068658     13.00      69.7230
     196     1 N    7    4.931631   10.204228   13.063653      5.00      14.0067
     197     2 Ga  31    4.889359    8.335655   13.620939     13.00      69.7230
     198     1 N    7    4.914899    8.319097   15.583067      5.00      14.0067
     199     2 Ga  31    4.743230   10.096238   16.479177     13.00      69.7230
     200     3 O    8    0.069135    4.071371   -0.430663      6.00      15.9994
     201     4 H    1   -0.113414    5.859244   -0.338533      1.00       1.0079
     202     5 C    6    1.245535    3.654983   -1.151930      4.00      12.0107
     203     4 H    1    2.174285    3.995799   -0.665280      1.00       1.0079
     204     4 H    1    1.286295    2.559669   -1.251644      1.00       1.0079
     205     4 H    1    1.194152    4.094029   -2.158342      1.00       1.0079
     206     2 Ga  31    3.265127    5.537858    2.855268     13.00      69.7230
     207     3 O    8   -0.091350    6.846233   -0.210113      6.00      15.9994
     208     4 H    1    0.029662    7.312246    1.658093      1.00       1.0079
     209     5 C    6    1.150534    7.309300   -0.757969      4.00      12.0107
     210     4 H    1    1.130852    8.408051   -0.733771      1.00       1.0079
     211     4 H    1    2.015642    6.962513   -0.164574      1.00       1.0079
     212     4 H    1    1.283335    6.991700   -1.802990      1.00       1.0079




 SCF PARAMETERS         Density guess:                                    ATOMIC
                        --------------------------------------------------------
                        max_scf:                                              80
                        max_scf_history:                                       0
                        max_diis:                                              4
                        --------------------------------------------------------
                        eps_scf:                                        5.00E-06
                        eps_scf_history:                                0.00E+00
                        eps_diis:                                       1.00E-01
                        eps_eigval:                                     1.00E-05
                        --------------------------------------------------------
                        level_shift [a.u.]:                                 0.00
                        --------------------------------------------------------
                        Outer loop SCF in use 
                        No variables optimised in outer loop
                        eps_scf                                         5.00E-06
                        max_scf                                                4
                        No outer loop optimization
                        step_size                                       5.00E-01

 PW_GRID| Information for grid number                                          1
 PW_GRID| Grid distributed over                                    80 processors
 PW_GRID| Real space group dimensions                                    80    1
 PW_GRID| the grid is blocked:                                                NO
 PW_GRID| Cutoff [a.u.]                                                    600.0
 PW_GRID| spherical cutoff:                                                   NO
 PW_GRID|   Bounds   1           -144     143                Points:         288
 PW_GRID|   Bounds   2           -144     143                Points:         288
 PW_GRID|   Bounds   3           -337     337                Points:         675
 PW_GRID| Volume element (a.u.^3)  0.5630E-03     Volume (a.u.^3)     31519.8467
 PW_GRID| Grid span                                                    FULLSPACE
 PW_GRID|   Distribution                         Average         Max         Min
 PW_GRID|   G-Vectors                           699840.0      699840      699840
 PW_GRID|   G-Rays                                2430.0        2430        2430
 PW_GRID|   Real Space Points                   699840.0      777600      583200

 PW_GRID| Information for grid number                                          2
 PW_GRID| Grid distributed over                                    80 processors
 PW_GRID| Real space group dimensions                                    80    1
 PW_GRID| the grid is blocked:                                                NO
 PW_GRID| Cutoff [a.u.]                                                    200.0
 PW_GRID| spherical cutoff:                                                   NO
 PW_GRID|   Bounds   1            -80      79                Points:         160
 PW_GRID|   Bounds   2            -80      79                Points:         160
 PW_GRID|   Bounds   3           -200     199                Points:         400
 PW_GRID| Volume element (a.u.^3)  0.3078E-02     Volume (a.u.^3)     31519.8467
 PW_GRID| Grid span                                                    FULLSPACE
 PW_GRID|   Distribution                         Average         Max         Min
 PW_GRID|   G-Vectors                           128000.0      128160      127840
 PW_GRID|   G-Rays                                 800.0         801         799
 PW_GRID|   Real Space Points                   128000.0      128000      128000

 PW_GRID| Information for grid number                                          3
 PW_GRID| Grid distributed over                                    80 processors
 PW_GRID| Real space group dimensions                                    80    1
 PW_GRID| the grid is blocked:                                                NO
 PW_GRID| Cutoff [a.u.]                                                     66.7
 PW_GRID| spherical cutoff:                                                   NO
 PW_GRID|   Bounds   1            -48      47                Points:          96
 PW_GRID|   Bounds   2            -48      47                Points:          96
 PW_GRID|   Bounds   3           -112     112                Points:         225
 PW_GRID| Volume element (a.u.^3)  0.1520E-01     Volume (a.u.^3)     31519.8467
 PW_GRID| Grid span                                                    FULLSPACE
 PW_GRID|   Distribution                         Average         Max         Min
[...]
 flops    13 x    25 x    50         117553150000     100.0%      0.0%      0.0%
 flops    25 x    13 x    50         117733915000     100.0%      0.0%      0.0%
 flops   242 x    64 x   178         148385447936     100.0%      0.0%      0.0%
 flops   242 x    64 x   183         152553578496     100.0%      0.0%      0.0%
 flops   973 x    32 x    50         154808192000     100.0%      0.0%      0.0%
 flops   973 x    50 x    32         154808192000     100.0%      0.0%      0.0%
 flops   242 x    64 x   195         162557091840     100.0%      0.0%      0.0%
 flops   242 x    32 x    32         163956711424     100.0%      0.0%      0.0%
 flops    25 x    18 x    13         174720124800     100.0%      0.0%      0.0%
 flops    13 x    18 x    25         174720124800     100.0%      0.0%      0.0%
 flops   955 x    32 x   178         183817666560     100.0%      0.0%      0.0%
 flops   955 x    32 x   183         188981084160     100.0%      0.0%      0.0%
 flops   991 x    32 x   178         190746918912     100.0%      0.0%      0.0%
 flops   991 x    32 x   183         196104978432     100.0%      0.0%      0.0%
 flops   955 x    32 x   195         201373286400     100.0%      0.0%      0.0%
 flops   991 x    32 x   195         208964321280     100.0%      0.0%      0.0%
 flops   973 x    64 x    50         225175552000     100.0%      0.0%      0.0%
 flops   973 x    50 x    64         225175552000     100.0%      0.0%      0.0%
 flops    25 x    25 x    50         225987500000     100.0%      0.0%      0.0%
 flops   242 x    64 x    32         238482489344     100.0%      0.0%      0.0%
 flops   242 x    32 x    64         238482489344     100.0%      0.0%      0.0%
 flops     5 x    32 x    25         245201600000     100.0%      0.0%      0.0%
 flops    25 x    32 x     5         245201600000     100.0%      0.0%      0.0%
 flops   955 x    64 x   178         267371151360     100.0%      0.0%      0.0%
 flops   955 x    64 x   183         274881576960     100.0%      0.0%      0.0%
 flops   991 x    64 x   178         277450063872     100.0%      0.0%      0.0%
 flops   224 x    32 x   178         283281309696     100.0%      0.0%      0.0%
 flops   991 x    64 x   183         285243604992     100.0%      0.0%      0.0%
 flops   224 x    32 x   183         291238649856     100.0%      0.0%      0.0%
 flops   955 x    64 x   195         292906598400     100.0%      0.0%      0.0%
 flops   991 x    64 x   195         303948103680     100.0%      0.0%      0.0%
 flops   224 x    32 x   195         310336266240     100.0%      0.0%      0.0%
 flops    25 x    18 x    25         332325000000     100.0%      0.0%      0.0%
 flops   242 x    64 x    64         346883620864     100.0%      0.0%      0.0%
 flops   973 x    32 x   178         374564585472     100.0%      0.0%      0.0%
 flops   973 x    32 x   183         385086062592     100.0%      0.0%      0.0%
 flops   973 x    32 x   195         410337607680     100.0%      0.0%      0.0%
 flops   224 x    64 x   178         412045541376     100.0%      0.0%      0.0%
 flops    13 x    13 x    32         417926519296     100.0%      0.0%      0.0%
 flops   224 x    64 x   183         423619854336     100.0%      0.0%      0.0%
 flops   224 x    64 x   195         451398205440     100.0%      0.0%      0.0%
 flops   224 x    32 x    32         455284752384     100.0%      0.0%      0.0%
 flops   955 x    32 x    32         534844006400     100.0%      0.0%      0.0%
 flops   973 x    64 x   178         544821215232     100.0%      0.0%      0.0%
 flops   991 x    32 x    32         555005665280     100.0%      0.0%      0.0%
 flops   973 x    64 x   183         560125181952     100.0%      0.0%      0.0%
 flops   973 x    64 x   195         596854702080     100.0%      0.0%      0.0%
 flops    13 x    13 x    64         607893118976     100.0%      0.0%      0.0%
 flops   224 x    32 x    64         662232367104     100.0%      0.0%      0.0%
 flops   224 x    64 x    32         662232367104     100.0%      0.0%      0.0%
 flops   955 x    32 x    64         777954918400     100.0%      0.0%      0.0%
 flops   955 x    64 x    32         777954918400     100.0%      0.0%      0.0%
 flops   991 x    32 x    64         807280967680     100.0%      0.0%      0.0%
 flops   991 x    64 x    32         807280967680     100.0%      0.0%      0.0%
 flops    13 x    25 x    32         827574176000     100.0%      0.0%      0.0%
 flops    25 x    13 x    32         828846761600     100.0%      0.0%      0.0%
 flops   224 x    64 x    64         963247079424     100.0%      0.0%      0.0%
 flops   973 x    32 x    32        1089849671680     100.0%      0.0%      0.0%
 flops   955 x    64 x    64        1131570790400     100.0%      0.0%      0.0%
 flops   991 x    64 x    64        1174226862080     100.0%      0.0%      0.0%
 flops    13 x    25 x    64        1203744256000     100.0%      0.0%      0.0%
 flops    25 x    13 x    64        1205595289600     100.0%      0.0%      0.0%
 flops   973 x    64 x    32        1585235886080     100.0%      0.0%      0.0%
 flops   973 x    32 x    64        1585235886080     100.0%      0.0%      0.0%
 flops    25 x    25 x    32        1590952000000     100.0%      0.0%      0.0%
 flops   973 x    64 x    64        2305797652480     100.0%      0.0%      0.0%
 flops    25 x    25 x    64        2314112000000     100.0%      0.0%      0.0%
 flops    13 x    32 x    13        4342451463168     100.0%      0.0%      0.0%
 flops    25 x    32 x    13        8697179545600     100.0%      0.0%      0.0%
 flops    13 x    32 x    25        8697179545600     100.0%      0.0%      0.0%
 flops    25 x    32 x    25       16542400000000     100.0%      0.0%      0.0%
 flops inhomo. stacks              27685695749152     100.0%      0.0%      0.0%
 flops total                       105.208612E+12     100.0%      0.0%      0.0%
 flops max/rank                      1.826728E+12     100.0%      0.0%      0.0%
 matmuls inhomo. stacks                   2744000     100.0%      0.0%      0.0%
 matmuls total                         2143925098     100.0%      0.0%      0.0%
 number of processed stacks              37893408     100.0%      0.0%      0.0%
 average stack size                                    56.6       0.0       0.0
 marketing flops                   112.420366E+12
 -------------------------------------------------------------------------------
 # multiplications                           9733
 max memory usage/rank               1.395188E+09
 # max total images/rank                        5
 # max 3D layers                                1
 # MPI messages exchanged                88764960
 MPI messages size (bytes):
  total size                        11.106855E+12
  min size                           0.000000E+00
  max size                           1.894792E+06
  average size                     125.126562E+03
 MPI breakdown and total messages size (bytes):
             size <=      128              784320                        0
       128 < size <=     8192            11491238              94136221696
      8192 < size <=    32768            26481402             540214411968
     32768 < size <=   131072            39442480            2857670048896
    131072 < size <=  4194304            10565520            7618255807088
   4194304 < size <= 16777216                   0                        0
  16777216 < size                               0                        0
 -------------------------------------------------------------------------------

 *** WARNING in dbcsr/mm/dbcsr_mm.F:268 :: Using a non-square number of ***
 *** MPI ranks might lead to poor performance.                          ***
 *** Used ranks: 80                                                     ***
 *** Suggested: 81 169                                                  ***

 -------------------------------------------------------------------------------
 
 MEMORY| Estimated peak process memory [MiB]                                1355

 -------------------------------------------------------------------------------
 ----                             MULTIGRID INFO                            ----
 -------------------------------------------------------------------------------
 count for grid        1:        1111930          cutoff [a.u.]          600.00
 count for grid        2:        4523650          cutoff [a.u.]          200.00
 count for grid        3:        3698182          cutoff [a.u.]           66.67
 count for grid        4:        4540311          cutoff [a.u.]           22.22
 count for grid        5:        3659745          cutoff [a.u.]            7.41
 total gridlevel count  :       17533818

 -------------------------------------------------------------------------------
 -                                                                             -
 -                         MESSAGE PASSING PERFORMANCE                         -
 -                                                                             -
 -------------------------------------------------------------------------------

 ROUTINE             CALLS      AVE VOLUME [Bytes]
 MP_Group             1083
 MP_Bcast            14566                  26542.
 MP_Allreduce        90103                    321.
 MP_Sync               447
 MP_Alltoall         56626                5173076.
 MP_SendRecv          6952                   5936.
 MP_ISendRecv       249324                 133520.
 MP_Wait           2168606
 MP_comm_split         442
 MP_ISend          2496192                 118266.
 MP_IRecv          2496960                 118183.
 MP_Recv               399                 162816.
 MP_Memory         1079954
 -------------------------------------------------------------------------------


 -------------------------------------------------------------------------------
 -                                                                             -
 -                           R E F E R E N C E S                               -
 -                                                                             -
 -------------------------------------------------------------------------------
 
 CP2K version 7.0 (Development Version), the CP2K developers group (2018).
 CP2K is freely available from https://www.cp2k.org/ .

 Schuett, Ole; Messmer, Peter; Hutter, Juerg; VandeVondele, Joost. 
 Electronic Structure Calculations on Graphics Processing Units, John Wiley & Sons, Ltd, 173-190 (2016). 
 GPU-Accelerated Sparse Matrix-Matrix Multiplication for Linear Scaling Density Functional Theory.
 http://dx.doi.org/10.1002/9781118670712.ch8


 Borstnik, U; VandeVondele, J; Weber, V; Hutter, J. 
 PARALLEL COMPUTING, 40 (5-6), 47-58 (2014). 
 Sparse matrix multiplication: The distributed block-compressed sparse
 row library.
 http://dx.doi.org/10.1016/j.parco.2014.03.012


 Hutter, J; Iannuzzi, M; Schiffmann, F; VandeVondele, J. 
 WILEY INTERDISCIPLINARY REVIEWS-COMPUTATIONAL MOLECULAR SCIENCE, 4 (1), 15-25 (2014). 
 CP2K: atomistic simulations of condensed matter systems.
 http://dx.doi.org/10.1002/wcms.1159


 Grimme, S; Ehrlich, S; Goerigk, L. 
 JOURNAL OF COMPUTATIONAL CHEMISTRY, 32, 1456 (2011). 
 Effect of the damping function in dispersion corrected density functional theory.
 http://dx.doi.org/10.1002/jcc.21759


 Grimme, S; Antony, J; Ehrlich, S; Krieg, H. 
 JOURNAL OF CHEMICAL PHYSICS, 132 (15), 154104 (2010). 
 A consistent and accurate ab initio parametrization of density
 functional dispersion correction (DFT-D) for the 94 elements H-Pu.
 http://dx.doi.org/10.1063/1.3382344


 VandeVondele, J; Hutter, J. 
 JOURNAL OF CHEMICAL PHYSICS, 127 (11), 114105 (2007). 
 Gaussian basis sets for accurate calculations on molecular systems in
 gas and condensed phases.
 http://dx.doi.org/10.1063/1.2770708


 Krack, M. 
 THEORETICAL CHEMISTRY ACCOUNTS, 114 (1-3), 145-152 (2005). 
 Pseudopotentials for H to Kr optimized for gradient-corrected
 exchange-correlation functionals.
 http://dx.doi.org/10.1007/s00214-005-0655-y


 VandeVondele, J; Krack, M; Mohamed, F; Parrinello, M; Chassaing, T;
 Hutter, J. COMPUTER PHYSICS COMMUNICATIONS, 167 (2), 103-128 (2005). 
 QUICKSTEP: Fast and accurate density functional calculations using a
 mixed Gaussian and plane waves approach.
 http://dx.doi.org/10.1016/j.cpc.2004.12.014


 Frigo, M; Johnson, SG. 
 PROCEEDINGS OF THE IEEE, 93 (2), 216-231 (2005). 
 The design and implementation of FFTW3.
 http://dx.doi.org/10.1109/JPROC.2004.840301


 Kolafa, J. 
 JOURNAL OF COMPUTATIONAL CHEMISTRY, 25 (3), 335-342 (2004). 
 Time-reversible always stable predictor-corrector method for molecular dynamics of polarizable molecules.
 http://dx.doi.org/10.1002/jcc.10385


 VandeVondele, J; Hutter, J. 
 JOURNAL OF CHEMICAL PHYSICS, 118 (10), 4365-4369 (2003). 
 An efficient orbital transformation method for electronic structure
 calculations.
 http://dx.doi.org/10.1063/1.1543154


 Hartwigsen, C; Goedecker, S; Hutter, J. 
 PHYSICAL REVIEW B, 58 (7), 3641-3662 (1998). 
 Relativistic separable dual-space Gaussian pseudopotentials from H to Rn.
 http://dx.doi.org/10.1103/PhysRevB.58.3641


 Lippert, G; Hutter, J; Parrinello, M. 
 MOLECULAR PHYSICS, 92 (3), 477-487 (1997). 
 A hybrid Gaussian and plane wave density functional scheme.
 http://dx.doi.org/10.1080/002689797170220


 Perdew, JP; Burke, K; Ernzerhof, M. 
 PHYSICAL REVIEW LETTERS, 77 (18), 3865-3868 (1996). 
 Generalized gradient approximation made simple.
 http://dx.doi.org/10.1103/PhysRevLett.77.3865


 Goedecker, S; Teter, M; Hutter, J. 
 PHYSICAL REVIEW B, 54 (3), 1703-1710 (1996). 
 Separable dual-space Gaussian pseudopotentials.
 http://dx.doi.org/10.1103/PhysRevB.54.1703


 -------------------------------------------------------------------------------
 -                                                                             -
 -                                T I M I N G                                  -
 -                                                                             -
 -------------------------------------------------------------------------------
 SUBROUTINE                       CALLS  ASD         SELF TIME        TOTAL TIME
                                MAXIMUM       AVERAGE  MAXIMUM  AVERAGE  MAXIMUM
 CP2K                                 1  1.0    0.136    0.149 5025.905 5025.923
 cp_geo_opt                           1  2.0    0.000    0.001 5024.523 5024.618
 geoopt_bfgs                          1  3.0    0.019    0.043 5024.522 5024.618
 cp_eval_at                          23  4.0    0.009    0.018 5011.207 5011.244
 qs_forces                           22  5.0    0.014    0.043 4892.094 4892.105
 qs_energies                         23  6.0    0.030    0.059 4551.746 4551.824
 scf_env_do_scf                      23  7.0    0.009    0.040 4241.020 4241.048
 scf_env_do_scf_inner_loop          313  8.0    0.044    0.058 3711.772 3711.799
 rebuild_ks_matrix                  335  9.8    0.002    0.015 2162.755 2163.124
 qs_ks_build_kohn_sham_matrix       335 10.8    0.104    0.175 2162.753 2163.122
 qs_ks_update_qs_env                337  9.0    0.003    0.003 1754.640 1755.010
 qs_rho_update_rho                  336  9.0    0.003    0.004 1729.905 1730.728
 calculate_rho_elec                 672 10.0  869.035  889.967 1729.901 1730.724
 sum_up_and_integrate               190 11.6    2.806    3.122 1214.354 1215.041
 integrate_v_rspace                 380 12.6  687.548  709.511 1211.546 1212.483
 pw_transfer                      10680 13.3    1.133    1.337 1046.845 1052.210
 fft_wrap_pw1pw2                  10010 14.3    0.116    0.134 1041.543 1046.785
 fft_wrap_pw1pw2_600               5802 15.6   64.832   72.896  970.270  974.733
 rs_pw_transfer                    5374 12.9    0.069    0.081  889.492  900.844
 fft3d_ps                         10010 16.3  298.444  332.152  890.443  900.777
 density_rs2pw                      672 11.0    0.048    0.061  773.970  791.226
 qs_vxc_create                      335 11.8    0.013    0.023  731.414  731.591
 dbcsr_multiply_generic            9733 13.7    0.647    0.834  679.789  681.041
 mp_waitall_1                   1973422 16.6  607.590  641.928  607.590  641.928
 qs_scf_new_mos                     313  9.0    0.003    0.005  578.800  579.358
 qs_scf_loop_do_ot                  313 10.0    0.013    0.045  578.797  579.356
 mp_alltoall_z22v                 10010 18.3  507.956  569.653  507.956  569.653
 xc_vxc_pw_create                   190 12.6   29.966   33.800  551.329  551.449
 multiply_cannon                   9733 14.7    3.088    3.242  529.237  541.089
 ot_scf_mini                        313 11.0    0.051    0.119  530.143  530.537
 init_scf_loop                       24  8.0    0.007    0.018  528.482  528.491
 mp_waitany                      195184 14.9  390.845  428.262  390.845  428.262
 potential_pw2rs                    380 13.6    0.298    0.345  413.808  414.835
 qs_ks_update_qs_env_forces          22  6.0    0.000    0.000  411.414  411.490
 xc_rho_set_and_dset_create         335 13.8    5.931    6.326  398.245  404.696
 rs_pw_transfer_RS2PW_600           718 12.9  143.275  159.679  363.924  375.745
 x_to_yz                           4347 17.9   47.003   53.816  334.919  359.128
 multiply_cannon_metrocomm3      194660 15.7    0.533    0.590  316.339  353.566
 prepare_preconditioner              24  9.0    0.000    0.001  287.728  287.781
 yz_to_x                           3559 16.8   29.675   30.921  249.256  278.405
 ot_mini                            313 12.0    0.004    0.005  277.540  277.898
 make_preconditioner                 48 10.0    0.005    0.018  264.237  264.292
 rs_pw_transfer_PW2RS_600           448 15.0  100.066  110.026  254.679  261.918
 make_full_all                       48 11.0    0.021    0.062  243.225  243.284
 init_scf_run                        23  7.0    0.003    0.004  188.796  188.809
 scf_env_initial_rho_setup           23  8.0    0.002    0.002  188.793  188.806
 cp_fm_syevd                        442 13.6    0.004    0.017  184.872  185.515
 wfi_extrapolate                     23  9.0    0.012    0.062  182.099  182.112
 xc_exc_calc                        145 13.0    0.703    0.817  180.071  180.180
 cp_fm_redistribute_end             442 14.6   56.839  178.671   57.746  179.457
 qs_ot_get_derivative               336 13.0    0.006    0.017  173.488  173.971
 cp_fm_syevd_base                   442 14.2  120.904  173.750  120.904  173.750
 mp_alltoall_d11v                 12138 15.0  140.913  167.697  140.913  167.697
 multiply_cannon_metrocomm1      194660 15.7    0.618    0.705  115.896  157.155
 rs_distribute_matrix              1096 11.9    1.361    2.655  130.512  156.733
 apply_preconditioner_dbcsr         384 14.0    0.001    0.002  115.610  115.816
 apply_all                          384 15.0    0.044    0.073  115.609  115.815
 qs_ot_get_p                        674 11.8    0.010    0.068  107.132  108.637
 ot_new_cg_direction                168 13.0    0.007    0.020  102.013  102.031
 mp_sum_d                         13825 14.4   77.825  101.856   77.825  101.856
 -------------------------------------------------------------------------------

 The number of warnings for this run is : 1
 
 -------------------------------------------------------------------------------
  **** **** ******  **  PROGRAM ENDED AT                 2019-07-09 18:52:02.111
 ***** ** ***  *** **   PROGRAM RAN ON            blg9251.int.ets1.calculquebec.
 **    ****   ******    PROGRAM RAN BY                                       rzk
 ***** **    ** ** **   PROGRAM PROCESS ID                                307657
  **** **  *******  **  PROGRAM STOPPED IN /lustre04/scratch/rzk/rzk/GaN-carbene
                                           /443-adatoms-both-2x2/09-BondBreaking
                                           -CH/02-0401-CH-to-NTop-PES
