     212
 i =        1, E =     -8504.6708560901
  N         0.0837772572        2.0209353355        2.4823025629
 Ga         0.0870417037        0.1103577161        2.9399158957
  N         0.0927308409       -0.0213763199        5.0680041800
 Ga         0.0836187362        1.8083012291        5.8043068198
  N         0.0801717848        1.8145023197        7.8027507875
 Ga         0.0794701769       -0.0299388633        8.4415211900
  N         0.0796311148       -0.0312669923       10.4178764442
 Ga         0.0790158009        1.8080511286       11.0701889018
  N         0.0793835714        1.7899154359       13.0658543944
 Ga         0.0792957472       -0.0296554983       13.8773216299
  N         0.0795267044       -0.0265537439       16.0723664462
 Ga         0.0793784512        2.0184369146       16.4947333902
 Ga         0.0582691166        3.7109686735        1.3613690638
  N        -1.4010154216        4.5458382667        2.5322572361
 Ga        -1.6054052571        2.7046942429        3.2818559667
  N        -1.5286897715        2.7534086202        5.2598493493
 Ga        -1.5556170573        4.6190844924        5.8067400666
  N        -1.5411689241        4.6180049648        7.8035014885
 Ga        -1.5175160621        2.7572991123        8.4353370794
  N        -1.5178734868        2.7608123763       10.4320484653
 Ga        -1.5440370310        4.6188161433       11.0687815079
  N        -1.5593491163        4.6302470596       13.0617797509
 Ga        -1.5178135733        2.7617757903       13.6220007058
  N        -1.5473807251        2.7454106216       15.5809136881
 Ga        -1.3565948457        4.5094614983       16.4945194948
  N         0.0798140519        3.6795592483       17.6321328431
  N        -3.1216259454        7.5191266874        2.5172747671
 Ga        -3.0999249602        5.5089353121        2.8542670690
  N        -3.1371967676        5.5423326925        5.0239277544
 Ga        -3.1372696071        7.3581809605        5.8120475324
  N        -3.1391507376        7.3868662332        7.8003854564
 Ga        -3.1369815894        5.5403870592        8.4493664760
  N        -3.1379348675        5.5408659490       10.4218598384
 Ga        -3.1388676535        7.3804866049       11.0698956452
  N        -3.1361631061        7.3619449805       13.0621815395
 Ga        -3.1288124860        5.5446409842       13.8622946043
  N        -3.1345749114        5.5404849375       16.0672929019
 Ga        -3.1363136606        7.5922240048       16.4927243483
 Ga        -3.1390262365        9.2521798913        1.4731436171
  N        -4.6948642646       10.0819415287        2.5061293568
 Ga        -4.7903970072        8.2436500679        3.3550828421
  N        -4.7485223652        8.3242732367        5.2910847380
 Ga        -4.7689422591       10.2058653092        5.8120865871
  N        -4.7538587704       10.1851183807        7.8007197978
 Ga        -4.7361918774        8.3340268600        8.4394222537
  N        -4.7342803643        8.3319849833       10.4309275008
 Ga        -4.7609612021       10.1909997427       11.0710287529
  N        -4.7759126734       10.2005868347       13.0666373151
 Ga        -4.7327237679        8.3316615673       13.6241890223
  N        -4.7585047381        8.3127432666       15.5855822047
 Ga        -4.5876880718       10.0908680844       16.4917779188
  N        -3.1438481698        9.2609808929       17.6264829488
  N         3.2817726569        1.8248927966        2.6215857378
 Ga         3.2726238787        0.0873625604        3.2917179682
  N         3.2940355288       -0.0316051277        5.2516894451
 Ga         3.2856672546        1.8303606748        5.8753380876
  N         3.2952941247        1.8243927697        7.8522808586
 Ga         3.2912118106       -0.0407918921        8.4389402893
  N         3.2943864466       -0.0428016003       10.4324663236
 Ga         3.2955951742        1.8267148758       11.0266023209
  N         3.2969597569        1.8265477949       13.0000289653
 Ga         3.2965749764       -0.0434888070       13.6253512181
  N         3.2994662409       -0.0116187107       15.5877800446
 Ga         3.2928785136        1.8252230511       15.8660093797
  N         1.5663238566        4.5385711249        2.5198792636
 Ga         1.7615672853        2.7255814863        3.2722698835
  N         1.6892163244        2.7531009838        5.2523547513
 Ga         1.7177293162        4.6161155533        5.8082720730
  N         1.6959174313        4.6150691227        7.8054081684
 Ga         1.6764408260        2.7573830184        8.4382901181
  N         1.6769672904        2.7597556833       10.4336726578
 Ga         1.7025539272        4.6190928218       11.0683880772
  N         1.7188085150        4.6307186000       13.0621874957
 Ga         1.6763136313        2.7622728200       13.6227926885
  N         1.7067636116        2.7454446948       15.5818072322
 Ga         1.5165731113        4.5097849798       16.4949942292
  N         0.0953842711        7.3855416887        2.7067212121
 Ga         0.0989161810        5.5450487064        3.3336573880
  N         0.0797843130        5.5512403576        5.2730293271
 Ga         0.0943812121        7.3962635331        5.8981426101
  N         0.0776000814        7.3979354591        7.8622609809
 Ga         0.0792986138        5.5239178323        8.4428664983
  N         0.0786570159        5.5276857084       10.4349944356
 Ga         0.0793797437        7.3972563601       11.0285366968
  N         0.0797328679        7.3980665769       13.0005905752
 Ga         0.0796272276        5.5268958053       13.6241505400
  N         0.0799318375        5.5591885164       15.5858149133
 Ga         0.0805133072        7.3978922527       15.8611935741
  N        -1.6572419799       10.1121049596        2.5232952198
 Ga        -1.4724302164        8.2990869125        3.3335550002
  N        -1.5190605636        8.3181205667        5.2628514869
 Ga        -1.5075266288       10.2031275411        5.8136496562
  N        -1.5228970986       10.1854158452        7.8041013202
 Ga        -1.5423853281        8.3315060935        8.4457691916
  N        -1.5412388152        8.3316928430       10.4349368413
 Ga        -1.5153044299       10.1916499787       11.0696931506
  N        -1.4971135150       10.2000087443       13.0628806361
 Ga        -1.5401135577        8.3323919463       13.6243593357
  N        -1.5139089518        8.3169323669       15.5859931395
 Ga        -1.6953880461       10.0851690572       16.4927807219
  N         6.5019293817        1.9532922620        2.5402573572
 Ga         6.5100736811       -0.0224464451        2.8722032056
  N         6.4943574895       -0.0256907156        5.0408711314
 Ga         6.5075538756        1.8001619641        5.8074154186
  N         6.5105656673        1.8168153449        7.8049382307
 Ga         6.5122103397       -0.0310153593        8.4452765150
  N         6.5114586841       -0.0301002353       10.4211707935
 Ga         6.5125316029        1.8098434989       11.0678934642
  N         6.5123688251        1.7874928281       13.0660282978
 Ga         6.5125433889       -0.0384475880       13.8625160976
  N         6.5120709792       -0.0284327508       16.0682470665
 Ga         6.5123655121        1.9835834088       16.4483457130
 Ga         6.5053185097        3.6720806613        1.5421772206
  N         5.0060230172        4.5530366367        2.5230954653
 Ga         4.7903239194        2.7004638105        3.2969301814
  N         4.8992220396        2.7545676493        5.2575605327
 Ga         4.8758553655        4.6265246529        5.8061986590
  N         4.8988305646        4.6172746907        7.8040160192
 Ga         4.9106796778        2.7594522096        8.4398812646
  N         4.9151364495        2.7617953114       10.4355272306
 Ga         4.8894467292        4.6212824491       11.0680724468
  N         4.8702775602        4.6319614118       13.0664863254
 Ga         4.9148684592        2.7611234799       13.6103987266
  N         4.8909601121        2.7451598061       15.5804972426
 Ga         5.0350644623        4.5335419248       16.4473769374
  N         6.5116958222        3.6884534313       17.5797376727
  N         3.2803793766        7.3879327304        2.5462888945
  N         3.2960905698        5.5231845985        5.0449812980
 Ga         3.2923752858        7.3628662404        5.7754521767
  N         3.2967552958        7.3879300146        7.7851531842
 Ga         3.2954822280        5.5410758075        8.4427007758
  N         3.2968808485        5.5408504278       10.4197964980
 Ga         3.2984705555        7.3809138523       11.0692385446
  N         3.2957815323        7.3622353795       13.0626819749
 Ga         3.2882817628        5.5453159424       13.8630214012
  N         3.2941312563        5.5405829634       16.0678333455
 Ga         3.2962284759        7.5924031225       16.4935099894
 Ga         6.4545005781        9.2650076861        1.3077891813
  N         1.7040212464       10.1666909613        2.5818356662
 Ga         1.7335846618        8.3366192375        3.2147691926
  N         1.6728541094        8.3166961565        5.1960024825
 Ga         1.6714882569       10.1970550245        5.7733031288
  N         1.6770164803       10.1860847696        7.7860496604
 Ga         1.7017117831        8.3323909992        8.4418264495
  N         1.6995379409        8.3323010240       10.4350980570
 Ga         1.6747389826       10.1926022500       11.0693661454
  N         1.6572957998       10.2002363015       13.0629553738
 Ga         1.6997067893        8.3325911597       13.6240210308
  N         1.6744652979        8.3172121857       15.5856001836
 Ga         1.8555940808       10.0851417600       16.4930227749
  N         3.3029612895        9.2608131595       17.6270807587
  N         9.7434344947        1.7977387377        2.6554325775
 Ga         9.7466784058       -0.0209398931        3.1613717255
  N         9.7338181045       -0.0342791043        5.1833047058
 Ga         9.7354047235        1.8098249308        5.8619266959
  N         9.7270653641        1.8262605931        7.8479436316
 Ga         9.7312642266       -0.0431021660        8.4305366285
  N         9.7289259631       -0.0426491385       10.4298268403
 Ga         9.7283411774        1.8267860468       11.0241176936
  N         9.7268427962        1.8263147808       12.9979310880
 Ga         9.7277125414       -0.0429183561       13.6248163616
  N         9.7247280419       -0.0117598833       15.5869293772
 Ga         9.7314677014        1.8247507342       15.8657935332
  N         8.0098669957        4.5592926554        2.5315003347
 Ga         8.2306933802        2.6803276435        3.2955052483
  N         8.1196349693        2.7545286714        5.2601656172
 Ga         8.1428442633        4.6275148383        5.8022918281
  N         8.1284596408        4.6200800382        7.8009131111
 Ga         8.1114694645        2.7601979170        8.4374306575
  N         8.1086628384        2.7626092612       10.4341183508
 Ga         8.1345815259        4.6206505348       11.0684988619
  N         8.1536999287        4.6315130406       13.0659988150
 Ga         8.1099121167        2.7609453148       13.6098797999
  N         8.1335169372        2.7449271782       15.5798936285
 Ga         7.9886550729        4.5329527345       16.4471653590
  N         6.4905703222        7.4903339189        2.6586964246
 Ga         6.4939136320        5.6736403887        3.2736153177
  N         6.5101979706        5.5563327597        5.2376087821
 Ga         6.4996962267        7.4017646722        5.8933281974
  N         6.5134801658        7.3973625382        7.8595005012
 Ga         6.5122343967        5.5300773313        8.4418780012
  N         6.5126213874        5.5287365230       10.4353471286
 Ga         6.5121010847        7.3984166330       11.0253311362
  N         6.5116457668        7.3969157021       12.9990462282
 Ga         6.5122388217        5.5283131584       13.6116924557
  N         6.5120350000        5.5565541629       15.5843019583
 Ga         6.5118115330        7.4015668362       15.8658856144
  N         4.9762418341       10.1241167563        2.5265212413
 Ga         4.8370523912        8.2622173340        3.2626031777
  N         4.9118337849        8.3225330513        5.2458743238
 Ga         4.9237200948       10.2008364592        5.7821201208
  N         4.9168674679       10.1867339189        7.7888965617
 Ga         4.8934545807        8.3344942061        8.4335812720
  N         4.8944728168        8.3322056802       10.4296949346
 Ga         4.9193805730       10.1912353901       11.0701139134
  N         4.9348302617       10.2006233641       13.0662298562
 Ga         4.8919220906        8.3322472193       13.6244971935
  N         4.9180082687        8.3130223321       15.5856306821
 Ga         4.7462715836       10.0907214236       16.4923123691
  O         0.0081689370        4.0846150228       -0.4338950279
  H        -0.1885456505        5.8771342922       -0.3435341835
  C         1.1266135291        3.6339389413       -1.2201027039
  H         2.0931915599        3.9412950074       -0.7902680748
  H         1.1197901274        2.5392530342       -1.3278641241
  H         1.0293671347        4.0813107648       -2.2187304306
 Ga         3.2528317155        5.5080077921        2.8655276401
  O        -0.1921442753        6.8608043183       -0.1991409198
  H         0.0366123389        7.3123746165        1.6686314372
  C         0.9407676817        7.3945923567       -0.9039474575
  H         0.9595226982        8.4772968184       -0.7252504098
  H         1.8895478041        6.9745893829       -0.5342096313
  H         0.8618117895        7.2155345738       -1.9870862103
     212
 i =        2, E =     -8504.6905689724
  N         0.0894038943        2.0081279446        2.5000601099
 Ga         0.1018010800        0.1296840867        3.0559760488
  N         0.1047092146        0.0031081217        5.0990711254
 Ga         0.0819906379        1.8231604271        5.8263835457
  N         0.0810446255        1.8193686834        7.8153420296
 Ga         0.0765755465       -0.0283295910        8.4418335176
  N         0.0798395950       -0.0313557409       10.4183611963
 Ga         0.0796340160        1.8082348459       11.0691956333
  N         0.0796362191        1.7902550684       13.0647382568
 Ga         0.0798061970       -0.0287471142       13.8724451278
  N         0.0795690974       -0.0278668991       16.0733922146
 Ga         0.0797121069        2.0184187985       16.4930354816
 Ga         0.0595453474        3.7124840611        1.3696546282
  N        -1.4013399913        4.5572666407        2.5327839913
 Ga        -1.6000459444        2.7170330925        3.2797089199
  N        -1.5294591703        2.7531553725        5.2566901805
 Ga        -1.5543054233        4.6185156046        5.8059051786
  N        -1.5400389340        4.6177127367        7.8024159890
 Ga        -1.5225358122        2.7568267782        8.4346373429
  N        -1.5172462825        2.7613422502       10.4314660033
 Ga        -1.5429590127        4.6190978984       11.0696358736
  N        -1.5599655133        4.6303825100       13.0637576910
 Ga        -1.5175612156        2.7610426093       13.6218334479
  N        -1.5442938044        2.7424546674       15.5820956618
 Ga        -1.3632089975        4.5116299129       16.4913590180
  N         0.0794838349        3.6850257229       17.6245376757
  N        -3.1340490333        7.5215975135        2.5342385140
 Ga        -3.0987628963        5.5065605294        2.8542475105
  N        -3.1376341261        5.5430635174        5.0205328533
 Ga        -3.1252266971        7.3511114878        5.8272964981
  N        -3.1352525007        7.3854447462        7.8100790587
 Ga        -3.1371794082        5.5367444706        8.4495550642
  N        -3.1370032764        5.5411465482       10.4217455265
 Ga        -3.1377227295        7.3803887980       11.0714772317
  N        -3.1365071124        7.3614721904       13.0645636806
 Ga        -3.1327078880        5.5422048535       13.8644341937
  N        -3.1390189370        5.5381664278       16.0668094261
 Ga        -3.1384311440        7.5854571723       16.4869442577
 Ga        -3.1255531229        9.2369979603        1.4544200100
  N        -4.7127515732       10.0657878313        2.4764591508
 Ga        -4.7747886488        8.2498843039        3.3941780336
  N        -4.7379596442        8.3192866744        5.3106190544
 Ga        -4.7715884128       10.2057118735        5.8280355635
  N        -4.7517968687       10.1868757148        7.8108739843
 Ga        -4.7356158666        8.3322646052        8.4423621034
  N        -4.7332617693        8.3328502987       10.4336633319
 Ga        -4.7608497394       10.1923595159       11.0720085608
  N        -4.7754655132       10.2000999445       13.0674441873
 Ga        -4.7330993841        8.3316092893       13.6236275780
  N        -4.7590706309        8.3155364202       15.5861666564
 Ga        -4.5896660613       10.0918799092       16.4873372276
  N        -3.1407836936        9.2607360914       17.6226156937
  N         3.2742295536        1.8260103605        2.6198492099
 Ga         3.2730853875        0.0904567930        3.2918619179
  N         3.2863990791       -0.0354479574        5.2505035432
 Ga         3.2879345807        1.8316207270        5.8764353405
  N         3.2951610982        1.8249776372        7.8521441773
 Ga         3.2941002756       -0.0382550004        8.4440835415
  N         3.2944536958       -0.0427510008       10.4352482725
 Ga         3.2945111186        1.8267518326       11.0266848648
  N         3.2953211098        1.8251695481       12.9985083521
 Ga         3.2961748808       -0.0429453573       13.6242599821
  N         3.2961269169       -0.0130633371       15.5884082105
 Ga         3.2944713693        1.8259364816       15.8658990445
  N         1.5676946425        4.5414214087        2.5182380288
 Ga         1.7608584277        2.7400766059        3.2779089778
  N         1.6882589914        2.7509839352        5.2565310712
 Ga         1.7156549957        4.6144869306        5.8189956603
  N         1.6934634963        4.6134931966        7.8130443784
 Ga         1.6785790674        2.7591361668        8.4425144849
  N         1.6770331309        2.7601922313       10.4355001155
 Ga         1.7032172854        4.6197371782       11.0676268270
  N         1.7191407580        4.6303499805       13.0628549833
 Ga         1.6767745818        2.7614139771       13.6221365170
  N         1.7039671057        2.7423761397       15.5824100344
 Ga         1.5228654287        4.5115605834       16.4916439440
  N         0.0915471860        7.3858600699        2.6942781639
 Ga         0.1051117695        5.5565151968        3.3390564246
  N         0.0793795826        5.5495966947        5.2790859529
 Ga         0.1062558136        7.4038002001        5.8839884643
  N         0.0796826093        7.3985244323        7.8531141214
 Ga         0.0793098253        5.5271914366        8.4416995209
  N         0.0788950081        5.5284042873       10.4347718702
 Ga         0.0806275833        7.3975769401       11.0288583887
  N         0.0793347790        7.3982228956       13.0029854683
 Ga         0.0799101000        5.5260353667       13.6240606009
  N         0.0798735584        5.5584764579       15.5878612498
 Ga         0.0801728506        7.3966836303       15.8643822697
  N        -1.6734078497       10.1158887559        2.5205035046
 Ga        -1.4621115748        8.3004042514        3.3302450031
  N        -1.5225626353        8.3187842887        5.2597579814
 Ga        -1.5091321603       10.2017509164        5.8196685542
  N        -1.5247830884       10.1854320012        7.8078740202
 Ga        -1.5363323288        8.3311982188        8.4461062803
  N        -1.5405484976        8.3316467212       10.4356798415
 Ga        -1.5147210595       10.1920130359       11.0698809143
  N        -1.4973650412       10.2000866471       13.0645313657
 Ga        -1.5407471102        8.3324991111       13.6240663501
  N        -1.5147545706        8.3166829336       15.5881529915
 Ga        -1.6901562845       10.0903969071       16.4870143933
  N         6.4960071432        1.9548440326        2.5398627986
 Ga         6.5166270533       -0.0262469912        2.8988201897
  N         6.4780020483       -0.0151192201        5.0640433586
 Ga         6.5080384845        1.8036502463        5.8125990339
  N         6.5097491755        1.8181725869        7.8073239855
 Ga         6.5170844110       -0.0329378166        8.4386871158
  N         6.5115094393       -0.0316556861       10.4168008815
 Ga         6.5119424411        1.8087811766       11.0651599512
  N         6.5120835011        1.7895098598       13.0611647625
 Ga         6.5121266289       -0.0329119133       13.8626450929
  N         6.5120535765       -0.0241975709       16.0688529034
 Ga         6.5121569068        2.0023419034       16.4640574063
 Ga         6.5063343131        3.6650236724        1.5415867566
  N         5.0078703225        4.5494894138        2.5186916163
 Ga         4.7885378516        2.6972610102        3.3034729971
  N         4.9013857012        2.7565442676        5.2608830236
 Ga         4.8804443863        4.6271551641        5.8102249083
  N         4.9022113069        4.6163797437        7.8055641702
 Ga         4.9113348354        2.7598050736        8.4408254791
  N         4.9135213393        2.7614399829       10.4351430253
 Ga         4.8870440000        4.6213350530       11.0669297159
  N         4.8718803920        4.6308198209       13.0627586199
 Ga         4.9135519529        2.7602496340       13.6113563800
  N         4.8882407259        2.7427666193       15.5751157779
 Ga         5.0501963899        4.5250815837       16.4626549836
  N         6.5122008458        3.6907430449       17.5927129579
  N         3.2865644610        7.3685209643        2.5663181469
  N         3.2969828331        5.5004557354        5.0744372739
 Ga         3.2791190052        7.3545088793        5.7660712041
  N         3.2939675775        7.3874979815        7.7819820705
 Ga         3.2958582018        5.5420408692        8.4362984671
  N         3.2960088617        5.5413436363       10.4148941770
 Ga         3.2969979201        7.3800478790       11.0684176979
  N         3.2961568082        7.3614181789       13.0637172638
 Ga         3.2923094570        5.5422442478       13.8638884251
  N         3.2986640816        5.5382240243       16.0677002488
 Ga         3.2980585083        7.5859031787       16.4873833272
 Ga         6.4086964364        9.2220041609        1.2324940826
  N         1.6733749206       10.1733503810        2.6145317782
 Ga         1.7527036308        8.3389461811        3.1649746113
  N         1.6785117295        8.3190850189        5.1792843092
 Ga         1.6761799191       10.1960180794        5.7420022323
  N         1.6794563772       10.1873722955        7.7678512926
 Ga         1.7019579643        8.3364042958        8.4339506983
  N         1.6993954680        8.3322211558       10.4305290288
 Ga         1.6743861132       10.1916836965       11.0685930886
  N         1.6566904619       10.2004480172       13.0644241282
 Ga         1.7003314874        8.3323797958       13.6231900949
  N         1.6747791790        8.3166989580       15.5876355060
 Ga         1.8497793465       10.0901398967       16.4870008521
  N         3.2998827726        9.2611638139       17.6230562245
  N         9.7545363667        1.8008049633        2.6610933190
 Ga         9.7312825742       -0.0558697666        3.0774733266
  N         9.7496379616       -0.0487368758        5.1401462618
 Ga         9.7357391427        1.7923396703        5.8405551908
  N         9.7272066284        1.8220237885        7.8325364397
 Ga         9.7271729052       -0.0443460311        8.4290330119
  N         9.7287604358       -0.0435602692       10.4289202840
 Ga         9.7294622116        1.8258680808       11.0233954663
  N         9.7285309323        1.8253651305       12.9967474249
 Ga         9.7280858495       -0.0429356845       13.6236987982
  N         9.7280575829       -0.0130460512       15.5882028512
 Ga         9.7299430090        1.8258086159       15.8661072977
  N         8.0072082155        4.5613687467        2.5307601702
 Ga         8.2294521693        2.6685745527        3.2955357049
  N         8.1203176880        2.7553579979        5.2577243011
 Ga         8.1394889118        4.6282359762        5.7943599812
  N         8.1267189912        4.6206027323        7.7938182948
 Ga         8.1137556504        2.7584858721        8.4336300120
  N         8.1096319566        2.7624183582       10.4314908028
 Ga         8.1353471619        4.6204035086       11.0689917633
  N         8.1524618733        4.6309326004       13.0636874924
 Ga         8.1105469284        2.7601217756       13.6112568514
  N         8.1361257362        2.7427066123       15.5750647595
 Ga         7.9740646213        4.5249774131       16.4626404982
  N         6.4956683890        7.5259452569        2.6497608124
 Ga         6.4871819207        5.6814547637        3.2531416139
  N         6.5106412516        5.5672820451        5.2172615850
 Ga         6.4899175975        7.4078682344        5.8931750198
  N         6.5111875559        7.3962587453        7.8590010840
 Ga         6.5122843708        5.5279909127        8.4471684830
  N         6.5124489750        5.5291685607       10.4387736966
 Ga         6.5112590813        7.3999999946       11.0260669735
  N         6.5120957629        7.3988581287       12.9989403803
 Ga         6.5119263277        5.5290357746       13.6129499171
  N         6.5121658007        5.5599348833       15.5790129790
 Ga         6.5121960991        7.3985192670       15.8661748096
  N         5.0587601072       10.1281467156        2.5302738311
 Ga         4.7837321489        8.2506200909        3.2618283049
  N         4.9008869875        8.3250595539        5.2457361650
 Ga         4.9278647922       10.2032172202        5.7805013293
  N         4.9151549078       10.1881951337        7.7881156123
 Ga         4.8872723834        8.3345357959        8.4320993700
  N         4.8930263622        8.3327357418       10.4294265028
 Ga         4.9191887471       10.1916692174       11.0699102863
  N         4.9352868272       10.2003060323       13.0667558666
 Ga         4.8923695161        8.3318535965       13.6235101471
  N         4.9190040946        8.3154297763       15.5863589054
 Ga         4.7487050754       10.0915632790       16.4876610394
  O         0.0081830321        4.0781375900       -0.4296936012
  H        -0.1900589022        5.8820374323       -0.3477876162
  C         1.1255617392        3.6340060766       -1.2235692729
  H         2.0907392576        3.9413935454       -0.7896387492
  H         1.1226652232        2.5389478867       -1.3283369658
  H         1.0323252937        4.0816330233       -2.2222431120
 Ga         3.2489778203        5.5290615707        2.8896659330
  O        -0.1939460024        6.8631157549       -0.1961314294
  H         0.0348993766        7.3105684293        1.6603850483
  C         0.9422840652        7.3953738172       -0.9014239793
  H         0.9612551426        8.4773024781       -0.7232110009
  H         1.8900747919        6.9762729364       -0.5310275653
  H         0.8621286584        7.2171353285       -1.9842102599
     212
 i =        3, E =     -8504.6947107573
  N         0.0918245070        2.0073308806        2.5200329909
 Ga         0.0954752943        0.1365395417        3.0960537947
  N         0.1082060082        0.0052514600        5.1174200433
 Ga         0.0819408672        1.8348249039        5.8391773356
  N         0.0805089724        1.8213932025        7.8239051248
 Ga         0.0730641753       -0.0281632800        8.4479532745
  N         0.0791629465       -0.0313006795       10.4228109742
 Ga         0.0787351060        1.8092878139       11.0691711710
  N         0.0796787548        1.7899727808       13.0645749046
 Ga         0.0796502645       -0.0286554015       13.8700948980
  N         0.0797314160       -0.0285993490       16.0750332005
 Ga         0.0797328231        2.0184551803       16.4888954649
 Ga         0.0605623659        3.7110616229        1.3705396158
  N        -1.4032317056        4.5568363461        2.5320584513
 Ga        -1.6007137330        2.7179514205        3.2811853844
  N        -1.5302252550        2.7555821621        5.2575904487
 Ga        -1.5543775519        4.6202097822        5.8068227658
  N        -1.5396841635        4.6177440079        7.8026683709
 Ga        -1.5281874257        2.7569552787        8.4343418517
  N        -1.5186742316        2.7615014533       10.4310402318
 Ga        -1.5424124688        4.6191721276       11.0707765883
  N        -1.5597253547        4.6300963350       13.0657436388
 Ga        -1.5171833465        2.7604180601       13.6222441405
  N        -1.5438979528        2.7414227217       15.5833778973
 Ga        -1.3654179047        4.5138361488       16.4866035540
  N         0.0795609498        3.6873076204       17.6188586058
  N        -3.1374385845        7.5146481290        2.5446256822
 Ga        -3.0996551870        5.5029648153        2.8551316661
  N        -3.1372395759        5.5436097612        5.0195412400
 Ga        -3.1212798030        7.3501487395        5.8323474533
  N        -3.1324887992        7.3846202819        7.8135874356
 Ga        -3.1378684755        5.5343675768        8.4501795858
  N        -3.1370312637        5.5403887829       10.4224251979
 Ga        -3.1367036883        7.3799679902       11.0726030474
  N        -3.1363980183        7.3613341583       13.0664864843