     156
 i =        1, E =     -6136.4476292239
 Ga        -0.0031984680       -0.0157240358       -0.5332864966
  N        -0.0002931157        1.8585875665        0.6061955770
 Ga        -0.0003469187        1.8278070994        2.6379412076
  N        -0.0034332588       -0.0156351799        3.2694514036
 Ga        -0.0022019357       -0.0150495585        5.2602478129
  N         0.0008037052        1.8595631250        5.8482828930
 Ga         0.0022027439        1.8581580020        7.8481788608
  N         0.0007868692       -0.0150925785        8.4504107125
 Ga         0.0039356800       -0.0151891431       10.4496827491
  N         0.0041213760        1.8599289824       11.0447828009
 Ga         0.0092460315        1.8630956180       13.0368532362
  N         0.0159962042       -0.0105277976       13.6275560356
 Ga         0.0283308116       -0.0060696357       15.6175994949
  N         0.0120124188        1.8566618202       16.2258941424
 Ga         0.0442845230        1.8430259219       18.2892886812
  N         0.0526458901       -0.0338616291       18.7084469869
 Ga        -1.6232444289        2.7901935832        0.3243312475
  N        -1.6246679962        4.6598310834        0.6070017973
 Ga        -1.5957636423        4.6757305375        2.6367654358
  N        -1.6228837925        2.7899005892        3.2282116677
 Ga        -1.6217270334        2.7906124136        5.2398445451
  N        -1.6212936158        4.6609290007        5.8465838089
 Ga        -1.6191551852        4.6613644883        7.8452046981
  N        -1.6203689112        2.7917902144        8.4509160721
 Ga        -1.6189151706        2.7951865385       10.4470098312
  N        -1.6173646267        4.6668042127       11.0552933368
 Ga        -1.6178137246        4.6713494142       13.0522993265
  N        -1.6099053548        2.8010305901       13.6532215143
 Ga        -1.5939834355        2.8146669756       15.6554787371
  N        -1.5865983858        4.6817248099       16.3073700726
 Ga        -1.5131980846        4.6786894732       18.3835600060
  N        -1.4630596453        2.8269941537       19.0172612122
 Ga        -3.2435611505        5.5952286762        0.3242637229
  N        -3.2373186501        7.4660997685        0.6064025947
 Ga        -3.2644250424        7.4808430521        2.6380422789
  N        -3.2426882177        5.5953543635        3.2285377537
 Ga        -3.2418947963        5.5960234553        5.2400056319
  N        -3.2358571406        7.4662950220        5.8470278533
 Ga        -3.2359099813        7.4670526773        7.8461014119
  N        -3.2399003084        5.5961557277        8.4492289084
 Ga        -3.2386220121        5.5972200976       10.4445362791
  N        -3.2307687947        7.4657373293       11.0553366929
 Ga        -3.2221080316        7.4628940906       13.0529946518
  N        -3.2327488307        5.5992171517       13.6954235627
 Ga        -3.2217354682        5.5932238012       15.7312737326
  N        -3.2151972479        7.4816871273       16.2604723512
 Ga        -3.1807067626        7.4514210480       18.3195798283
  N        -3.1603111626        5.5892430860       18.8544655814
 Ga         3.2429007174       -0.0154089581        0.3245990755
  N         3.2410517131        1.8545930459        0.6064029019
 Ga         3.2694919275        1.8704087730        2.6370812106
  N         3.2425411100       -0.0154792099        3.2281871555
 Ga         3.2439690173       -0.0146767206        5.2398717448
  N         3.2445749248        1.8554830345        5.8475367890
 Ga         3.2469473433        1.8562168399        7.8469303799
  N         3.2449175249       -0.0147878088        8.4495504366
 Ga         3.2477573572       -0.0140572373       10.4449855920
  N         3.2511861901        1.8568059044       11.0510150812
 Ga         3.2575426600        1.8537231412       13.0480607664
  N         3.2565654487       -0.0169427187       13.6607168996
 Ga         3.2747470759       -0.0171163902       15.6663155418
  N         3.2809567980        1.8619921068       16.2196458330
 Ga         3.3157355746        1.8600689365       18.2448033891
  N         3.3137762501       -0.0292185460       18.7014255667
 Ga         1.6222842050        2.7908935721        0.3242290655
  N         1.6291271135        4.6604719674        0.6072793422
 Ga         1.6011680467        4.6758532057        2.6370797717
  N         1.6226303222        2.7900546633        3.2289478985
 Ga         1.6241817894        2.7909350604        5.2408384921
  N         1.6297023432        4.6611654772        5.8484640956
 Ga         1.6300301304        4.6614252205        7.8482215831
  N         1.6260011036        2.7902674503        8.4493588808
 Ga         1.6290724274        2.7914878605       10.4448339146
  N         1.6275909402        4.6622910083       11.0485040724
 Ga         1.6288492146        4.6629525530       13.0430079978
  N         1.6328458646        2.7879095084       13.6461151827
 Ga         1.6436756386        2.7775450294       15.6406070242
  N         1.6335249214        4.6647731096       16.1835813520
 Ga         1.6767140545        4.6405011994       18.1833014577
  N         1.6837067375        2.7771285341       18.6475595645
 Ga         0.0030988738        5.5957623173       -0.5477986008
  N         0.0059374490        7.4706020499        0.6069713241
 Ga         0.0060432198        7.4383430429        2.6368579023
  N         0.0029942669        5.5951907066        3.2695252080
 Ga         0.0046597331        5.5961880790        5.2597085152
  N         0.0074440611        7.4706964037        5.8477585082
 Ga         0.0087983044        7.4692858477        7.8471561095
  N         0.0049216100        5.5957405036        8.4470487729
 Ga         0.0063968826        5.5971448348       10.4440595115
  N         0.0116708734        7.4691861698       11.0461346118
 Ga         0.0139355760        7.4711218887       13.0387414031
  N         0.0068359466        5.6017558928       13.6477275532
 Ga         0.0036709201        5.6024955044       15.6428468962
  N         0.0339801927        7.4604322127       16.2775604469
 Ga         0.0833553840        7.4282764737       18.3615445344
  N         0.1403686301        5.5764787014       18.9085909874
 Ga         6.4869276793       -0.0149726955        0.3238255434
  N         6.4937117970        1.8550441503        0.6060464957
 Ga         6.4661681526        1.8702301195        2.6368621701
  N         6.4882659367       -0.0154253396        3.2287642736
 Ga         6.4897365861       -0.0146997100        5.2407002844
  N         6.4945153063        1.8558403588        5.8479587394
 Ga         6.4945352428        1.8569339785        7.8474839061
  N         6.4909356214       -0.0136796751        8.4510071035
 Ga         6.4943057099       -0.0113192744       10.4474041736
  N         6.4967975609        1.8609340280       11.0528367514
 Ga         6.5000728867        1.8660295118       13.0498492738
  N         6.4898928528       -0.0079591711       13.6402218149
 Ga         6.5039539201        0.0010605889       15.6433183654
  N         6.5230146950        1.8780881785       16.2346980040
 Ga         6.6566037257        1.9248766461       18.2963390649
  N         6.5632615923       -0.0012267205       18.6483751662
 Ga         4.8675528734        2.7916333084       -0.5418078546
  N         4.8709586648        4.6648380175        0.6069304349
 Ga         4.8707974212        4.6333927332        2.6373289251
  N         4.8682756589        2.7899410592        3.2691520554
 Ga         4.8695408806        2.7911102032        5.2594477863
  N         4.8721377489        4.6652229209        5.8481267045
 Ga         4.8728348066        4.6639466442        7.8477219907
  N         4.8708872581        2.7913852654        8.4502969806
 Ga         4.8736927991        2.7952394908       10.4497087208
  N         4.8797626730        4.6661528050       11.0584997250
 Ga         4.8834769412        4.6703060554       13.0610689747
  N         4.8745950800        2.7952761203       13.6514235976
 Ga         4.8855495850        2.8004637627       15.6638983252
  N         4.8665272777        4.6725046818       16.1750266773
 Ga         4.9289788195        4.6591275421       19.0948103523
  N         4.9546421718        2.7698812585       18.7383175351
 Ga         3.2486859142        5.5947306633        0.3237925941
  N         3.2479370078        7.4655053375        0.6058603922
 Ga         3.2756594588        7.4807071762        2.6375640631
  N         3.2485783168        5.5955957419        3.2289353359
 Ga         3.2499483357        5.5963766030        5.2405618386
  N         3.2504624201        7.4661639950        5.8493859643
 Ga         3.2531825244        7.4666891482        7.8496240385
  N         3.2514037391        5.5959691141        8.4547210065
 Ga         3.2549156725        5.5974522328       10.4535723452
  N         3.2566510806        7.4713090300       11.0517031840
 Ga         3.2586490194        7.4717663273       13.0488209101
  N         3.2487375021        5.5957906167       13.6325714698
 Ga         3.2605294597        5.6062244047       15.6388067357
  N         3.2811387386        7.4898994159       16.1553458465
 Ga         3.3268559141        7.4960413148       18.1708822118
  N         3.3568039513        5.5735438279       18.4708747609
  O         1.5524675754        5.0318943539       21.2544170422
  H         0.9929568822        5.3933870724       20.4866583590
  C         0.7595748802        3.9395568722       21.7962272076
  H         0.0320070467        3.5235163905       21.0071006421
  H         1.5321226498        3.2341784258       22.1792908433
  H         0.3368377340        4.3637663153       22.7399257157
  O         4.2312451821        4.7164319724       21.0756872595
  H         3.2214781729        4.8672990705       21.0753729274
  C         4.5516856167        3.5969240621       21.9428002683
  H         4.1180056899        2.6626091449       21.5598032493
  H         5.6437484459        3.5041607589       21.9648999840
  H         4.1787930281        3.8120443784       22.9522805832
     156
 i =        2, E =     -6136.5864189048
 Ga        -0.0031883874       -0.0157232354       -0.5353403957
  N        -0.0002677302        1.8586594686        0.6069632001
 Ga        -0.0002964971        1.8278579445        2.6380784463
  N        -0.0033964677       -0.0155891233        3.2696271302
 Ga        -0.0021481981       -0.0150552157        5.2601045323
  N         0.0008476601        1.8596445164        5.8484194120
 Ga         0.0021491393        1.8582313849        7.8483328226
  N         0.0009074055       -0.0151381817        8.4511962818
 Ga         0.0039697914       -0.0152392830       10.4507326486
  N         0.0041696177        1.8601154023       11.0441234789
 Ga         0.0099442588        1.8624039808       13.0355829703
  N         0.0160078900       -0.0098334681       13.6269193287
 Ga         0.0282303802       -0.0085246105       15.6176189399
  N         0.0138263971        1.8574277005       16.2391730423
 Ga         0.0581539470        1.8514778420       18.3097528684
  N         0.0492651639       -0.0341990175       18.6953839384
 Ga        -1.6230303974        2.7901187187        0.3236185101
  N        -1.6248349913        4.6597007872        0.6072840320
 Ga        -1.5958150195        4.6756877204        2.6368212869
  N        -1.6229289961        2.7897690122        3.2282769167
 Ga        -1.6217606179        2.7906121490        5.2396344666
  N        -1.6212845972        4.6608826144        5.8465119312
 Ga        -1.6191840342        4.6614724886        7.8450899298
  N        -1.6204403661        2.7919655066        8.4519189538
 Ga        -1.6189520823        2.7954872036       10.4480477650
  N        -1.6176725911        4.6671213008       11.0552934634
 Ga        -1.6166314767        4.6710637967       13.0517135417
  N        -1.6095346564        2.8001717002       13.6484455550
 Ga        -1.5886534457        2.8177583734       15.6468001287
  N        -1.5880501811        4.6778817766       16.3148582018
 Ga        -1.5028633248        4.6783107269       18.3901715857
  N        -1.3480038016        2.8770459880       19.2672612122
 Ga        -3.2434818992        5.5954038716        0.3235806085
  N        -3.2372043276        7.4660586571        0.6072072092
 Ga        -3.2643576207        7.4807813632        2.6382821776
  N        -3.2427812130        5.5952912961        3.2286954250
 Ga        -3.2419285353        5.5960258437        5.2399187850
  N        -3.2357679588        7.4663552876        5.8469775140
 Ga        -3.2358045507        7.4669624365        7.8459717106
  N        -3.2399000928        5.5961459661        8.4495185710
 Ga        -3.2384289456        5.5970963291       10.4444298040
  N        -3.2307180253        7.4651100247       11.0552594561
 Ga        -3.2221208781        7.4636819493       13.0533404543
  N        -3.2339573157        5.5968950778       13.6901456125
 Ga        -3.2175722697        5.5937289541       15.7265051239
  N        -3.2142899748        7.4797908758       16.2659672507
 Ga        -3.1787418297        7.4494173064       18.3220476468
  N        -3.1617677082        5.5832825131       18.8403401930
 Ga         3.2428074716       -0.0155237712        0.3238960207
  N         3.2411211874        1.8546363630        0.6066097534
 Ga         3.2695462653        1.8704265535        2.6371911109
  N         3.2425389854       -0.0153329384        3.2282423979
 Ga         3.2439961964       -0.0145919727        5.2396343800
  N         3.2446098702        1.8555198832        5.8474556709
 Ga         3.2472041402        1.8562745021        7.8467010476
  N         3.2448734021       -0.0146502162        8.4503504385
 Ga         3.2478663050       -0.0142715852       10.4460520192
  N         3.2520899783        1.8572088340       11.0509570803
 Ga         3.2582372285        1.8539247089       13.0482374078
  N         3.2565130482       -0.0162071560       13.6599259309
 Ga         3.2743409514       -0.0207888874       15.6670462212
  N         3.2767099814        1.8588633217       16.2245213836
 Ga         3.3420710199        1.8536926688       18.2501756828
  N         3.3092835855       -0.0269525234       18.7156374808
 Ga         1.6221174048        2.7908302725        0.3235670631
  N         1.6293328360        4.6603407767        0.6075686175
 Ga         1.6012881411        4.6757712480        2.6371039520
  N         1.6227533178        2.7899348054        3.2290176750
 Ga         1.6242803224        2.7908992638        5.2405815389
  N         1.6297938120        4.6611332569        5.8483154903
 Ga         1.6301851374        4.6616589029        7.8481038143
  N         1.6262220613        2.7903607882        8.4502426012
 Ga         1.6291872395        2.7918796375       10.4460056715
  N         1.6274165731        4.6628171997       11.0490805281
 Ga         1.6297451372        4.6637598081       13.0446287883
  N         1.6330552046        2.7876600994       13.6432744574
 Ga         1.6421435908        2.7826858616       15.6375773917
  N         1.6287539101        4.6640072653       16.1880835843
 Ga         1.6765497869        4.6449505590       18.1862610242
  N         1.7079720412        2.7802599298       18.6295122569
 Ga         0.0031733275        5.5957413371       -0.5482076259
  N         0.0059541648        7.4708047850        0.6073013708
 Ga         0.0060745816        7.4384317283        2.6369579990
  N         0.0030535805        5.5951733300        3.2695320864
 Ga         0.0046614638        5.5962201892        5.2595273296
  N         0.0074358940        7.4707758669        5.8477329587
 Ga         0.0088784990        7.4693268910        7.8472076954
  N         0.0049102173        5.5956571839        8.4476248991
 Ga         0.0061218429        5.5971604592       10.4447972237
  N         0.0119691076        7.4691034578       11.0459003451
 Ga         0.0145271754        7.4714458541       13.0389996073
  N         0.0059020689        5.6016754812       13.6443307430
 Ga         0.0020911218        5.6004464319       15.6406427426
  N         0.0384251669        7.4587030348       16.2784233797
 Ga         0.0861258994        7.4484786342       18.3620347486
  N         0.1445133477        5.5944649955       18.8968283376
 Ga         6.4870642884       -0.0150940657        0.3231411715
  N         6.4936684352        1.8550850241        0.6062475944
 Ga         6.4661567501        1.8702323798        2.6369765175
  N         6.4883233262       -0.0152914934        3.2289182740
 Ga         6.4897771734       -0.0145795933        5.2406226033
  N         6.4945780194        1.8559324527        5.8480126439
 Ga         6.4945138202        1.8569777038        7.8474538384
  N         6.4909788131       -0.0135391560        8.4514065011
 Ga         6.4941895272       -0.0110963173       10.4477792853
  N         6.4964650602        1.8611687998       11.0515772346
 Ga         6.5010040369        1.8651367557       13.0477060021
  N         6.4900361773       -0.0058614056       13.6427792961
 Ga         6.5050254595        0.0080904633       15.6492870437
  N         6.5390996096        1.8861719466       16.2688445189
 Ga         6.7496439271        1.9775795227       18.3553014285
  N         6.5729591666        0.0219738659       18.6482583919
 Ga         4.8675809563        2.7915589866       -0.5405992861
  N         4.8709900657        4.6647221997        0.6071477205
 Ga         4.8708216890        4.6333651575        2.6374900484
  N         4.8682927931        2.7899249240        3.2692127828
 Ga         4.8696090331        2.7911480147        5.2593446658
  N         4.8721950455        4.6651967907        5.8480848654
 Ga         4.8728963666        4.6639753567        7.8475362105
  N         4.8709477639        2.7915051781        8.4503424543
 Ga         4.8740985584        2.7954130189       10.4490815571
  N         4.8803375913        4.6657229095       11.0575305881
 Ga         4.8806413097        4.6704971342       13.0595026676
  N         4.8776008243        2.7959273787       13.6584470113
 Ga         4.8931553892        2.7958030708       15.6771386158
  N         4.8687005097        4.6743364506       16.1673287668
 Ga         4.9293394296        4.6585312057       19.1028425881
  N         4.9832048256        2.7753640723       18.7296972316
 Ga         3.2486538888        5.5948800310        0.3231295554
  N         3.2478614360        7.4654493706        0.6067030881
 Ga         3.2756496451        7.4806535409        2.6378324660
  N         3.2487044597        5.5955158460        3.2290595522
 Ga         3.2501253470        5.5963682115        5.2404149210
  N         3.2505077091        7.4661622879        5.8493659487
 Ga         3.2531197010        7.4666371556        7.8496276990
  N         3.2516133776        5.5959243299        8.4556652017
 Ga         3.2550543799        5.5975653944       10.4549179946
  N         3.2562276456        7.4716548658       11.0511494130
 Ga         3.2585580317        7.4723797551       13.0489604836
  N         3.2496373319        5.5975844849       13.6331867635
 Ga         3.2552563510        5.6075500224       15.6403247442
  N         3.2810198210        7.4901084196       16.1546393065
 Ga         3.3225048351        7.4929138295       18.1673851186
  N         3.3610478375        5.5714885525       18.4747899890
  O         1.5408433410        5.0247960630       21.2086452198
  H         0.9830832347        5.4194308879       20.4675690173
  C         0.7228966716        3.9203789277       21.7203440051
  H        -0.0710464612        3.4748376043       20.9472143071
  H         1.4442834418        3.1742082706       22.1032680759
  H         0.2430642796        4.2987379201       22.6472114955
  O         4.2271546287        4.7186654691       21.0745952871
  H         3.2171080895        4.8582434161       21.0803254442
  C         4.5508490333        3.5994346463       21.9416802446
  H         4.1179228857        2.6641624284       21.5606813937
  H         5.6425743416        3.5039836702       21.9649740105
  H         4.1787339341        3.8105053958       22.9520105387
     156
 i =        3, E =     -6136.6170401507
 Ga        -0.0031809265       -0.0158162220       -0.5407502625
  N        -0.0002366652        1.8590653648        0.6074520041
 Ga        -0.0002738929        1.8279874131        2.6378805166
  N        -0.0033191080       -0.0156829385        3.2701184871
 Ga        -0.0021408014       -0.0148447109        5.2602822755
  N         0.0008743247        1.8597106483        5.8492538497
 Ga         0.0024537164        1.8584868977        7.8486601071
  N         0.0007988298       -0.0147103251        8.4504001405
 Ga         0.0034863088       -0.0146828489       10.4483321522
  N         0.0044187269        1.8602192254       11.0416114737
 Ga         0.0127025702        1.8618688041       13.0302105903
  N         0.0142608668       -0.0068627269       13.6372237800
 Ga         0.0320413148       -0.0052358970       15.6313338028
  N         0.0103853860        1.8670988771       16.2579215546
 Ga         0.0863439877        1.8698441853       18.3410087818
  N         0.0516177459       -0.0246763690       18.6842613536
 Ga        -1.6229799184        2.7896726364        0.3233428317
  N        -1.6249167512        4.6596301914        0.6064603884
 Ga        -1.5956386123        4.6757320442        2.6362269582
  N        -1.6229857053        2.7902121755        3.2287032568
 Ga        -1.6215603892        2.7907283498        5.2398137199
  N        -1.6210905580        4.6610544252        5.8472242269
 Ga        -1.6186276119        4.6612377284        7.8454559316
  N        -1.6200578614        2.7918675338        8.4511436885
 Ga        -1.6184324173        2.7949794786       10.4453646410
  N        -1.6174718051        4.6658007663       11.0517329423
 Ga        -1.6164240063        4.6710069680       13.0460635779
  N        -1.6083506046        2.7971887712       13.6455109570
 Ga        -1.5847289348        2.8189661481       15.6357563652
  N        -1.5843952761        4.6669398981       16.3299649897
 Ga        -1.4848323440        4.6687701304       18.4126695191
  N        -1.2847613159        2.8938723392       19.3837313345
 Ga        -3.2438072476        5.5956350546        0.3232969465
  N        -3.2367749573        7.4658111964        0.6076370249
 Ga        -3.2641561022        7.4806758639        2.6379464485
  N        -3.2424210115        5.5950079232        3.2288769117
 Ga        -3.2416216670        5.5960082513        5.2397189647
  N        -3.2356776347        7.4663302905        5.8475733943
 Ga        -3.2359397189        7.4675246669        7.8463136141
  N        -3.2397057836        5.5962725957        8.4499005984
 Ga        -3.2388878607        5.5969779063       10.4448704562
  N        -3.2317559812        7.4661969213       11.0547560016
 Ga        -3.2218704354        7.4650808113       13.0533708630
  N        -3.2319530586        5.5961143853       13.6909489044
 Ga        -3.2132779570        5.5886227881       15.7295487108
  N        -3.2105276031        7.4737157761       16.2768070254
 Ga        -3.1739235973        7.4499484118       18.3343708758
  N        -3.1578511750        5.5758525912       18.8213671514
 Ga         3.2424631520       -0.0153695325        0.3236635767
  N         3.2415745946        1.8548386098        0.6066019531
 Ga         3.2694556156        1.8703064207        2.6370859700
  N         3.2429897108       -0.0155338868        3.2285591120
 Ga         3.2442120945       -0.0146007921        5.2396518209
  N         3.2446970667        1.8555363248        5.8481218136
 Ga         3.2466355829        1.8564457889        7.8471331527
  N         3.2450644462       -0.0146192598        8.4506391340
 Ga         3.2483549815       -0.0137215758       10.4461053053
  N         3.2515426361        1.8580890843       11.0521200889
 Ga         3.2603484924        1.8546901698       13.0496156773
  N         3.2553879002       -0.0149506808       13.6623544517
 Ga         3.2769566928       -0.0254817878       15.6722411664
  N         3.2821066369        1.8555844246       16.2345209926
 Ga         3.3807663648        1.8443923294       18.2595331872
  N         3.3088868686       -0.0190465670       18.7356499856
 Ga         1.6221422923        2.7903773110        0.3232812615
  N         1.6295208877        4.6602534651        0.6068199805
 Ga         1.6012334246        4.6758449396        2.6366123842
  N         1.6229125694        2.7903179687        3.2294874824
 Ga         1.6242042147        2.7910887914        5.2408988987
  N         1.6297491514        4.6613385874        5.8492574153
 Ga         1.6300844914        4.6614174972        7.8487904180
  N         1.6260141935        2.7903925747        8.4500814071
 Ga         1.6293731413        2.7921950823       10.4444905925
  N         1.6279008203        4.6620691186       11.0474637621
 Ga         1.6285829659        4.6642607320       13.0428020713
  N         1.6325879095        2.7876492848       13.6474697953
 Ga         1.6458083075        2.7844363749       15.6440884651
  N         1.6229715662        4.6620016389       16.1853036210
 Ga         1.6779674799        4.6472060397       18.1855622426
  N         1.7495806574        2.7864859325       18.6223173328
 Ga         0.0032475328        5.5957609254       -0.5433555802
  N         0.0059954710        7.4709212847        0.6065453302
 Ga         0.0061717401        7.4382886448        2.6364095780
  N         0.0030609893        5.5951790327        3.2693269299
 Ga         0.0048057022        5.5962200292        5.2593044935
  N         0.0075409240        7.4706682038        5.8483154310
 Ga         0.0089787301        7.4692399961        7.8474458229
  N         0.0050033671        5.5958241858        8.4482374464
 Ga         0.0068909157        5.5975447255       10.4451987992
  N         0.0121868841        7.4695836405       11.0491191838
 Ga         0.0174259531        7.4727022148       13.0451667274
  N         0.0030827309        5.5990752914       13.6435021746
 Ga         0.0019881354        5.6078533101       15.6417617171
  N         0.0429302875        7.4610972976       16.2722923025
 Ga         0.0877454177        7.4874826805       18.3371005400
  N         0.1555300808        5.6327636828       18.8664098720
 Ga         6.4875011210       -0.0149550734        0.3229144268
  N         6.4933048798        1.8552642791        0.6062263933
 Ga         6.4664207544        1.8701128820        2.6368215423
  N         6.4879732232       -0.0154058179        3.2292894162
 Ga         6.4897871934       -0.0145978143        5.2406705852
  N         6.4947339475        1.8559246502        5.8485908417
 Ga         6.4950837825        1.8570196478        7.8476761485
  N         6.4910108500       -0.0134776596        8.4512603814
 Ga         6.4940534896       -0.0110355911       10.4471272490
  N         6.4973656868        1.8618033033       11.0499185217
 Ga         6.4985310520        1.8652262862       13.0440675974
  N         6.4920028598        0.0013022011       13.6534594360
 Ga         6.5024804654        0.0175711763       15.6648470756
  N         6.5648450665        1.8961349454       16.3189531184
 Ga         6.7725860532        1.9915929934       18.4247070264
  N         6.5936492962        0.0276121206       18.6404996108
 Ga         4.8676588068        2.7915354139       -0.5406001196
  N         4.8710529591        4.6642263799        0.6071245711
 Ga         4.8708934992        4.6335218943        2.6373153576
  N         4.8684020533        2.7899210658        3.2691841823
 Ga         4.8697477314        2.7910959834        5.2591641505
  N         4.8723343602        4.6653441763        5.8484181121
 Ga         4.8726637063        4.6641947963        7.8475695716
  N         4.8711011742        2.7914254244        8.4500458041
 Ga         4.8739596982        2.7950304999       10.4483827941
  N         4.8788830546        4.6652748560       11.0616083715
 Ga         4.8787875701        4.6661078363       13.0669887158
  N         4.8801160611        2.7906775909       13.6735832293
 Ga         4.9123378938        2.7923275535       15.6998637194
  N         4.8707850920        4.6747907223       16.1667822419
 Ga         4.9257341310        4.6708359080       19.1081460228
  N         5.0067330634        2.7988957779       18.7328584577
 Ga         3.2490811818        5.5950951255        0.3228854830
  N         3.2475169093        7.4651846062        0.6072426618
 Ga         3.2755195737        7.4805697368        2.6376034312
  N         3.2485245294        5.5952366715        3.2293799207
 Ga         3.2499499744        5.5963946905        5.2404433189
  N         3.2505408146        7.4661802614        5.8500317084
 Ga         3.2533191127        7.4668678640        7.8499566479
  N         3.2515054947        5.5962105648        8.4551900805
 Ga         3.2542308394        5.5981161317       10.4539279493
  N         3.2566194066        7.4724068622       11.0507461585
 Ga         3.2553331079        7.4752260755       13.0487370544
  N         3.2466227938        5.6013913967       13.6368731248
 Ga         3.2526907132        5.6089890368       15.6474742040
  N         3.2823593222        7.4937120135       16.1610211529
 Ga         3.3329129743        7.4883105968       18.1717064352
  N         3.3625887482        5.5742885039       18.4715716927
  O         1.4933092825        4.9624393941       21.1757187534
  H         0.9756765714        5.4453862470       20.4457566262
  C         0.6470167449        3.8692251923       21.6749748222