     200
 i =        1, E =     -8456.3693345589
  N         0.0265624809        2.0677644832        2.4658181736
 Ga         0.0483393770        0.1392478460        2.9085711264
  N         0.0329007606        0.0542337291        5.0154444171
 Ga         0.0230148207        1.8847159927        5.7564354608
  N         0.0213299337        1.8931597693        7.7438340766
 Ga         0.0221875972        0.0476819107        8.3907000875
  N         0.0218370905        0.0475170491       10.3608921729
 Ga         0.0204184129        1.8862531386       11.0174553572
  N         0.0195162316        1.8677159898       13.0074599006
 Ga         0.0199160580        0.0480111485       13.8216325993
  N         0.0205451863        0.0492648989       16.0096650874
 Ga         0.0213126700        2.0956886436       16.4260667320
 Ga         0.0298663053        3.7808214310        1.4453040793
  N        -1.4725119014        4.6238918919        2.4727398814
 Ga        -1.6945710685        2.7706079281        3.2401459451
  N        -1.5865088901        2.8331032487        5.1995710738
 Ga        -1.6092327354        4.7036785987        5.7486006283
  N        -1.5994647689        4.6954864606        7.7406357551
 Ga        -1.5752212494        2.8389675359        8.3857826505
  N        -1.5757245883        2.8396644769       10.3749083724
 Ga        -1.6033528207        4.6982161916       11.0170668079
  N        -1.6200734567        4.7084005297       13.0066829258
 Ga        -1.5783042297        2.8392324396       13.5654377295
  N        -1.6065060040        2.8218471761       15.5232789982
 Ga        -1.4215459361        4.5918784832       16.4266641712
  N         0.0241271216        3.7629420700       17.5530123172
  N        -3.1874909192        7.5991907386        2.4550110699
 Ga        -3.1846490703        5.6134518666        2.8025948536
  N        -3.1954427398        5.6191418836        4.9580871918
 Ga        -3.1882793614        7.4426748340        5.7535178483
  N        -3.1979894527        7.4633214602        7.7409192093
 Ga        -3.1948081248        5.6193431269        8.3938799640
  N        -3.1959839453        5.6180638405       10.3624329643
 Ga        -3.1957363888        7.4568395346       11.0165001297
  N        -3.1957313087        7.4376536747       13.0060480531
 Ga        -3.1955147696        5.6181802859       13.8186774101
  N        -3.1959930756        5.6196466250       16.0106630256
 Ga        -3.1939948823        7.6602122635       16.4261384444
 Ga        -3.1887369908        9.3354997039        1.4294539723
  N        -4.7438359917       10.1662905179        2.4643228057
 Ga        -4.8428663257        8.3295376348        3.2966162027
  N        -4.8089007892        8.3986176259        5.2324464727
 Ga        -4.8216338878       10.2784213228        5.7606549348
  N        -4.8123902544       10.2627632512        7.7441254920
 Ga        -4.7909472624        8.4104003051        8.3882252208
  N        -4.7915333287        8.4093614552       10.3743784590
 Ga        -4.8185837131       10.2682590540       11.0162916208
  N        -4.8360126374       10.2788086977       13.0063912180
 Ga        -4.7919829834        8.4099729588       13.5651205257
  N        -4.8167857399        8.3935189156       15.5256345879
 Ga        -4.6443378106       10.1666094865       16.4246804240
  N        -3.1925409374        9.3344931295       17.5638212896
  N         3.2343216763        1.9013213018        2.5545231039
 Ga         3.2293613233        0.1629660338        3.2419275622
  N         3.2369260622        0.0500956548        5.1985269422
 Ga         3.2344301966        1.9058011423        5.8278332929
  N         3.2356389692        1.9035232862        7.7955757551
 Ga         3.2352603450        0.0355920541        8.3848351918
  N         3.2362304054        0.0346657221       10.3736957657
 Ga         3.2369442056        1.9042395966       10.9711745876
  N         3.2375226257        1.9039999094       12.9402181889
 Ga         3.2362476948        0.0341143972       13.5662054485
  N         3.2372872433        0.0642409380       15.5282802564
 Ga         3.2375927745        1.9041473157       15.8060686686
  N         1.5199737484        4.6172771158        2.4739836989
 Ga         1.7336951366        2.7804733062        3.2432682078
  N         1.6305241267        2.8326313990        5.1979683005
 Ga         1.6516039453        4.7030564801        5.7495981945
  N         1.6378558745        4.6930433440        7.7414357697
 Ga         1.6180617197        2.8376554746        8.3857620056
  N         1.6175481418        2.8384658425       10.3748626359
 Ga         1.6438380831        4.6976869279       11.0177330396
  N         1.6605038095        4.7088475215       13.0080609347
 Ga         1.6171671084        2.8390992569       13.5645129844
  N         1.6474213515        2.8204943381       15.5222283060
 Ga         1.4672507086        4.5934484073       16.4260762550
  N         0.0376072299        7.4825638581        2.5761869148
 Ga         0.0314373125        5.7406317517        3.2367896946
  N         0.0202394248        5.6176265068        5.1967402556
 Ga         0.0284452696        7.4778829246        5.8200898325
  N         0.0163487941        7.4724215172        7.7937411565
 Ga         0.0202834346        5.6051990596        8.3847906627
  N         0.0201537652        5.6040323198       10.3749557342
 Ga         0.0194956811        7.4750890107       10.9702501040
  N         0.0197992948        7.4751998703       12.9388942231
 Ga         0.0196781030        5.6059344065       13.5665072222
  N         0.0197973418        5.6394703090       15.5261846883
 Ga         0.0193660001        7.4765656685       15.8070169205
  N        -1.7152915605       10.1984119154        2.4672406488
 Ga        -1.4726513819        8.3477244692        3.2387686132
  N        -1.5887177891        8.4024599650        5.1988700800
 Ga        -1.5624755665       10.2731050305        5.7523701114
  N        -1.5811850439       10.2645757370        7.7434690988
 Ga        -1.5986858237        8.4081408062        8.3850510349
  N        -1.6005748077        8.4094934284       10.3740386297
 Ga        -1.5732956923       10.2683465973       11.0161761977
  N        -1.5554292038       10.2790209644       13.0066904854
 Ga        -1.5992187501        8.4099243366       13.5643249646
  N        -1.5736856474        8.3941237546       15.5245806240
 Ga        -1.7435415518       10.1670291519       16.4256445598
  N         6.4453399873        2.0313565139        2.4719858351
 Ga         6.4391773122        0.0517094394        2.7998529257
  N         6.4441471415        0.0520226643        4.9689297567
 Ga         6.4508584444        1.8750893161        5.7513409770
  N         6.4520166130        1.8955839952        7.7434425126
 Ga         6.4514460081        0.0471011435        8.3915227791
  N         6.4514647236        0.0485517698       10.3633095900
 Ga         6.4526615400        1.8875925545       11.0172129771
  N         6.4525987027        1.8678759964       13.0070569555
 Ga         6.4529559008        0.0482476727       13.8189556048
  N         6.4522778412        0.0499308022       16.0106738864
 Ga         6.4534254531        2.0910458261       16.4262938837
 Ga         6.4432356156        3.7503501722        1.4576095488
  N         4.9506307592        4.6317924399        2.4629613846
 Ga         4.7431475930        2.7771547479        3.2367076753
  N         4.8418691505        2.8324396706        5.1951723581
 Ga         4.8198118198        4.7040501831        5.7492333519
  N         4.8384710398        4.6955961424        7.7412377893
 Ga         4.8528054871        2.8380277970        8.3859699128
  N         4.8559653056        2.8395555267       10.3749635762
 Ga         4.8304083902        4.6981573682       11.0175635176
  N         4.8124919348        4.7087945038       13.0073091210
 Ga         4.8561560014        2.8399538094       13.5652030415
  N         4.8302797858        2.8233345981       15.5254117136
 Ga         5.0031774552        4.5965876714       16.4250426601
  N         6.4537338353        3.7642245301       17.5624403720
  N         3.2253387927        7.4884499237        2.5281706640
 Ga         3.2262695948        5.5999539142        2.8030914427
  N         3.2378580629        5.6058567900        4.9696041558
 Ga         3.2227690213        7.4496604280        5.7288492966
  N         3.2410758443        7.4625150261        7.7307914523
 Ga         3.2360842443        5.6185474765        8.3909433541
  N         3.2374402814        5.6168448591       10.3625648566
 Ga         3.2374887352        7.4569534608       11.0175165166
  N         3.2363521617        7.4384136440       13.0078182742
 Ga         3.2364182964        5.6190762133       13.8213584677
  N         3.2366660419        5.6197438407       16.0101665002
 Ga         3.2378710623        7.6663364065       16.4271677541
 Ga         6.3231326807        9.2215493181        1.1938265103
  N         1.6607465204       10.2417676218        2.5515758947
 Ga         1.5913583781        8.3754561946        3.1613007093
  N         1.6175252936        8.3991373764        5.1557492832
 Ga         1.6138218360       10.2676223054        5.7260356384
  N         1.6183921678       10.2677825253        7.7332210946
 Ga         1.6390218961        8.4076551034        8.3793794665
  N         1.6401644448        8.4093786672       10.3735772657
 Ga         1.6132510462       10.2694020534       11.0164921701
  N         1.5962953937       10.2796203469       13.0072234284
 Ga         1.6386131381        8.4102120293       13.5655702998
  N         1.6109658196        8.3928537756       15.5235854104
 Ga         1.7951665235       10.1624898423       16.4277755079
  N         3.2400243023        9.3334193050       17.5560498982
  N         9.6728083022        1.8741425755        2.5787510894
 Ga         9.7021616586        0.0694610797        3.1321696918
  N         9.6731590861        0.0532594080        5.1325804176
 Ga         9.6710502997        1.8935318213        5.8196293420
  N         9.6698964543        1.9073953911        7.7944418000
 Ga         9.6708111728        0.0352382356        8.3827547039
  N         9.6699240742        0.0355339229       10.3751166122
 Ga         9.6686670010        1.9059601679       10.9708499007
  N         9.6674726255        1.9055475545       12.9387621083
 Ga         9.6680160600        0.0366896656       13.5667978329
  N         9.6677434896        0.0687075733       15.5261744001
 Ga         9.6664780462        1.9056169505       15.8083073008
  N         7.9483307035        4.6390255583        2.4623100348
 Ga         8.1640358693        2.7646049080        3.2326894416
  N         8.0610190323        2.8339153101        5.1964111659
 Ga         8.0854931651        4.7057558891        5.7480587091
  N         8.0703914544        4.6977264755        7.7405982586
 Ga         8.0509493534        2.8392482994        8.3864681187
  N         8.0488488036        2.8406985416       10.3755500482
 Ga         8.0765157923        4.6987057108       11.0173401024
  N         8.0928219731        4.7085320452       13.0068292860
 Ga         8.0490954147        2.8397487522       13.5646022289
  N         8.0744223991        2.8234620391       15.5242671595
 Ga         7.9028061021        4.5955678978       16.4261525750
  N         6.4315948116        7.5693608282        2.6055339452
 Ga         6.4405045017        5.7483476332        3.2154284514
  N         6.4529702588        5.6340834195        5.1765409564
 Ga         6.4479618557        7.4755604118        5.8485902022
  N         6.4559396495        7.4749681330        7.8076031810
 Ga         6.4533613230        5.6061950052        8.3894635835
  N         6.4536639702        5.6054093424       10.3763613661
 Ga         6.4545274674        7.4751443262       10.9715850681
  N         6.4538748002        7.4741764862       12.9400960487
 Ga         6.4527104060        5.6046355624       13.5663643052
  N         6.4530956667        5.6353433103       15.5282835060
 Ga         6.4538378410        7.4751101624       15.8058675121
  N         4.9226526596       10.1976734674        2.4798231051
 Ga         4.7966858278        8.3443474967        3.2400882118
  N         4.8558445878        8.3958625245        5.2027913434
 Ga         4.8588550742       10.2774612559        5.7386263779
  N         4.8585438533       10.2644982373        7.7352530594
 Ga         4.8338243009        8.4100575733        8.3865911830
  N         4.8355135516        8.4094254749       10.3761816615
 Ga         4.8611220817       10.2692525130       11.0175335108
  N         4.8759002306       10.2793917790       13.0078328711
 Ga         4.8338963485        8.4099585925       13.5647964118
  N         4.8633733030        8.3913579026       15.5224914732
 Ga         4.6823301469       10.1637288920       16.4266891554
     200
 i =        2, E =     -8456.3861709453
  N         0.0336220836        2.0585705791        2.4833032851
 Ga         0.0623912571        0.1518852286        2.9989078125
  N         0.0473785168        0.0772610279        5.0469497195
 Ga         0.0216994717        1.8971796654        5.7766409115
  N         0.0222033648        1.8984093237        7.7582957531
 Ga         0.0186127142        0.0480428297        8.3885168203
  N         0.0214647103        0.0472721843       10.3615245002
 Ga         0.0207370456        1.8862295575       11.0158818926
  N         0.0200215570        1.8678483165       13.0079170688
 Ga         0.0200762352        0.0484403451       13.8175023264
  N         0.0216792796        0.0486014816       16.0112660355
 Ga         0.0217163834        2.0944749125       16.4251971089
 Ga         0.0278742665        3.7773557135        1.4690021823
  N        -1.4739554756        4.6317216731        2.4760236486
 Ga        -1.6943762406        2.7720000280        3.2398206280
  N        -1.5859101987        2.8334474958        5.2000754376
 Ga        -1.6087708464        4.7019220785        5.7480080793
  N        -1.5988999347        4.6956182295        7.7416620209
 Ga        -1.5814478269        2.8378295601        8.3843935467
  N        -1.5760868174        2.8400570197       10.3764282034
 Ga        -1.6020405919        4.6982652041       11.0175094110
  N        -1.6201231221        4.7084748338       13.0092115497
 Ga        -1.5770719975        2.8391832329       13.5645435177
  N        -1.6046518094        2.8210025782       15.5247130492
 Ga        -1.4247292133        4.5941242454       16.4251823248
  N         0.0225351547        3.7652792327       17.5527461969
  N        -3.2026401724        7.6027120902        2.4723387755
 Ga        -3.1844046373        5.6112335615        2.7998625752
  N        -3.1953272933        5.6198581204        4.9537035251
 Ga        -3.1795823401        7.4367298161        5.7661954724
  N        -3.1945981795        7.4614769838        7.7511796023
 Ga        -3.1958103744        5.6157906310        8.3944563376
  N        -3.1956486076        5.6177968705       10.3648549207
 Ga        -3.1948140763        7.4570442431       11.0173399339
  N        -3.1958484492        7.4380758939       13.0082227404
 Ga        -3.1954932376        5.6189896640       13.8168308352
  N        -3.1960893502        5.6186609769       16.0121800706
 Ga        -3.1945132997        7.6605082210       16.4248302363
 Ga        -3.1799662909        9.3268172596        1.4220741319
  N        -4.7537871478       10.1558248742        2.4451583478
 Ga        -4.8367045022        8.3430019896        3.3305913258
  N        -4.8001554757        8.3949377021        5.2503320901
 Ga        -4.8229395873       10.2789931182        5.7757092272
  N        -4.8096168997       10.2639956226        7.7559035404
 Ga        -4.7916971645        8.4083430369        8.3899293370
  N        -4.7913020424        8.4098664446       10.3786758856
 Ga        -4.8187191029       10.2699270203       11.0168691587
  N        -4.8354848208       10.2781899551       13.0090287819
 Ga        -4.7917506952        8.4095271276       13.5648940122
  N        -4.8172334733        8.3926169905       15.5264794468
 Ga        -4.6450215026       10.1671320827       16.4240774179
  N        -3.1937204423        9.3369224983       17.5610986283
  N         3.2294866534        1.9024433898        2.5543576928
 Ga         3.2312689185        0.1655273352        3.2426958143
  N         3.2314114949        0.0474179118        5.1979136541
 Ga         3.2376340064        1.9065321277        5.8280582638
  N         3.2359755836        1.9043287596        7.7964646472
 Ga         3.2384607515        0.0375986268        8.3891039773
  N         3.2363963868        0.0356588177       10.3783858816
 Ga         3.2365593283        1.9047908945       10.9724940655
  N         3.2369071544        1.9036485193       12.9425698622
 Ga         3.2365197664        0.0341948033       13.5653798624
  N         3.2372642541        0.0643642742       15.5288374304
 Ga         3.2372679526        1.9033611706       15.8075910968
  N         1.5227634211        4.6188796523        2.4709083907
 Ga         1.7345493484        2.7924988158        3.2483889606
  N         1.6306966524        2.8300968178        5.2023517425
 Ga         1.6505420693        4.7003651597        5.7580697808
  N         1.6359434988        4.6924868411        7.7489076564
 Ga         1.6204968259        2.8396158041        8.3894846279
  N         1.6180703444        2.8389548279       10.3786848272
 Ga         1.6443124551        4.6985838287       11.0162269308
  N         1.6601074757        4.7081261798       13.0087642666
 Ga         1.6173526895        2.8388210742       13.5634344708
  N         1.6462402397        2.8201858099       15.5230083207
 Ga         1.4689452772        4.5944374069       16.4245505251
  N         0.0346551920        7.4812993445        2.5728901188
 Ga         0.0393663478        5.7506035234        3.2431194700
  N         0.0199517307        5.6139530989        5.2035061489
 Ga         0.0391108460        7.4859720853        5.8028912961
  N         0.0184952817        7.4729443555        7.7852826025
 Ga         0.0201449499        5.6086855102        8.3837732248
  N         0.0201723408        5.6046087081       10.3765838231
 Ga         0.0210464018        7.4754077678       10.9699991949
  N         0.0199284005        7.4749960018       12.9414278702
 Ga         0.0201438901        5.6054026479       13.5652651286
  N         0.0204198279        5.6384156403       15.5271728467
 Ga         0.0200258135        7.4756919498       15.8061089227
  N        -1.7252511264       10.2030454734        2.4642624981
 Ga        -1.4635329456        8.3501033245        3.2354557640
  N        -1.5944757659        8.4046820662        5.1969309979
 Ga        -1.5633137187       10.2736485008        5.7582000686
  N        -1.5820516073       10.2641161256        7.7489447998
 Ga        -1.5930964922        8.4078194237        8.3856209255
  N        -1.5997710268        8.4093444594       10.3771590772
 Ga        -1.5724104507       10.2690401917       11.0153921527
  N        -1.5564092184       10.2783660635       13.0081978840
 Ga        -1.5991217757        8.4095382983       13.5633112135
  N        -1.5733819073        8.3931960321       15.5250022376
 Ga        -1.7434503604       10.1676707767       16.4242910656
  N         6.4382393405        2.0347093943        2.4713318608
 Ga         6.4487334898        0.0492544172        2.8231714674
  N         6.4252123668        0.0629667331        4.9921484679
 Ga         6.4522158270        1.8770809037        5.7554133329
  N         6.4512610497        1.8972316954        7.7470947840
 Ga         6.4570840860        0.0452334176        8.3845196086
  N         6.4521102495        0.0475847923       10.3609147565
 Ga         6.4521024324        1.8864074337       11.0152906684
  N         6.4524300721        1.8682840528       13.0079090082
 Ga         6.4524479384        0.0480619599       13.8154596802
  N         6.4522167738        0.0499333700       16.0125370348
 Ga         6.4529287372        2.0931260040       16.4261933010
 Ga         6.4455284049        3.7430430283        1.4634109939
  N         4.9532657906        4.6281957659        2.4585625400
 Ga         4.7417490132        2.7746814433        3.2448839852
  N         4.8444843491        2.8349339183        5.2005021773
 Ga         4.8241231874        4.7053190324        5.7513516251
  N         4.8417979285        4.6951803308        7.7428242869
 Ga         4.8539331741        2.8386898504        8.3863171738
  N         4.8548842338        2.8397194021       10.3769625780
 Ga         4.8281006968        4.6981935428       11.0175507919
  N         4.8129348142        4.7082813101       13.0096471511
 Ga         4.8556074544        2.8390984789       13.5644471550
  N         4.8292048599        2.8215070792       15.5255808410
 Ga         5.0039099594        4.5959937975       16.4250848972
  N         6.4531478332        3.7667834334       17.5580524831
  N         3.2350269406        7.4585906727        2.5655448264
 Ga         3.2245034902        5.6124667110        2.8235386806
  N         3.2385260953        5.5826981629        4.9960641673
 Ga         3.2101252879        7.4408670168        5.7184038021
  N         3.2370656839        7.4620158418        7.7292220596
 Ga         3.2370658411        5.6198651599        8.3853177861
  N         3.2371606216        5.6171738703       10.3603484542
 Ga         3.2358633510        7.4567159411       11.0152496059
  N         3.2365438704        7.4385829903       13.0080441089
 Ga         3.2358695951        5.6193270580       13.8172389767
  N         3.2376586552        5.6178784790       16.0115870318
 Ga         3.2379493618        7.6632103885       16.4246736817
 Ga         6.2685920176        9.1903674494        1.1104366611
  N         1.6288803052       10.2531991876        2.5850135014
 Ga         1.6220943798        8.3863575065        3.0969742395
  N         1.6211007925        8.4027613343        5.1348859353
 Ga         1.6187943885       10.2710432421        5.6923152453
  N         1.6212558279       10.2682680590        7.7154898639
 Ga         1.6388601746        8.4121415089        8.3728949352
  N         1.6398923376        8.4093605159       10.3717667616
 Ga         1.6134196886       10.2684308708       11.0143366336
  N         1.5964555323       10.2789802531       13.0082580939
 Ga         1.6392394687        8.4097484654       13.5641170080
  N         1.6130938330        8.3925713794       15.5251698280
 Ga         1.7903091831       10.1652765567       16.4250343584
  N         3.2389337203        9.3360472790       17.5564881428
  N         9.6837517228        1.8741967118        2.5744747338
 Ga         9.6946890701        0.0300367118        3.0458445605
  N         9.6915927473        0.0380140462        5.0900937549
 Ga         9.6697606308        1.8736399101        5.7937639591
  N         9.6693505239        1.9033731403        7.7781804442
 Ga         9.6668047954        0.0345147928        8.3796745193
  N         9.6696469796        0.0353569033       10.3754414116
 Ga         9.6689967166        1.9049218283       10.9711077547
  N         9.6682346361        1.9050964481       12.9419608253
 Ga         9.6682542954        0.0353054086       13.5655638430
  N         9.6685998216        0.0663922489       15.5280837881
 Ga         9.6677969263        1.9043922203       15.8081372131
  N         7.9454968357        4.6380914709        2.4655254622
 Ga         8.1690765176        2.7446449962        3.2333563211
  N         8.0595780611        2.8370360106        5.1967412700
 Ga         8.0818309748        4.7068004841        5.7395544628
  N         8.0682820697        4.6983220641        7.7349681134
 Ga         8.0536182303        2.8372237224        8.3818564757
  N         8.0494239761        2.8406809844       10.3754470003
 Ga         8.0767200960        4.6982081612       11.0185947120
  N         8.0928938737        4.7085079673       13.0097977270
 Ga         8.0490944133        2.8393081214       13.5641017875
  N         8.0759752716        2.8218681615       15.5250134039
 Ga         7.9023063880        4.5958664277       16.4257549663
  N         6.4287906850        7.6029893635        2.6023953258
 Ga         6.4336315109        5.7562140187        3.1974366620
  N         6.4529571555        5.6444001329        5.1593312273
 Ga         6.4367308374        7.4826682587        5.8440933783
  N         6.4532460902        7.4735420473        7.8056614221
 Ga         6.4533190390        5.6051770133        8.3933777168
  N         6.4532492295        5.6053111094       10.3815499484
 Ga         6.4530361784        7.4762169740       10.9727200129
  N         6.4538242146        7.4745862977       12.9431588801
 Ga         6.4527962126        5.6046882081       13.5658784001
  N         6.4533124463        5.6366883625       15.5287973799
 Ga         6.4537276327        7.4748819486       15.8065398897
  N         5.0002427145       10.1963250696        2.4819647286
 Ga         4.7394192107        8.3455746949        3.2393073733
  N         4.8428148924        8.4007742860        5.2049648859
 Ga         4.8649289931       10.2824618141        5.7365999608
  N         4.8555025907       10.2653295156        7.7367146939
 Ga         4.8281751505        8.4101600065        8.3833898613
  N         4.8341348842        8.4098817011       10.3767967759
 Ga         4.8603814856       10.2697249001       11.0164721681
  N         4.8763816388       10.2789450659       13.0092764906
 Ga         4.8334618665        8.4095760805       13.5637212506
  N         4.8615809344        8.3917643341       15.5239576631
 Ga         4.6862001612       10.1657911638       16.4243599499
     200
 i =        3, E =     -8456.3899543243
  N         0.0368852594        2.0579119726        2.5037657192
 Ga         0.0569107261        0.1505571168        3.0310838930
  N         0.0527150016        0.0804357998        5.0637009890
 Ga         0.0216450952        1.9064626602        5.7875849739
  N         0.0215236515        1.9007130961        7.7674959570
 Ga         0.0158043142        0.0483254744        8.3934724646
  N         0.0205884761        0.0471475540       10.3665228891
 Ga         0.0197670091        1.8869796154       11.0146778681
  N         0.0201834407        1.8678377978       13.0081403060
 Ga         0.0201066818        0.0483604358       13.8150334451
  N         0.0217008945        0.0482003022       16.0136864119
 Ga         0.0215098881        2.0947745222       16.4236449475
 Ga         0.0240055900        3.7733279823        1.4789394421
  N        -1.4765174871        4.6313535191        2.4801165054
 Ga        -1.6967682670        2.7690266062        3.2422013523
  N        -1.5868949007        2.8347776116        5.2017627752
 Ga        -1.6087184311        4.7025140474        5.7477576300
  N        -1.5991407706        4.6955821127        7.7425970301
 Ga        -1.5871200413        2.8376707291        8.3833075114
  N        -1.5780998073        2.8396487654       10.3770235184
 Ga        -1.6014586563        4.6978952852       11.0171146192
  N        -1.6196367017        4.7081061164       13.0105446337
 Ga        -1.5767383022        2.8387064241       13.5647841543
  N        -1.6042132549        2.8202186783       15.5257564770
 Ga        -1.4258221897        4.5949116066       16.4232704008
  N         0.0219473190        3.7667310467       17.5522888414
  N        -3.2073193441        7.5983817705        2.4843192276
 Ga        -3.1861441943        5.6092627535        2.7998144623
  N        -3.1945885143        5.6200232798        4.9528913434
 Ga        -3.1774631781        7.4360879552        5.7687042949
  N        -3.1924470140        7.4602180125        7.7546051994
 Ga        -3.1968998988        5.6135851390        8.3947528545
  N        -3.1961892508        5.6168993532       10.3667904671
 Ga        -3.1943262002        7.4570751283       11.0170935799
  N        -3.1958359719        7.4381610734       13.0096802711
 Ga        -3.1954063856        5.6187288696       13.8162458022
  N        -3.1954984023        5.6183471894       16.0150153363
 Ga        -3.1948286035        7.6613265254       16.4231363309
 Ga        -3.1782668946        9.3185678900        1.4304848324
  N        -4.7522074292       10.1588856496        2.4406505767
 Ga        -4.8406234520        8.3521763104        3.3338767255
  N        -4.8011186692        8.3971934282        5.2522230761
 Ga        -4.8147190944       10.2799903792        5.7899451854
  N        -4.8094859566       10.2646918352        7.7675545783
 Ga        -4.7923174959        8.4053663972        8.3922023379
  N        -4.7919064505        8.4094387441       10.3820242540
 Ga        -4.8188897742       10.2699237843       11.0168866335
  N        -4.8353449961       10.2781941714       13.0102143581
 Ga        -4.7920417727        8.4095422013       13.5653234097
  N        -4.8177928481        8.3919492746       15.5274122878
 Ga        -4.6448315228       10.1672435801       16.4226307775
  N        -3.1939812425        9.3380218801       17.5591758916
  N         3.2307315651        1.9055310241        2.5559965617
 Ga         3.2369761261        0.1675532005        3.2382037453
  N         3.2318357209        0.0481261180        5.1944789868
 Ga         3.2399894244        1.9072695002        5.8297822398
  N         3.2365175349        1.9045796796        7.7993799930
 Ga         3.2409053011        0.0385383538        8.3942232137
  N         3.2367103114        0.0363475937       10.3833921058