 Entering Gaussian System, Link 0=g16
 Input=/Users/rustam/Documents/Projects/Collaborations/Li-Colab/Carbene/443-adatoms-both-2x2/00-SmallMolecules/02-GasWater/02-Standard/final.gjf
 Output=/Users/rustam/Documents/Projects/Collaborations/Li-Colab/Carbene/443-adatoms-both-2x2/00-SmallMolecules/02-GasWater/02-Standard/final.log
 Initial command:
 /Applications/G16/g16/l1.exe "/Users/rustam/G16-scratch/Gau-72008.inp" -scrdir="/Users/rustam/G16-scratch/"
 Entering Link 1 = /Applications/G16/g16/l1.exe PID=     72009.
  
 Copyright (c) 1988,1990,1992,1993,1995,1998,2003,2009,2016,
            Gaussian, Inc.  All Rights Reserved.
  
 This is part of the Gaussian(R) 16 program.  It is based on
 the Gaussian(R) 09 system (copyright 2009, Gaussian, Inc.),
 the Gaussian(R) 03 system (copyright 2003, Gaussian, Inc.),
 the Gaussian(R) 98 system (copyright 1998, Gaussian, Inc.),
 the Gaussian(R) 94 system (copyright 1995, Gaussian, Inc.),
 the Gaussian 92(TM) system (copyright 1992, Gaussian, Inc.),
 the Gaussian 90(TM) system (copyright 1990, Gaussian, Inc.),
 the Gaussian 88(TM) system (copyright 1988, Gaussian, Inc.),
 the Gaussian 86(TM) system (copyright 1986, Carnegie Mellon
 University), and the Gaussian 82(TM) system (copyright 1983,
 Carnegie Mellon University). Gaussian is a federally registered
 trademark of Gaussian, Inc.
  
 This software contains proprietary and confidential information,
 including trade secrets, belonging to Gaussian, Inc.
  
 This software is provided under written license and may be
 used, copied, transmitted, or stored only in accord with that
 written license.
  
 The following legend is applicable only to US Government
 contracts under FAR:
  
                    RESTRICTED RIGHTS LEGEND
  
 Use, reproduction and disclosure by the US Government is
 subject to restrictions as set forth in subparagraphs (a)
 and (c) of the Commercial Computer Software - Restricted
 Rights clause in FAR 52.227-19.
  
 Gaussian, Inc.
 340 Quinnipiac St., Bldg. 40, Wallingford CT 06492
  
  
 ---------------------------------------------------------------
 Warning -- This program may not be used in any manner that
 competes with the business of Gaussian, Inc. or will provide
 assistance to any competitor of Gaussian, Inc.  The licensee
 of this program is prohibited from giving any competitor of
 Gaussian, Inc. access to this program.  By using this program,
 the user acknowledges that Gaussian, Inc. is engaged in the
 business of creating and licensing software in the field of
 computational chemistry and represents and warrants to the
 licensee that it is not a competitor of Gaussian, Inc. and that
 it will not use this program in any manner prohibited above.
 ---------------------------------------------------------------
  

 Cite this work as:
 Gaussian 16, Revision A.03,
 M. J. Frisch, G. W. Trucks, H. B. Schlegel, G. E. Scuseria, 
 M. A. Robb, J. R. Cheeseman, G. Scalmani, V. Barone, 
 G. A. Petersson, H. Nakatsuji, X. Li, M. Caricato, A. V. Marenich, 
 J. Bloino, B. G. Janesko, R. Gomperts, B. Mennucci, H. P. Hratchian, 
 J. V. Ortiz, A. F. Izmaylov, J. L. Sonnenberg, D. Williams-Young, 
 F. Ding, F. Lipparini, F. Egidi, J. Goings, B. Peng, A. Petrone, 
 T. Henderson, D. Ranasinghe, V. G. Zakrzewski, J. Gao, N. Rega, 
 G. Zheng, W. Liang, M. Hada, M. Ehara, K. Toyota, R. Fukuda, 
 J. Hasegawa, M. Ishida, T. Nakajima, Y. Honda, O. Kitao, H. Nakai, 
 T. Vreven, K. Throssell, J. A. Montgomery, Jr., J. E. Peralta, 
 F. Ogliaro, M. J. Bearpark, J. J. Heyd, E. N. Brothers, K. N. Kudin, 
 V. N. Staroverov, T. A. Keith, R. Kobayashi, J. Normand, 
 K. Raghavachari, A. P. Rendell, J. C. Burant, S. S. Iyengar, 
 J. Tomasi, M. Cossi, J. M. Millam, M. Klene, C. Adamo, R. Cammi, 
 J. W. Ochterski, R. L. Martin, K. Morokuma, O. Farkas, 
 J. B. Foresman, and D. J. Fox, Gaussian, Inc., Wallingford CT, 2016.
 
 ******************************************
 Gaussian 16:  EM64M-G16RevA.03 25-Dec-2016
                22-Jul-2019 
 ******************************************
 ----------------------
 #p freq pbepbe/cc-pvdz
 ----------------------
 1/10=4,30=1,38=1/1,3;
 2/12=2,17=6,18=5,40=1/2;
 3/5=16,11=2,25=1,30=1,71=2,74=1009,140=1/1,2,3;
 4//1;
 5/5=2,38=5,98=1/2;
 8/6=4,10=90,11=11/1;
 11/6=1,8=1,9=11,15=111,16=1/1,2,10;
 10/6=1/2;
 6/7=2,8=2,9=2,10=2,28=1/1;
 7/8=1,10=1,25=1/1,2,3,16;
 1/10=4,30=1/3;
 99//99;
 Leave Link    1 at Mon Jul 22 11:12:58 2019, MaxMem=           0 cpu:               0.0 elap:               0.0
 (Enter /Applications/G16/g16/l101.exe)
 -------------------------
 i = 4, E = -17.2195219556
 -------------------------
 Symbolic Z-matrix:
 Charge =  0 Multiplicity = 1
 O                    0.        0.         0.10942 
 H                     0.        0.7655   -0.48644 
 H                     0.       -0.7655   -0.48644 
 
 ITRead=  0  0  0
 MicOpt= -1 -1 -1
 NAtoms=      3 NQM=        3 NQMF=       0 NMMI=      0 NMMIF=      0
                NMic=       0 NMicF=      0.
                    Isotopes and Nuclear Properties:
 (Nuclear quadrupole moments (NQMom) in fm**2, nuclear magnetic moments (NMagM)
  in nuclear magnetons)

  Atom         1           2           3
 IAtWgt=          16           1           1
 AtmWgt=  15.9949146   1.0078250   1.0078250
 NucSpn=           0           1           1
 AtZEff=  -0.0000000  -0.0000000  -0.0000000
 NQMom=    0.0000000   0.0000000   0.0000000
 NMagM=    0.0000000   2.7928460   2.7928460
 AtZNuc=   8.0000000   1.0000000   1.0000000
 Leave Link  101 at Mon Jul 22 11:12:58 2019, MaxMem=   104857600 cpu:               0.1 elap:               0.2
 (Enter /Applications/G16/g16/l103.exe)

 GradGradGradGradGradGradGradGradGradGradGradGradGradGradGradGradGradGrad
 Berny optimization.
 Initialization pass.
 Trust Radius=3.00D-01 FncErr=1.00D-07 GrdErr=1.00D-07 EigMax=2.50D+02 EigMin=1.00D-04
 Number of steps in this run=      2 maximum allowed number of steps=      2.
 GradGradGradGradGradGradGradGradGradGradGradGradGradGradGradGradGradGrad

 Leave Link  103 at Mon Jul 22 11:12:58 2019, MaxMem=   104857600 cpu:               0.0 elap:               0.0
 (Enter /Applications/G16/g16/l202.exe)
                          Input orientation:                          
 ---------------------------------------------------------------------
 Center     Atomic      Atomic             Coordinates (Angstroms)
 Number     Number       Type             X           Y           Z
 ---------------------------------------------------------------------
      1          8           0       -0.000001   -0.000000    0.109418
      2          1           0        0.000001    0.765505   -0.486437
      3          1           0        0.000000   -0.765504   -0.486438
 ---------------------------------------------------------------------
                    Distance matrix (angstroms):
                    1          2          3
     1  O    0.000000
     2  H    0.970072   0.000000
     3  H    0.970072   1.531009   0.000000
 Stoichiometry    H2O
 Framework group  C2V[C2(O),SGV(H2)]
 Deg. of freedom     2
 Full point group                 C2V     NOp   4
 Largest Abelian subgroup         C2V     NOp   4
 Largest concise Abelian subgroup C2      NOp   2
                         Standard orientation:                         
 ---------------------------------------------------------------------
 Center     Atomic      Atomic             Coordinates (Angstroms)
 Number     Number       Type             X           Y           Z
 ---------------------------------------------------------------------
      1          8           0        0.000000    0.000000    0.119171
      2          1           0       -0.000000    0.765505   -0.476684
      3          1           0       -0.000000   -0.765505   -0.476684
 ---------------------------------------------------------------------
 Rotational constants (GHZ):         795.1817693         427.8647561         278.1825930
 Leave Link  202 at Mon Jul 22 11:12:58 2019, MaxMem=   104857600 cpu:               0.0 elap:               0.0
 (Enter /Applications/G16/g16/l301.exe)
 Standard basis: CC-pVDZ (5D, 7F)
 Ernie: Thresh=  0.10000D-02 Tol=  0.10000D-05 Strict=F.
 Ernie:  2 primitive shells out of 32 were deleted.
 There are    12 symmetry adapted cartesian basis functions of A1  symmetry.
 There are     2 symmetry adapted cartesian basis functions of A2  symmetry.
 There are     4 symmetry adapted cartesian basis functions of B1  symmetry.
 There are     7 symmetry adapted cartesian basis functions of B2  symmetry.
 There are    11 symmetry adapted basis functions of A1  symmetry.
 There are     2 symmetry adapted basis functions of A2  symmetry.
 There are     4 symmetry adapted basis functions of B1  symmetry.
 There are     7 symmetry adapted basis functions of B2  symmetry.
    24 basis functions,    47 primitive gaussians,    25 cartesian basis functions
     5 alpha electrons        5 beta electrons
       nuclear repulsion energy         9.0736851223 Hartrees.
 IExCor= 1009 DFT=T Ex=PBE Corr=PBE ExCW=0 ScaHFX=  0.000000
 ScaDFX=  1.000000  1.000000  1.000000  1.000000 ScalE2=  1.000000  1.000000
 IRadAn=      5 IRanWt=     -1 IRanGd=            0 ICorTp=0 IEmpDi=  4
 NAtoms=    3 NActive=    3 NUniq=    2 SFac= 2.25D+00 NAtFMM=   60 NAOKFM=F Big=F
 Integral buffers will be    131072 words long.
 Raffenetti 2 integral format.
 Two-electron integral symmetry is turned on.
 Leave Link  301 at Mon Jul 22 11:12:58 2019, MaxMem=   104857600 cpu:               0.1 elap:               0.1
 (Enter /Applications/G16/g16/l302.exe)
 NPDir=0 NMtPBC=     1 NCelOv=     1 NCel=       1 NClECP=     1 NCelD=      1
         NCelK=      1 NCelE2=     1 NClLst=     1 CellRange=     0.0.
 One-electron integrals computed using PRISM.
 One-electron integral symmetry used in STVInt
 NBasis=    24 RedAO= T EigKep=  3.54D-02  NBF=    11     2     4     7
 NBsUse=    24 1.00D-06 EigRej= -1.00D+00 NBFU=    11     2     4     7
 Precomputing XC quadrature grid using
 IXCGrd= 4 IRadAn=           5 IRanWt=          -1 IRanGd=           0 AccXCQ= 0.00D+00.
 Generated NRdTot=       0 NPtTot=           0 NUsed=           0 NTot=          32
 NSgBfM=    25    25    25    25    25 MxSgAt=     3 MxSgA2=     3.
 Leave Link  302 at Mon Jul 22 11:12:58 2019, MaxMem=   104857600 cpu:               0.1 elap:               0.2
 (Enter /Applications/G16/g16/l303.exe)
 DipDrv:  MaxL=1.
 Leave Link  303 at Mon Jul 22 11:12:58 2019, MaxMem=   104857600 cpu:               0.0 elap:               0.1
 (Enter /Applications/G16/g16/l401.exe)
 ExpMin= 1.22D-01 ExpMax= 1.17D+04 ExpMxC= 4.01D+02 IAcc=3 IRadAn=         5 AccDes= 0.00D+00
 Harris functional with IExCor= 1009 and IRadAn=       5 diagonalized for initial guess.
 HarFok:  IExCor= 1009 AccDes= 0.00D+00 IRadAn=         5 IDoV= 1 UseB2=F ITyADJ=14
 ICtDFT=  3500011 ScaDFX=  1.000000  1.000000  1.000000  1.000000
 FoFCou: FMM=F IPFlag=           0 FMFlag=      100000 FMFlg1=           0
         NFxFlg=           0 DoJE=T BraDBF=F KetDBF=T FulRan=T
         wScrn=  0.000000 ICntrl=       500 IOpCl=  0 I1Cent=   200000004 NGrid=           0
         NMat0=    1 NMatS0=      1 NMatT0=    0 NMatD0=    1 NMtDS0=    0 NMtDT0=    0
 Petite list used in FoFCou.
 Harris En= -76.3868818627196    
 JPrj=0 DoOrth=F DoCkMO=F.
 Initial guess orbital symmetries:
       Occupied  (A1) (A1) (B2) (A1) (B1)
       Virtual   (A1) (B2) (B2) (A1) (B1) (A1) (B2) (A1) (A2) (B1)
                 (A1) (B2) (B2) (A1) (B1) (A2) (A1) (A1) (B2)
 The electronic state of the initial guess is 1-A1.
 Leave Link  401 at Mon Jul 22 11:12:59 2019, MaxMem=   104857600 cpu:               0.2 elap:               0.3
 (Enter /Applications/G16/g16/l502.exe)
 Keep J ints in memory in symmetry-blocked form, NReq=908967.
 FoFCou: FMM=F IPFlag=           0 FMFlag=           0 FMFlg1=           0
         NFxFlg=           0 DoJE=F BraDBF=F KetDBF=F FulRan=T
         wScrn=  0.000000 ICntrl=       600 IOpCl=  0 I1Cent=           0 NGrid=           0
         NMat0=    1 NMatS0=    300 NMatT0=    0 NMatD0=    1 NMtDS0=    0 NMtDT0=    0
 Petite list used in FoFCou.
 Closed shell SCF:
 Using DIIS extrapolation, IDIIS=  1040.
 NGot=   104857600 LenX=   104841867 LenY=   104840801
 Requested convergence on RMS density matrix=1.00D-08 within 128 cycles.
 Requested convergence on MAX density matrix=1.00D-06.
 Requested convergence on             energy=1.00D-06.
 No special actions if energy rises.
 Integral accuracy reduced to 1.0D-05 until final iterations.

 Cycle   1  Pass 0  IDiag  1:
 E= -76.2605077678328    
 DIIS: error= 5.55D-02 at cycle   1 NSaved=   1.
 NSaved= 1 IEnMin= 1 EnMin= -76.2605077678328     IErMin= 1 ErrMin= 5.55D-02
 ErrMax= 5.55D-02  0.00D+00 EMaxC= 1.00D-01 BMatC= 9.66D-02 BMatP= 9.66D-02
 IDIUse=3 WtCom= 4.45D-01 WtEn= 5.55D-01
 Coeff-Com:  0.100D+01
 Coeff-En:   0.100D+01
 Coeff:      0.100D+01
 Gap=     0.112 Goal=   None    Shift=    0.000
 GapD=    0.112 DampG=1.000 DampE=0.500 DampFc=0.5000 IDamp=-1.
 Damping current iteration by 5.00D-01
 RMSDP=2.20D-02 MaxDP=1.84D-01              OVMax= 2.32D-01

 Cycle   2  Pass 0  IDiag  1:
 E= -76.2725513451981     Delta-E=       -0.012043577365 Rises=F Damp=T
 DIIS: error= 2.26D-02 at cycle   2 NSaved=   2.
 NSaved= 2 IEnMin= 2 EnMin= -76.2725513451981     IErMin= 2 ErrMin= 2.26D-02
 ErrMax= 2.26D-02  0.00D+00 EMaxC= 1.00D-01 BMatC= 1.45D-02 BMatP= 9.66D-02
 IDIUse=3 WtCom= 7.74D-01 WtEn= 2.26D-01
 Coeff-Com:  0.276D+00 0.724D+00
 Coeff-En:   0.431D+00 0.569D+00
 Coeff:      0.311D+00 0.689D+00
 Gap=     0.238 Goal=   None    Shift=    0.000
 RMSDP=3.38D-03 MaxDP=3.69D-02 DE=-1.20D-02 OVMax= 1.48D-01

 Cycle   3  Pass 0  IDiag  1:
 E= -76.3335451059716     Delta-E=       -0.060993760773 Rises=F Damp=F
 DIIS: error= 3.94D-03 at cycle   3 NSaved=   3.
 NSaved= 3 IEnMin= 3 EnMin= -76.3335451059716     IErMin= 3 ErrMin= 3.94D-03
 ErrMax= 3.94D-03  0.00D+00 EMaxC= 1.00D-01 BMatC= 6.04D-04 BMatP= 1.45D-02
 IDIUse=3 WtCom= 9.61D-01 WtEn= 3.94D-02
 Coeff-Com:  0.765D-01 0.154D-01 0.908D+00
 Coeff-En:   0.000D+00 0.000D+00 0.100D+01
 Coeff:      0.735D-01 0.148D-01 0.912D+00
 Gap=     0.255 Goal=   None    Shift=    0.000
 RMSDP=5.81D-04 MaxDP=5.12D-03 DE=-6.10D-02 OVMax= 6.36D-03

 Cycle   4  Pass 0  IDiag  1:
 E= -76.3339613053164     Delta-E=       -0.000416199345 Rises=F Damp=F
 DIIS: error= 3.34D-04 at cycle   4 NSaved=   4.
 NSaved= 4 IEnMin= 4 EnMin= -76.3339613053164     IErMin= 4 ErrMin= 3.34D-04
 ErrMax= 3.34D-04  0.00D+00 EMaxC= 1.00D-01 BMatC= 2.13D-06 BMatP= 6.04D-04
 IDIUse=3 WtCom= 9.97D-01 WtEn= 3.34D-03
 Coeff-Com:  0.889D-02-0.196D-01 0.210D+00 0.800D+00
 Coeff-En:   0.000D+00 0.000D+00 0.000D+00 0.100D+01
 Coeff:      0.886D-02-0.195D-01 0.210D+00 0.801D+00
 Gap=     0.255 Goal=   None    Shift=    0.000
 RMSDP=3.46D-05 MaxDP=2.41D-04 DE=-4.16D-04 OVMax= 4.11D-04

 Cycle   5  Pass 0  IDiag  1:
 E= -76.3339626086780     Delta-E=       -0.000001303362 Rises=F Damp=F
 DIIS: error= 8.04D-05 at cycle   5 NSaved=   5.
 NSaved= 5 IEnMin= 5 EnMin= -76.3339626086780     IErMin= 5 ErrMin= 8.04D-05
 ErrMax= 8.04D-05  0.00D+00 EMaxC= 1.00D-01 BMatC= 1.80D-07 BMatP= 2.13D-06
 IDIUse=1 WtCom= 1.00D+00 WtEn= 0.00D+00
 Coeff-Com:  0.181D-02-0.210D-02 0.178D-01 0.771D-01 0.905D+00
 Coeff:      0.181D-02-0.210D-02 0.178D-01 0.771D-01 0.905D+00
 Gap=     0.255 Goal=   None    Shift=    0.000
 RMSDP=1.11D-05 MaxDP=9.25D-05 DE=-1.30D-06 OVMax= 1.33D-04

 Cycle   6  Pass 0  IDiag  1:
 E= -76.3339627509587     Delta-E=       -0.000000142281 Rises=F Damp=F
 DIIS: error= 4.56D-06 at cycle   6 NSaved=   6.
 NSaved= 6 IEnMin= 6 EnMin= -76.3339627509587     IErMin= 6 ErrMin= 4.56D-06
 ErrMax= 4.56D-06  0.00D+00 EMaxC= 1.00D-01 BMatC= 6.26D-10 BMatP= 1.80D-07
 IDIUse=1 WtCom= 1.00D+00 WtEn= 0.00D+00
 Coeff-Com:  0.136D-03-0.131D-03 0.684D-03 0.182D-02 0.414D-01 0.956D+00
 Coeff:      0.136D-03-0.131D-03 0.684D-03 0.182D-02 0.414D-01 0.956D+00
 Gap=     0.255 Goal=   None    Shift=    0.000
 RMSDP=5.78D-07 MaxDP=5.34D-06 DE=-1.42D-07 OVMax= 5.21D-06

 Initial convergence to 1.0D-05 achieved.  Increase integral accuracy.
 Cycle   7  Pass 1  IDiag  1:
 E= -76.3339630241293     Delta-E=       -0.000000273171 Rises=F Damp=F
 DIIS: error= 6.75D-07 at cycle   1 NSaved=   1.
 NSaved= 1 IEnMin= 1 EnMin= -76.3339630241293     IErMin= 1 ErrMin= 6.75D-07
 ErrMax= 6.75D-07  0.00D+00 EMaxC= 1.00D-01 BMatC= 6.91D-12 BMatP= 6.91D-12
 IDIUse=1 WtCom= 1.00D+00 WtEn= 0.00D+00
 Coeff-Com:  0.100D+01
 Coeff:      0.100D+01
 Gap=     0.255 Goal=   None    Shift=    0.000
 RMSDP=5.78D-07 MaxDP=5.34D-06 DE=-2.73D-07 OVMax= 1.99D-06

 Cycle   8  Pass 1  IDiag  1:
 E= -76.3339630241264     Delta-E=        0.000000000003 Rises=F Damp=F
 DIIS: error= 6.01D-07 at cycle   2 NSaved=   2.
 NSaved= 2 IEnMin= 1 EnMin= -76.3339630241293     IErMin= 2 ErrMin= 6.01D-07
 ErrMax= 6.01D-07  0.00D+00 EMaxC= 1.00D-01 BMatC= 1.25D-11 BMatP= 6.91D-12
 IDIUse=1 WtCom= 1.00D+00 WtEn= 0.00D+00
 Coeff-Com:  0.583D+00 0.417D+00
 Coeff:      0.583D+00 0.417D+00
 Gap=     0.255 Goal=   None    Shift=    0.000
 RMSDP=9.72D-08 MaxDP=8.71D-07 DE= 2.94D-12 OVMax= 1.08D-06

 Cycle   9  Pass 1  IDiag  1:
 E= -76.3339630241354     Delta-E=       -0.000000000009 Rises=F Damp=F
 DIIS: error= 1.11D-07 at cycle   3 NSaved=   3.
 NSaved= 3 IEnMin= 3 EnMin= -76.3339630241354     IErMin= 3 ErrMin= 1.11D-07
 ErrMax= 1.11D-07  0.00D+00 EMaxC= 1.00D-01 BMatC= 3.10D-13 BMatP= 6.91D-12
 IDIUse=1 WtCom= 1.00D+00 WtEn= 0.00D+00
 Coeff-Com:  0.753D-01 0.152D+00 0.773D+00
 Coeff:      0.753D-01 0.152D+00 0.773D+00
 Gap=     0.255 Goal=   None    Shift=    0.000
 RMSDP=1.40D-08 MaxDP=1.37D-07 DE=-9.04D-12 OVMax= 1.17D-07

 Cycle  10  Pass 1  IDiag  1:
 E= -76.3339630241357     Delta-E=       -0.000000000000 Rises=F Damp=F
 DIIS: error= 1.59D-08 at cycle   4 NSaved=   4.
 NSaved= 4 IEnMin= 4 EnMin= -76.3339630241357     IErMin= 4 ErrMin= 1.59D-08
 ErrMax= 1.59D-08  0.00D+00 EMaxC= 1.00D-01 BMatC= 5.07D-15 BMatP= 3.10D-13
 IDIUse=1 WtCom= 1.00D+00 WtEn= 0.00D+00
 Coeff-Com:  0.248D-02 0.299D-01 0.203D+00 0.764D+00
 Coeff:      0.248D-02 0.299D-01 0.203D+00 0.764D+00
 Gap=     0.255 Goal=   None    Shift=    0.000
 RMSDP=1.64D-09 MaxDP=9.97D-09 DE=-2.70D-13 OVMax= 1.69D-08

 SCF Done:  E(RPBE-PBE) =  -76.3339630241     A.U. after   10 cycles
            NFock= 10  Conv=0.16D-08     -V/T= 2.0048
 KE= 7.597307125598D+01 PE=-1.989357663969D+02 EE= 3.755504699447D+01
 Leave Link  502 at Mon Jul 22 11:12:59 2019, MaxMem=   104857600 cpu:               0.5 elap:               0.6
 (Enter /Applications/G16/g16/l801.exe)
 DoSCS=F DFT=T ScalE2(SS,OS)=  1.000000  1.000000
 Range of M.O.s used for correlation:     1    24
 NBasis=    24 NAE=     5 NBE=     5 NFC=     0 NFV=     0
 NROrb=     24 NOA=     5 NOB=     5 NVA=    19 NVB=    19
 Leave Link  801 at Mon Jul 22 11:12:59 2019, MaxMem=   104857600 cpu:               0.0 elap:               0.1
 (Enter /Applications/G16/g16/l1101.exe)
 Using compressed storage, NAtomX=     3.
 Will process      4 centers per pass.
 Leave Link 1101 at Mon Jul 22 11:13:00 2019, MaxMem=   104857600 cpu:               0.1 elap:               0.2
 (Enter /Applications/G16/g16/l1102.exe)
 Symmetrizing basis deriv contribution to polar:
 IMax=3 JMax=2 DiffMx= 0.00D+00
 Leave Link 1102 at Mon Jul 22 11:13:00 2019, MaxMem=   104857600 cpu:               0.0 elap:               0.1
 (Enter /Applications/G16/g16/l1110.exe)
 Forming Gx(P) for the SCF density, NAtomX=     3.
 Integral derivatives from FoFJK, PRISM(SPDF).
 Do as many integral derivatives as possible in FoFJK.
 G2DrvN: MDV=     104857260.
 G2DrvN: will do     4 centers at a time, making    1 passes.
 Calling FoFCou, ICntrl=  3507 FMM=F I1Cent=   0 AccDes= 0.00D+00.
 FoFJK:  IHMeth= 1 ICntrl=    3507 DoSepK=F KAlg= 0 I1Cent=           0 FoldK=F
 IRaf=         0 NMat=       1 IRICut=       1 DoRegI=T DoRafI=F ISym2E= 1 IDoP0=0 IntGTp=1.
 FoFCou: FMM=F IPFlag=           0 FMFlag=      100000 FMFlg1=           0
         NFxFlg=           0 DoJE=F BraDBF=F KetDBF=F FulRan=T
         wScrn=  0.000000 ICntrl=      3507 IOpCl=  0 I1Cent=           0 NGrid=           0
         NMat0=    1 NMatS0=      1 NMatT0=    0 NMatD0=    1 NMtDS0=    0 NMtDT0=    0
 Petite list used in FoFCou.
 End of G2Drv F.D. properties file   721 does not exist.
 End of G2Drv F.D. properties file   722 does not exist.
 End of G2Drv F.D. properties file   788 does not exist.
 Leave Link 1110 at Mon Jul 22 11:13:00 2019, MaxMem=   104857600 cpu:               0.4 elap:               0.5
 (Enter /Applications/G16/g16/l1002.exe)
 Minotr:  Closed shell wavefunction.
          IDoAtm=111
          Direct CPHF calculation.
          Differentiating once with respect to electric field.
                with respect to dipole field.
          Differentiating once with respect to nuclear coordinates.
          Using symmetry in CPHF.
          Requested convergence is 1.0D-08 RMS, and 1.0D-07 maximum.
          Secondary convergence is 1.0D-12 RMS, and 1.0D-12 maximum.
          NewPWx=T KeepS1=F KeepF1=F KeepIn=T MapXYZ=F SortEE=F KeepMc=T.
          874 words used for storage of precomputed grid.
 Keep J ints in memory in symmetry-blocked form, NReq=908330.
 FoFCou: FMM=F IPFlag=           0 FMFlag=           0 FMFlg1=           0
         NFxFlg=           0 DoJE=F BraDBF=F KetDBF=F FulRan=T
         wScrn=  0.000000 ICntrl=       600 IOpCl=  0 I1Cent=           0 NGrid=           0
         NMat0=    1 NMatS0=    300 NMatT0=    0 NMatD0=    1 NMtDS0=    0 NMtDT0=    0
 Petite list used in FoFCou.
          MDV=     104857600 using IRadAn=       1.
          Solving linear equations simultaneously, MaxMat=       0.
          There are     9 degrees of freedom in the 1st order CPHF.  IDoFFX=4 NUNeed=     9.
      9 vectors produced by pass  0 Test12= 1.06D-15 1.11D-08 XBig12= 4.59D+00 1.55D+00.
 AX will form     9 AO Fock derivatives at one time.
      9 vectors produced by pass  1 Test12= 1.06D-15 1.11D-08 XBig12= 8.13D-01 4.47D-01.
      9 vectors produced by pass  2 Test12= 1.06D-15 1.11D-08 XBig12= 3.32D-03 2.39D-02.
      9 vectors produced by pass  3 Test12= 1.06D-15 1.11D-08 XBig12= 1.69D-06 6.00D-04.
      4 vectors produced by pass  4 Test12= 1.06D-15 1.11D-08 XBig12= 3.49D-10 8.06D-06.
      1 vectors produced by pass  5 Test12= 1.06D-15 1.11D-08 XBig12= 6.05D-15 3.70D-08.
 InvSVY:  IOpt=1 It=  1 EMax= 3.68D-16
 Solved reduced A of dimension    41 with     9 vectors.
 FullF1:  Do perturbations      1 to       9.
 Isotropic polarizability for W=    0.000000        5.49 Bohr**3.
 End of Minotr F.D. properties file   721 does not exist.
 End of Minotr F.D. properties file   722 does not exist.
 End of Minotr F.D. properties file   788 does not exist.
 Leave Link 1002 at Mon Jul 22 11:13:01 2019, MaxMem=   104857600 cpu:               1.0 elap:               1.1
 (Enter /Applications/G16/g16/l601.exe)
 Copying SCF densities to generalized density rwf, IOpCl= 0 IROHF=0.

 **********************************************************************

            Population analysis using the SCF density.

 **********************************************************************

 Orbital symmetries:
       Occupied  (A1) (A1) (B2) (A1) (B1)
       Virtual   (A1) (B2) (B2) (A1) (A1) (B1) (B2) (A1) (A2) (B1)
                 (A1) (B2) (B2) (A1) (B1) (A2) (A1) (A1) (B2)
 The electronic state is 1-A1.
 Alpha  occ. eigenvalues --  -18.74090  -0.89811  -0.45285  -0.30396  -0.22402
 Alpha virt. eigenvalues --    0.03086   0.10587   0.51150   0.56048   0.85391
 Alpha virt. eigenvalues --    0.86951   0.94932   1.15331   1.17721   1.37011
 Alpha virt. eigenvalues --    1.53865   1.60364   2.02000   2.05650   2.82474
 Alpha virt. eigenvalues --    2.86420   3.02769   3.36377   3.63351
          Condensed to atoms (all electrons):
               1          2          3
     1  O    7.556913   0.349034   0.349034
     2  H    0.349034   0.564490  -0.041015
     3  H    0.349034  -0.041015   0.564490
 Mulliken charges:
               1
     1  O   -0.254981
     2  H    0.127491
     3  H    0.127491
 Sum of Mulliken charges =  -0.00000
 Mulliken charges with hydrogens summed into heavy atoms:
               1
     1  O   -0.000000
 APT charges:
               1
     1  O   -0.438739
     2  H    0.219370
     3  H    0.219370
 Sum of APT charges =  -0.00000
 APT charges with hydrogens summed into heavy atoms:
               1
     1  O   -0.000000
 Electronic spatial extent (au):  <R**2>=             19.0466
 Charge=             -0.0000 electrons
 Dipole moment (field-independent basis, Debye):
    X=             -0.0000    Y=              0.0000    Z=             -1.8711  Tot=              1.8711
 Quadrupole moment (field-independent basis, Debye-Ang):
   XX=             -7.0149   YY=             -4.3111   ZZ=             -5.9345
   XY=              0.0000   XZ=              0.0000   YZ=              0.0000
 Traceless Quadrupole moment (field-independent basis, Debye-Ang):
   XX=             -1.2614   YY=              1.4424   ZZ=             -0.1810
   XY=              0.0000   XZ=              0.0000   YZ=              0.0000
 Octapole moment (field-independent basis, Debye-Ang**2):
  XXX=              0.0000  YYY=             -0.0000  ZZZ=             -0.9352  XYY=             -0.0000
  XXY=             -0.0000  XXZ=             -0.2301  XZZ=              0.0000  YZZ=              0.0000
  YYZ=             -1.0946  XYZ=             -0.0000
 Hexadecapole moment (field-independent basis, Debye-Ang**3):
 XXXX=             -4.8603 YYYY=             -6.2021 ZZZZ=             -6.0574 XXXY=             -0.0000
 XXXZ=             -0.0000 YYYX=             -0.0000 YYYZ=              0.0000 ZZZX=             -0.0000
 ZZZY=              0.0000 XXYY=             -2.1148 XXZZ=             -1.8737 YYZZ=             -1.7126
 XXYZ=              0.0000 YYXZ=              0.0000 ZZXY=             -0.0000
 N-N= 9.073685122287D+00 E-N=-1.989357662615D+02  KE= 7.597307125598D+01
 Symmetry A1   KE= 6.787218480070D+01
 Symmetry A2   KE= 1.993747491792D-32
 Symmetry B1   KE= 4.584499083610D+00
 Symmetry B2   KE= 3.516387371673D+00
  Exact polarizability:   3.292   0.000   7.532  -0.000   0.000   5.657
 Approx polarizability:   3.818   0.000  10.721   0.000   0.000   8.137
 No NMR shielding tensors so no spin-rotation constants.
 Leave Link  601 at Mon Jul 22 11:13:02 2019, MaxMem=   104857600 cpu:               0.1 elap:               0.1
 (Enter /Applications/G16/g16/l701.exe)
 ... and contract with generalized density number  0.
 Compute integral second derivatives.
 Leave Link  701 at Mon Jul 22 11:13:02 2019, MaxMem=   104857600 cpu:               0.1 elap:               0.2
 (Enter /Applications/G16/g16/l702.exe)
 L702 exits ... SP integral derivatives will be done elsewhere.
 Leave Link  702 at Mon Jul 22 11:13:02 2019, MaxMem=   104857600 cpu:               0.0 elap:               0.0
 (Enter /Applications/G16/g16/l703.exe)
 Integral derivatives from FoFJK, PRISM(SPDF).
 Compute integral second derivatives, UseDBF=F ICtDFT=           0.
 Calling FoFJK, ICntrl=    100527 FMM=F ISym2X=1 I1Cent= 0 IOpClX= 0 NMat=1 NMatS=1 NMatT=0.
 FoFJK:  IHMeth= 1 ICntrl=  100527 DoSepK=F KAlg= 0 I1Cent=           0 FoldK=F
 IRaf=         0 NMat=       1 IRICut=       1 DoRegI=T DoRafI=F ISym2E= 1 IDoP0=0 IntGTp=1.
 FoFCou: FMM=F IPFlag=           0 FMFlag=      100000 FMFlg1=         800
         NFxFlg=           0 DoJE=F BraDBF=F KetDBF=F FulRan=T
         wScrn=  0.000000 ICntrl=    100527 IOpCl=  0 I1Cent=           0 NGrid=           0
         NMat0=    1 NMatS0=      1 NMatT0=    0 NMatD0=    1 NMtDS0=    0 NMtDT0=    0
 Petite list used in FoFCou.
 Leave Link  703 at Mon Jul 22 11:13:02 2019, MaxMem=   104857600 cpu:               0.5 elap:               0.6
 (Enter /Applications/G16/g16/l716.exe)
 Dipole        =-2.45134240D-17 0.00000000D+00-7.36139627D-01
 Polarizability= 3.29227950D+00 4.82938626D-14 7.53202654D+00
                -6.43171920D-13 2.11344898D-12 5.65666792D+00
 Full mass-weighted force constant matrix:
 Low frequencies --- -389.0689 -273.4482 -182.8955    0.0009    0.0023    0.0024
 Low frequencies --- 1583.3564 3723.9227 3851.0405
 Diagonal vibrational polarizability:
        0.0000000       0.0354970       0.5647968
 Harmonic frequencies (cm**-1), IR intensities (KM/Mole), Raman scattering
 activities (A**4/AMU), depolarization ratios for plane and unpolarized
 incident light, reduced masses (AMU), force constants (mDyne/A),
 and normal coordinates:
                      1                      2                      3
                     A1                     A1                     B2
 Frequencies --   1583.3564              3723.9227              3851.0131
 Red. masses --      1.0830                 1.0449                 1.0816
 Frc consts  --      1.5997                 8.5371                 9.4505
 IR Inten    --     52.3775                 1.3182                19.5618
  Atom  AN      X      Y      Z        X      Y      Z        X      Y      Z
     1   8    -0.00   0.00  -0.07     0.00  -0.00   0.05    -0.00  -0.07  -0.00
     2   1     0.00   0.43   0.56     0.00   0.59  -0.39    -0.00   0.56  -0.43
     3   1     0.00  -0.43   0.56    -0.00  -0.59  -0.39     0.00   0.56   0.43

 -------------------
 - Thermochemistry -
 -------------------
 Temperature   298.150 Kelvin.  Pressure   1.00000 Atm.
 Atom     1 has atomic number  8 and mass  15.99491
 Atom     2 has atomic number  1 and mass   1.00783
 Atom     3 has atomic number  1 and mass   1.00783
 Molecular mass:    18.01056 amu.
 Principal axes and moments of inertia in atomic units:
                           1         2         3
     Eigenvalues --     2.26960   4.21802   6.48761
           X           -0.00000   0.00000   1.00000
           Y            1.00000   0.00000   0.00000
           Z           -0.00000   1.00000   0.00000
 This molecule is an asymmetric top.
 Rotational symmetry number  2.
 Rotational temperatures (Kelvin)     38.16271    20.53427    13.35066
 Rotational constants (GHZ):         795.18177   427.86476   278.18259
 Zero-point vibrational energy      54778.8 (Joules/Mol)
                                   13.09244 (Kcal/Mol)
 Vibrational temperatures:   2278.10  5357.89  5540.75
          (Kelvin)
 
 Zero-point correction=                           0.020864 (Hartree/Particle)
 Thermal correction to Energy=                    0.023700
 Thermal correction to Enthalpy=                  0.024644
 Thermal correction to Gibbs Free Energy=         0.003195
 Sum of electronic and zero-point Energies=            -76.313099
 Sum of electronic and thermal Energies=               -76.310263
 Sum of electronic and thermal Enthalpies=             -76.309319
 Sum of electronic and thermal Free Energies=          -76.330768
 
                     E (Thermal)             CV                S
                      KCal/Mol        Cal/Mol-Kelvin    Cal/Mol-Kelvin
 Total                   14.872              6.017             45.144
 Electronic               0.000              0.000              0.000
 Translational            0.889              2.981             34.608
 Rotational               0.889              2.981             10.528
 Vibrational             13.095              0.056              0.008
                       Q            Log10(Q)             Ln(Q)
 Total Bot       0.339248D-01         -1.469483         -3.383609
 Total V=0       0.134073D+09          8.127340         18.713892
 Vib (Bot)       0.253155D-09         -9.596614        -22.097020
 Vib (V=0)       0.100048D+01          0.000209          0.000481
 Electronic      0.100000D+01          0.000000          0.000000
 Translational   0.300431D+07          6.477745         14.915559
 Rotational      0.446053D+02          1.649387          3.797853
 
                                                      i = 4, E = -17.2195219556
                                                             IR Spectrum
 
     3    3                                                                     1                                                    
     8    7                                                                     5                                                    
     5    2                                                                     8                                                    
     1    4                                                                     3                                                    
 
     X    X                                                                     X                                                    
     X                                                                          X                                                    
     X                                                                          X                                                    
     X                                                                          X                                                    
     X                                                                          X                                                    
     X                                                                          X                                                    
     X                                                                          X                                                    
                                                                                X                                                    
                                                                                X                                                    
                                                                                X                                                    
                                                                                X                                                    
                                                                                X                                                    
                                                                                X                                                    
                                                                                X                                                    
                                                                                X                                                    
                                                                                X                                                    
                                                                                X                                                    
                                                                                X                                                    
                                                                                X                                                    
                                                                                X                                                    
 
 ***** Axes restored to original set *****
 -------------------------------------------------------------------
 Center     Atomic                   Forces (Hartrees/Bohr)
 Number     Number              X              Y              Z
 -------------------------------------------------------------------
      1        8          -0.000000032   -0.000000002    0.011550474
      2        1           0.000000017    0.001848756   -0.005775237
      3        1           0.000000015   -0.001848753   -0.005775238
 -------------------------------------------------------------------
 Cartesian Forces:  Max     0.011550474 RMS     0.004795321
 Z-matrix is all fixed cartesians, so copy forces.
 Force constants in Cartesian coordinates: 
                1             2             3             4             5 
      1 -0.102545D-01
      2  0.000000D+00  0.647791D+00
      3 -0.120053D-05  0.000000D+00  0.429956D+00
      4  0.512725D-02  0.000000D+00  0.000000D+00 -0.320152D-02
      5  0.000000D+00 -0.323896D+00  0.193149D+00  0.000000D+00  0.353174D+00
      6  0.000000D+00  0.256096D+00 -0.214978D+00  0.000000D+00 -0.224623D+00
      7  0.512725D-02  0.000000D+00  0.000000D+00 -0.192572D-02  0.000000D+00
      8  0.000000D+00 -0.323895D+00 -0.193149D+00  0.000000D+00 -0.292786D-01
      9  0.000000D+00 -0.256096D+00 -0.214978D+00  0.000000D+00  0.314737D-01
                6             7             8             9 
      6  0.206522D+00
      7  0.000000D+00 -0.320152D-02
      8 -0.314737D-01  0.000000D+00  0.353174D+00
      9  0.845591D-02  0.000000D+00  0.224623D+00  0.206522D+00
 Leave Link  716 at Mon Jul 22 11:13:03 2019, MaxMem=   104857600 cpu:               0.0 elap:               0.1
 (Enter /Applications/G16/g16/l103.exe)

 GradGradGradGradGradGradGradGradGradGradGradGradGradGradGradGradGradGrad
 Berny optimization.
 Search for a local minimum.
 Step number   1 out of a maximum of    2
 All quantities printed in internal units (Hartrees-Bohrs-Radians)
 Second derivative matrix not updated -- analytic derivatives used.
 The second derivative matrix:
                          X1        Y1        Z1        X2        Y2
           X1          -0.01025
           Y1           0.00000   0.64779
           Z1          -0.00000   0.00000   0.42996
           X2           0.00513  -0.00000   0.00000  -0.00320
           Y2          -0.00000  -0.32390   0.19315   0.00000   0.35317
           Z2           0.00000   0.25610  -0.21498  -0.00000  -0.22462
           X3           0.00513   0.00000   0.00000  -0.00193  -0.00000
           Y3           0.00000  -0.32390  -0.19315   0.00000  -0.02928
           Z3           0.00000  -0.25610  -0.21498  -0.00000   0.03147
                          Z2        X3        Y3        Z3
           Z2           0.20652
           X3          -0.00000  -0.00320
           Y3          -0.03147  -0.00000   0.35317
           Z3           0.00846  -0.00000   0.22462   0.20652
 ITU=  0
     Eigenvalues ---    0.14099   0.74266   0.93998
 Angle between quadratic step and forces=  49.21 degrees.
 ClnCor:  largest displacement from symmetrization is 3.93D-15 for atom     3.
 Linear search not attempted -- first point.
 ClnCor:  largest displacement from symmetrization is 3.14D-16 for atom     3.
 B after Tr=    -0.000000   -0.000000    0.010408
         Rot=    1.000000   -0.000000   -0.000000    0.000000 Ang=   0.00 deg.
 Variable       Old X    -DE/DX   Delta X   Delta X   Delta X     New X
                                 (Linear)    (Quad)   (Total)
    X1       -0.00000  -0.00000   0.00000  -0.00000  -0.00000  -0.00000
    Y1       -0.00000  -0.00000   0.00000  -0.00000  -0.00000  -0.00000
    Z1        0.20677   0.01155   0.00000   0.01708   0.02749   0.23425
    X2        0.00000   0.00000   0.00000   0.00000   0.00000   0.00000
    Y2        1.44659   0.00185   0.00000  -0.01599  -0.01599   1.43061
    Z2       -0.91923  -0.00578   0.00000  -0.02415  -0.01374  -0.93298
    X3        0.00000   0.00000   0.00000   0.00000   0.00000   0.00000
    Y3       -1.44659  -0.00185   0.00000   0.01599   0.01599  -1.43061
    Z3       -0.91923  -0.00578   0.00000  -0.02415  -0.01374  -0.93298
         Item               Value     Threshold  Converged?
 Maximum Force            0.011550     0.000450     NO 
 RMS     Force            0.004795     0.000300     NO 
 Maximum Displacement     0.027486     0.001800     NO 
 RMS     Displacement     0.013517     0.001200     NO 
 Predicted change in Energy=-2.085471D-04
 GradGradGradGradGradGradGradGradGradGradGradGradGradGradGradGradGradGrad

 Leave Link  103 at Mon Jul 22 11:13:03 2019, MaxMem=   104857600 cpu:               0.0 elap:               0.0
 (Enter /Applications/G16/g16/l9999.exe)

 ----------------------------------------------------------------------

 Electric dipole moment (input orientation):
 (Debye = 10**-18 statcoulomb cm , SI units = C m)
                  (au)            (Debye)         (10**-30 SI)
   Tot        0.736140D+00      0.187108D+01      0.624125D+01
   x          0.000000D+00      0.000000D+00      0.000000D+00
   y          0.000000D+00      0.000000D+00      0.000000D+00
   z         -0.736140D+00     -0.187108D+01     -0.624125D+01

 Dipole polarizability, Alpha (input orientation).
 (esu units = cm**3 , SI units = C**2 m**2 J**-1)
 Alpha(0;0):
               (au)            (10**-24 esu)      (10**-40 SI)
   iso        0.549366D+01      0.814076D+00      0.905782D+00
   aniso      0.367986D+01      0.545299D+00      0.606727D+00
   xx         0.329228D+01      0.487865D+00      0.542824D+00
   yx         0.000000D+00      0.000000D+00      0.000000D+00
   yy         0.753203D+01      0.111613D+01      0.124186D+01
   zx         0.000000D+00      0.000000D+00      0.000000D+00
   zy         0.000000D+00      0.000000D+00      0.000000D+00
   zz         0.565667D+01      0.838232D+00      0.932659D+00

 ----------------------------------------------------------------------

 Dipole orientation:
     8         -0.00000142          0.00000015         -0.20676928
     1         -0.00000073         -1.44659379          0.91923332
     1         -0.00000211          1.44659408          0.91923332

 Electric dipole moment (dipole orientation):
 (Debye = 10**-18 statcoulomb cm , SI units = C m)
                  (au)            (Debye)         (10**-30 SI)
   Tot        0.736140D+00      0.187108D+01      0.624125D+01
   x          0.000000D+00      0.000000D+00      0.000000D+00
   y          0.000000D+00      0.000000D+00      0.000000D+00
   z          0.736140D+00      0.187108D+01      0.624125D+01

 Dipole polarizability, Alpha (dipole orientation).
 (esu units = cm**3 , SI units = C**2 m**2 J**-1)
 Alpha(0;0):
               (au)            (10**-24 esu)      (10**-40 SI)
   iso        0.549366D+01      0.814076D+00      0.905782D+00
   aniso      0.367986D+01      0.545299D+00      0.606727D+00
   xx         0.329228D+01      0.487865D+00      0.542824D+00
   yx         0.000000D+00      0.000000D+00      0.000000D+00
   yy         0.753203D+01      0.111613D+01      0.124186D+01
   zx         0.000000D+00      0.000000D+00      0.000000D+00
   zy         0.000000D+00      0.000000D+00      0.000000D+00
   zz         0.565667D+01      0.838232D+00      0.932659D+00

 ----------------------------------------------------------------------
 1\1\GINC-RUSTAMS-AIR\Freq\RPBEPBE\CC-pVDZ\H2O1\RUSTAM\22-Jul-2019\0\\#
 p freq pbepbe/cc-pvdz\\i = 4, E = -17.2195219556\\0,1\O,-0.00000105,-0
 .0000001014,0.10941759\H,0.00000094,0.76550457,-0.48643716\H,0.0000002
 1,-0.7655045186,-0.4864374866\\Version=EM64M-G16RevA.03\State=1-A1\HF=
 -76.333963\RMSD=1.645e-09\RMSF=4.795e-03\ZeroPoint=0.0208641\Thermal=0
 .0237001\Dipole=0.000002,0.0000002,-0.7361396\DipoleDeriv=-0.6537642,0
 .0000001,-0.000001,0.0000001,-0.3815265,0.,-0.000001,0.,-0.2809277,0.3
 268821,-0.0000004,0.0000005,-0.0000003,0.1907632,0.0744225,0.0000006,0
 .1059509,0.1404639,0.3268821,0.0000002,0.0000005,0.0000001,0.1907633,-
 0.0744225,0.0000005,-0.1059508,0.1404638\Polar=3.2922795,0.000002,7.53
 20265,-0.0000064,0.0000004,5.6566679\Quadrupole=-0.9378087,1.0723791,-
 0.1345703,0.000001,-0.0000022,0.0000003\PG=C02V [C2(O1),SGV(H2)]\NImag
 =0\\-0.01025450,0.00000031,0.64779115,-0.00000120,0.00000005,0.4299561
 8,0.00512725,-0.00000086,0.00000069,-0.00320152,-0.00000068,-0.3238956
 7,0.19314902,0.00000078,0.35317427,0.00000072,0.25609635,-0.21497799,-
 0.00000068,-0.22462268,0.20652208,0.00512725,0.00000054,0.00000051,-0.
 00192572,-0.00000010,-0.00000004,-0.00320152,0.00000037,-0.32389548,-0
 .19314906,0.00000007,-0.02927860,-0.03147367,-0.00000044,0.35317408,0.
 00000048,-0.25609640,-0.21497819,-0.00000001,0.03147366,0.00845591,-0.
 00000046,0.22462274,0.20652227\\0.00000003,0.,-0.01155047,-0.00000002,
 -0.00184876,0.00577524,-0.00000001,0.00184875,0.00577524\\\@


 THERE'S NOTHING SO GREAT AS THE GREAT OUTDOORS.

                                       -- ZIGGY
 Job cpu time:       0 days  0 hours  0 minutes  3.9 seconds.
 Elapsed time:       0 days  0 hours  0 minutes  4.6 seconds.
 File lengths (MBytes):  RWF=      6 Int=      0 D2E=      0 Chk=      1 Scr=      1
 Normal termination of Gaussian 16 at Mon Jul 22 11:13:03 2019.
