 DBCSR| Multiplication driver                                               BLAS
 DBCSR| Multrec recursion limit                                              512
 DBCSR| Multiplication stack size                                           1000
 DBCSR| Maximum elements for images                                    UNLIMITED
 DBCSR| Multiplicative factor virtual images                                   1
 DBCSR| Multiplication size stacks                                             3
 DBCSR| Number of 3D layers                                               SINGLE
 DBCSR| Use MPI memory allocation                                              T
 DBCSR| Use RMA algorithm                                                      F
 DBCSR| Use Communication thread                                               T
 DBCSR| Communication thread load                                             87


  **** **** ******  **  PROGRAM STARTED AT               2019-05-24 12:32:23.748
 ***** ** ***  *** **   PROGRAM STARTED ON        blg5614.int.ets1.calculquebec.
 **    ****   ******    PROGRAM STARTED BY                                   rzk
 ***** **    ** ** **   PROGRAM PROCESS ID                                 74564
  **** **  *******  **  PROGRAM STARTED IN /lustre03/project/6004141/rzk/GaN-car
                                           bene/00-Surface/00-Preoptimization/55
                                           4-native

 CP2K| version string:                    CP2K version 7.0 (Development Version)
 CP2K| source code revision number:                                    svn:18619
 CP2K| cp2kflags: libint fftw3 libxc parallel mpi3 scalapack mkl                
 CP2K| is freely available from                            https://www.cp2k.org/
 CP2K| Program compiled at                          Sun Apr  7 00:48:11 EDT 2019
 CP2K| Program compiled on                      beluga2.int.ets1.calculquebec.ca
 CP2K| Program compiled for                    Beluga-Linux-x86-64-intel-openmpi
 CP2K| Data directory path    /home/rzk/projects/def-rzk/group/cp2k/cp2k-mcgill/
 CP2K| Input file name                                                 start.inp
 
 GLOBAL| Force Environment number                                              1
 GLOBAL| Basis set file name                                        BASIS_MOLOPT
 GLOBAL| Potential file name                                      GTH_POTENTIALS
 GLOBAL| MM Potential file name                                     MM_POTENTIAL
 GLOBAL| Coordinate file name                                          start.xyz
 GLOBAL| Method name                                                        CP2K
 GLOBAL| Project name                                                       TEST
 GLOBAL| Preferred FFT library                                             FFTW3
 GLOBAL| Preferred diagonalization lib.                                       SL
 GLOBAL| Run type                                                        GEO_OPT
 GLOBAL| All-to-all communication in single precision                          F
 GLOBAL| FFTs using library dependent lengths                                  F
 GLOBAL| Global print level                                               MEDIUM
 GLOBAL| MPI I/O enabled                                                       T
 GLOBAL| Total number of message passing processes                           120
 GLOBAL| Number of threads for this process                                    1
 GLOBAL| This output is from process                                           0
 GLOBAL| CPU model name :  Intel(R) Xeon(R) Gold 6148 CPU @ 2.40GHz

 MEMORY| system memory details [Kb]
 MEMORY|                        rank 0           min           max       average
 MEMORY| MemTotal            196614300      97523916     196614300     163584172
 MEMORY| MemFree             184045336      86479688     184045336     149896990
 MEMORY| Buffers                    76             0            76            50
 MEMORY| Cached                1832600       1211408       1832600       1587306
 MEMORY| Slab                  1106744       1056688       1192936       1118789
 MEMORY| SReclaimable           111712        111712        204704        152877
 MEMORY| MemLikelyFree       185989724      87833388     185989724     151637225


 *** Fundamental physical constants (SI units) ***

 *** Literature: B. J. Mohr and B. N. Taylor,
 ***             CODATA recommended values of the fundamental physical
 ***             constants: 2006, Web Version 5.1
 ***             http://physics.nist.gov/constants

 Speed of light in vacuum [m/s]                             2.99792458000000E+08
 Magnetic constant or permeability of vacuum [N/A**2]       1.25663706143592E-06
 Electric constant or permittivity of vacuum [F/m]          8.85418781762039E-12
 Planck constant (h) [J*s]                                  6.62606896000000E-34
 Planck constant (h-bar) [J*s]                              1.05457162825177E-34
 Elementary charge [C]                                      1.60217648700000E-19
 Electron mass [kg]                                         9.10938215000000E-31
 Electron g factor [ ]                                     -2.00231930436220E+00
 Proton mass [kg]                                           1.67262163700000E-27
 Fine-structure constant                                    7.29735253760000E-03
 Rydberg constant [1/m]                                     1.09737315685270E+07
 Avogadro constant [1/mol]                                  6.02214179000000E+23
 Boltzmann constant [J/K]                                   1.38065040000000E-23
 Atomic mass unit [kg]                                      1.66053878200000E-27
 Bohr radius [m]                                            5.29177208590000E-11

 *** Conversion factors ***

 [u] -> [a.u.]                                              1.82288848426455E+03
 [Angstrom] -> [Bohr] = [a.u.]                              1.88972613288564E+00
 [a.u.] = [Bohr] -> [Angstrom]                              5.29177208590000E-01
 [a.u.] -> [s]                                              2.41888432650478E-17
 [a.u.] -> [fs]                                             2.41888432650478E-02
 [a.u.] -> [J]                                              4.35974393937059E-18
 [a.u.] -> [N]                                              8.23872205491840E-08
 [a.u.] -> [K]                                              3.15774647902944E+05
 [a.u.] -> [kJ/mol]                                         2.62549961709828E+03
 [a.u.] -> [kcal/mol]                                       6.27509468713739E+02
 [a.u.] -> [Pa]                                             2.94210107994716E+13
 [a.u.] -> [bar]                                            2.94210107994716E+08
 [a.u.] -> [atm]                                            2.90362800883016E+08
 [a.u.] -> [eV]                                             2.72113838565563E+01
 [a.u.] -> [Hz]                                             6.57968392072181E+15
 [a.u.] -> [1/cm] (wave numbers)                            2.19474631370540E+05
 [a.u./Bohr**2] -> [1/cm]                                   5.14048714338585E+03
 

 CELL_TOP| Volume [angstrom^3]:                                         6613.868
 CELL_TOP| Vector a [angstrom    16.228     0.000     0.000    |a| =      16.228
 CELL_TOP| Vector b [angstrom    -8.114    14.054     0.000    |b| =      16.228
 CELL_TOP| Vector c [angstrom     0.000     0.000    29.000    |c| =      29.000
 CELL_TOP| Angle (b,c), alpha [degree]:                                   90.000
 CELL_TOP| Angle (a,c), beta  [degree]:                                   90.000
 CELL_TOP| Angle (a,b), gamma [degree]:                                  120.000
 CELL_TOP| Numerically orthorhombic:                                          NO
 
 GENERATE|  Preliminary Number of Bonds generated:                             0
 GENERATE|  Achieved consistency in connectivity generation.

 CELL| Volume [angstrom^3]:                                             6613.868
 CELL| Vector a [angstrom]:      16.228     0.000     0.000    |a| =      16.228
 CELL| Vector b [angstrom]:      -8.114    14.054     0.000    |b| =      16.228
 CELL| Vector c [angstrom]:       0.000     0.000    29.000    |c| =      29.000
 CELL| Angle (b,c), alpha [degree]:                                       90.000
 CELL| Angle (a,c), beta  [degree]:                                       90.000
 CELL| Angle (a,b), gamma [degree]:                                      120.000
 CELL| Numerically orthorhombic:                                              NO

 CELL_REF| Volume [angstrom^3]:                                         6613.868
 CELL_REF| Vector a [angstrom    16.228     0.000     0.000    |a| =      16.228
 CELL_REF| Vector b [angstrom    -8.114    14.054     0.000    |b| =      16.228
 CELL_REF| Vector c [angstrom     0.000     0.000    29.000    |c| =      29.000
 CELL_REF| Angle (b,c), alpha [degree]:                                   90.000
 CELL_REF| Angle (a,c), beta  [degree]:                                   90.000
 CELL_REF| Angle (a,b), gamma [degree]:                                  120.000
 CELL_REF| Numerically orthorhombic:                                          NO

 *******************************************************************************
 *******************************************************************************
 **                                                                           **
 **     #####                         ##              ##                      **
 **    ##   ##            ##          ##              ##                      **
 **   ##     ##                       ##            ######                    **
 **   ##     ##  ##   ##  ##   #####  ##  ##   ####   ##    #####    #####    **
 **   ##     ##  ##   ##  ##  ##      ## ##   ##      ##   ##   ##  ##   ##   **
 **   ##  ## ##  ##   ##  ##  ##      ####     ###    ##   ######   ######    **
 **    ##  ###   ##   ##  ##  ##      ## ##      ##   ##   ##       ##        **
 **     #######   #####   ##   #####  ##  ##  ####    ##    #####   ##        **
 **           ##                                                    ##        **
 **                                                                           **
 **                                                ... make the atoms dance   **
 **                                                                           **
 **            Copyright (C) by CP2K developers group (2000 - 2018)           **
 **                                                                           **
 *******************************************************************************

 DFT| Spin restricted Kohn-Sham (RKS) calculation                            RKS
 DFT| Multiplicity                                                             1
 DFT| Number of spin states                                                    1
 DFT| Charge                                                                   0
 DFT| Self-interaction correction (SIC)                                       NO
 DFT| Cutoffs: density                                              1.000000E-10
 DFT|          gradient                                             1.000000E-10
 DFT|          tau                                                  1.000000E-10
 DFT|          cutoff_smoothing_range                               0.000000E+00
 DFT| XC density smoothing                                                  NONE
 DFT| XC derivatives                                                          PW
 FUNCTIONAL| ROUTINE=NEW
 FUNCTIONAL| PBE:
 FUNCTIONAL| J.P.Perdew, K.Burke, M.Ernzerhof, Phys. Rev. Letter, vol. 77, n 18,
 FUNCTIONAL|  pp. 3865-3868, (1996){spin unpolarized}                           
 vdW POTENTIAL|                                                   Pair Potential
 vdW POTENTIAL|          DFT-D3 (Version 3.1)
 vdW POTENTIAL|          Potential Form: S. Grimme et al, JCP 132: 154104 (2010)
 vdW POTENTIAL|          Zero Damping
 vdW POTENTIAL|          Cutoff Radius [Bohr]:                             18.90
 vdW POTENTIAL|          s6 Scaling Factor:                               1.0000
 vdW POTENTIAL|          sr6 Scaling Factor:                              1.2170
 vdW POTENTIAL|          s8 Scaling Factor:                               0.7220
 vdW POTENTIAL|          Cutoff for CN calculation:                   0.1000E-05

 QS| Method:                                                                 GPW
 QS| Density plane wave grid type                        NON-SPHERICAL FULLSPACE
 QS| Number of grid levels:                                                    5
 QS| Density cutoff [a.u.]:                                                600.0
 QS| Multi grid cutoff [a.u.]: 1) grid level                               600.0
 QS|                           2) grid level                               200.0
 QS|                           3) grid level                                66.7
 QS|                           4) grid level                                22.2
 QS|                           5) grid level                                 7.4
 QS| Grid level progression factor:                                          3.0
 QS| Relative density cutoff [a.u.]:                                        20.0
 QS| Consistent realspace mapping and integration 
 QS| Interaction thresholds: eps_pgf_orb:                                1.0E-07
 QS|                         eps_filter_matrix:                          0.0E+00
 QS|                         eps_core_charge:                            1.0E-16
 QS|                         eps_rho_gspace:                             1.0E-14
 QS|                         eps_rho_rspace:                             1.0E-14
 QS|                         eps_gvg_rspace:                             1.0E-07
 QS|                         eps_ppl:                                    1.0E-02
 QS|                         eps_ppnl:                                   1.0E-09


 ATOMIC KIND INFORMATION

  1. Atomic kind: Ga                                    Number of atoms:     150

     Orbital Basis Set                                        DZVP-MOLOPT-SR-GTH

       Number of orbital shell sets:                                           1
       Number of orbital shells:                                               7
       Number of primitive Cartesian functions:                                6
       Number of Cartesian basis functions:                                   30
       Number of spherical basis functions:                                   25
       Norm type:                                                              2

       Normalised Cartesian orbitals:

                        Set   Shell   Orbital            Exponent    Coefficient

                          1       1    2s                7.066654       0.013136
                                                         3.428369      -0.094392
                                                         1.430064       0.265435
                                                         0.571611       0.056465
                                                         0.232197      -0.192187
                                                         0.076562      -0.044987

                          1       2    3s                7.066654      -0.098564
                                                         3.428369       0.010390
                                                         1.430064       0.351249
                                                         0.571611       0.182615
                                                         0.232197      -0.425358
                                                         0.076562       0.190349

                          1       3    3px               7.066654       0.002364
                                                         3.428369       0.019222
                                                         1.430064       0.250132
                                                         0.571611      -0.058486
                                                         0.232197      -0.159451
                                                         0.076562      -0.020696
                          1       3    3py               7.066654       0.002364
                                                         3.428369       0.019222
                                                         1.430064       0.250132
                                                         0.571611      -0.058486
                                                         0.232197      -0.159451
                                                         0.076562      -0.020696
                          1       3    3pz               7.066654       0.002364
                                                         3.428369       0.019222
                                                         1.430064       0.250132
                                                         0.571611      -0.058486
                                                         0.232197      -0.159451
                                                         0.076562      -0.020696

                          1       4    4px               7.066654       0.492448
                                                         3.428369      -0.614736
                                                         1.430064      -0.191654
                                                         0.571611       0.037801
                                                         0.232197       0.302315
                                                         0.076562      -0.071336
                          1       4    4py               7.066654       0.492448
                                                         3.428369      -0.614736
                                                         1.430064      -0.191654
                                                         0.571611       0.037801
                                                         0.232197       0.302315
                                                         0.076562      -0.071336
                          1       4    4pz               7.066654       0.492448
                                                         3.428369      -0.614736
                                                         1.430064      -0.191654
                                                         0.571611       0.037801
                                                         0.232197       0.302315
                                                         0.076562      -0.071336

                          1       5    4dx2              7.066654     -15.264855
                                                         3.428369      -5.345726
                                                         1.430064      -1.022732
                                                         0.571611      -0.123148
                                                         0.232197      -0.006983
                                                         0.076562      -0.000022
                          1       5    4dxy              7.066654     -26.439504
                                                         3.428369      -9.259069
                                                         1.430064      -1.771423
                                                         0.571611      -0.213299
                                                         0.232197      -0.012094
                                                         0.076562      -0.000037
                          1       5    4dxz              7.066654     -26.439504
                                                         3.428369      -9.259069
                                                         1.430064      -1.771423
                                                         0.571611      -0.213299
                                                         0.232197      -0.012094
                                                         0.076562      -0.000037
                          1       5    4dy2              7.066654     -15.264855
                                                         3.428369      -5.345726
                                                         1.430064      -1.022732
                                                         0.571611      -0.123148
                                                         0.232197      -0.006983
                                                         0.076562      -0.000022
                          1       5    4dyz              7.066654     -26.439504
                                                         3.428369      -9.259069
                                                         1.430064      -1.771423
                                                         0.571611      -0.213299
                                                         0.232197      -0.012094
                                                         0.076562      -0.000037
                          1       5    4dz2              7.066654     -15.264855
                                                         3.428369      -5.345726
                                                         1.430064      -1.022732
                                                         0.571611      -0.123148
                                                         0.232197      -0.006983
                                                         0.076562      -0.000022

                          1       6    5dx2              7.066654      -5.739265
                                                         3.428369      -2.129289
                                                         1.430064      -0.700423
                                                         0.571611       0.161606
                                                         0.232197       0.043513
                                                         0.076562       0.011205
                          1       6    5dxy              7.066654      -9.940698
                                                         3.428369      -3.688037
                                                         1.430064      -1.213168
                                                         0.571611       0.279909
                                                         0.232197       0.075368
                                                         0.076562       0.019407
                          1       6    5dxz              7.066654      -9.940698
                                                         3.428369      -3.688037
                                                         1.430064      -1.213168
                                                         0.571611       0.279909
                                                         0.232197       0.075368
                                                         0.076562       0.019407
                          1       6    5dy2              7.066654      -5.739265
                                                         3.428369      -2.129289
                                                         1.430064      -0.700423
                                                         0.571611       0.161606
                                                         0.232197       0.043513
                                                         0.076562       0.011205
                          1       6    5dyz              7.066654      -9.940698
                                                         3.428369      -3.688037
                                                         1.430064      -1.213168
                                                         0.571611       0.279909
                                                         0.232197       0.075368
                                                         0.076562       0.019407
                          1       6    5dz2              7.066654      -5.739265
                                                         3.428369      -2.129289
                                                         1.430064      -0.700423
                                                         0.571611       0.161606
                                                         0.232197       0.043513
                                                         0.076562       0.011205

                          1       7    5fx3              7.066654       0.705879
                                                         3.428369      -0.273976
                                                         1.430064       0.113667
                                                         0.571611       0.132480
                                                         0.232197       0.012437
                                                         0.076562       0.003241
                          1       7    5fx2y             7.066654       1.578393
                                                         3.428369      -0.612629
                                                         1.430064       0.254167
                                                         0.571611       0.296234
                                                         0.232197       0.027811
                                                         0.076562       0.007246
                          1       7    5fx2z             7.066654       1.578393
                                                         3.428369      -0.612629
                                                         1.430064       0.254167
                                                         0.571611       0.296234
                                                         0.232197       0.027811
                                                         0.076562       0.007246
                          1       7    5fxy2             7.066654       1.578393
                                                         3.428369      -0.612629
                                                         1.430064       0.254167
                                                         0.571611       0.296234
                                                         0.232197       0.027811
                                                         0.076562       0.007246
                          1       7    5fxyz             7.066654       2.733856
                                                         3.428369      -1.061105
                                                         1.430064       0.440230
                                                         0.571611       0.513092
                                                         0.232197       0.048170
                                                         0.076562       0.012551
                          1       7    5fxz2             7.066654       1.578393
                                                         3.428369      -0.612629
                                                         1.430064       0.254167
                                                         0.571611       0.296234
                                                         0.232197       0.027811
                                                         0.076562       0.007246
                          1       7    5fy3              7.066654       0.705879
                                                         3.428369      -0.273976
                                                         1.430064       0.113667
                                                         0.571611       0.132480
                                                         0.232197       0.012437
                                                         0.076562       0.003241
                          1       7    5fy2z             7.066654       1.578393
                                                         3.428369      -0.612629
                                                         1.430064       0.254167
                                                         0.571611       0.296234
                                                         0.232197       0.027811
                                                         0.076562       0.007246
                          1       7    5fyz2             7.066654       1.578393
                                                         3.428369      -0.612629
                                                         1.430064       0.254167
                                                         0.571611       0.296234
                                                         0.232197       0.027811
                                                         0.076562       0.007246
                          1       7    5fz3              7.066654       0.705879
                                                         3.428369      -0.273976
                                                         1.430064       0.113667
                                                         0.571611       0.132480
                                                         0.232197       0.012437
                                                         0.076562       0.003241

     GTH Potential information for                                   GTH-PBE-q13

       Description:                       Goedecker-Teter-Hutter pseudopotential
                                           Goedecker et al., PRB 54, 1703 (1996)
                                          Hartwigsen et al., PRB 58, 3641 (1998)
                                                      Krack, TCA 114, 145 (2005)

       Gaussian exponent of the core charge distribution:               2.082466
       Electronic configuration (s p d ...):                           2   1  10

       Parameters of the local part of the GTH pseudopotential:

                          rloc        C1          C2          C3          C4
                        0.490000

       Parameters of the non-local part of the GTH pseudopotential:

                   l      r(l)      h(i,j,l)

                   0    0.416777   10.475690   -4.921768    0.870706
                                   -4.921768    7.770178   -2.248152
                                    0.870706   -2.248152    1.784415
                   1    0.569627    1.777985    0.195860
                                    0.195860   -0.231744
                   2    0.238126  -16.248680

  2. Atomic kind: N                                     Number of atoms:     150

     Orbital Basis Set                                        DZVP-MOLOPT-SR-GTH

       Number of orbital shell sets:                                           1
       Number of orbital shells:                                               5
       Number of primitive Cartesian functions:                                5
       Number of Cartesian basis functions:                                   14
       Number of spherical basis functions:                                   13
       Norm type:                                                              2

       Normalised Cartesian orbitals:

                        Set   Shell   Orbital            Exponent    Coefficient

                          1       1    2s                7.341988       0.360561
                                                         2.542637       0.139177
                                                         0.888575      -0.289383
                                                         0.333802      -0.182244
                                                         0.112012      -0.019197

                          1       2    3s                7.341988       0.282000
                                                         2.542637       0.177875
                                                         0.888575      -0.278381
                                                         0.333802       0.008577
                                                         0.112012       0.154176

                          1       3    3px               7.341988      -1.188719
                                                         2.542637      -0.973969
                                                         0.888575      -0.501079
                                                         0.333802      -0.144894
                                                         0.112012      -0.013986
                          1       3    3py               7.341988      -1.188719
                                                         2.542637      -0.973969
                                                         0.888575      -0.501079
                                                         0.333802      -0.144894
                                                         0.112012      -0.013986
                          1       3    3pz               7.341988      -1.188719
                                                         2.542637      -0.973969
                                                         0.888575      -0.501079
                                                         0.333802      -0.144894
                                                         0.112012      -0.013986

                          1       4    4px               7.341988      -0.094798
                                                         2.542637       0.050069
                                                         0.888575      -0.114797
                                                         0.333802       0.144793
                                                         0.112012       0.066710
                          1       4    4py               7.341988      -0.094798
                                                         2.542637       0.050069
                                                         0.888575      -0.114797
                                                         0.333802       0.144793
                                                         0.112012       0.066710
                          1       4    4pz               7.341988      -0.094798
                                                         2.542637       0.050069
                                                         0.888575      -0.114797
                                                         0.333802       0.144793
                                                         0.112012       0.066710

                          1       5    4dx2              7.341988       1.354688
                                                         2.542637       0.690378
                                                         0.888575       0.855359
                                                         0.333802       0.091746
                                                         0.112012       0.001253
                          1       5    4dxy              7.341988       2.346389
                                                         2.542637       1.195770
                                                         0.888575       1.481524
                                                         0.333802       0.158910
                                                         0.112012       0.002169
                          1       5    4dxz              7.341988       2.346389
                                                         2.542637       1.195770
                                                         0.888575       1.481524
                                                         0.333802       0.158910
                                                         0.112012       0.002169
                          1       5    4dy2              7.341988       1.354688
                                                         2.542637       0.690378
                                                         0.888575       0.855359
                                                         0.333802       0.091746
                                                         0.112012       0.001253
                          1       5    4dyz              7.341988       2.346389
                                                         2.542637       1.195770
                                                         0.888575       1.481524
                                                         0.333802       0.158910
                                                         0.112012       0.002169
                          1       5    4dz2              7.341988       1.354688
                                                         2.542637       0.690378
                                                         0.888575       0.855359
                                                         0.333802       0.091746
                                                         0.112012       0.001253

     GTH Potential information for                                    GTH-PBE-q5

       Description:                       Goedecker-Teter-Hutter pseudopotential
                                           Goedecker et al., PRB 54, 1703 (1996)
                                          Hartwigsen et al., PRB 58, 3641 (1998)
                                                      Krack, TCA 114, 145 (2005)

       Gaussian exponent of the core charge distribution:               6.208322
       Electronic configuration (s p d ...):                               2   3

       Parameters of the local part of the GTH pseudopotential:

                          rloc        C1          C2          C3          C4
                        0.283791  -12.415226    1.868096

       Parameters of the non-local part of the GTH pseudopotential:

                   l      r(l)      h(i,j,l)

                   0    0.255405   13.630263
                   1    0.245495


 MOLECULE KIND INFORMATION


 All atoms are their own molecule, skipping detailed information


 TOTAL NUMBERS AND MAXIMUM NUMBERS

  Total number of            - Atomic kinds:                                   2
                             - Atoms:                                        300
                             - Shell sets:                                   300
                             - Shells:                                      1800
                             - Primitive Cartesian functions:               1650
                             - Cartesian basis functions:                   6600
                             - Spherical basis functions:                   5700

  Maximum angular momentum of- Orbital basis functions:                        3
                             - Local part of the GTH pseudopotential:          2
                             - Non-local part of the GTH pseudopotential:      4


 MODULE QUICKSTEP:  ATOMIC COORDINATES IN angstrom

  Atom  Kind  Element       X           Y           Z          Z(eff)       Mass

       1     1 Ga  31    0.000000    0.000000    0.000000     13.00      69.7230
       2     2 N    7    0.000000    1.873841    0.619431      5.00      14.0067
       3     1 Ga  31    0.000000    1.873841    2.593000     13.00      69.7230
       4     2 N    7    0.000000    0.000000    3.212431      5.00      14.0067
       5     1 Ga  31    0.000000    0.000000    5.186000     13.00      69.7230
       6     2 N    7    0.000000    1.873841    5.805431      5.00      14.0067
       7     1 Ga  31    0.000000    1.873841    7.779000     13.00      69.7230
       8     2 N    7    0.000000    0.000000    8.398431      5.00      14.0067
       9     1 Ga  31    0.000000    0.000000   10.372000     13.00      69.7230
      10     2 N    7    0.000000    1.873841   10.991431      5.00      14.0067
      11     1 Ga  31    0.000000    1.873841   12.965000     13.00      69.7230
      12     2 N    7    0.000000    0.000000   13.584431      5.00      14.0067
      13     1 Ga  31   -1.622794    2.810762    0.000000     13.00      69.7230
      14     2 N    7   -1.622794    4.684603    0.619431      5.00      14.0067
      15     1 Ga  31   -1.622794    4.684603    2.593000     13.00      69.7230
      16     2 N    7   -1.622794    2.810762    3.212431      5.00      14.0067
      17     1 Ga  31   -1.622794    2.810762    5.186000     13.00      69.7230
      18     2 N    7   -1.622794    4.684603    5.805431      5.00      14.0067
      19     1 Ga  31   -1.622794    4.684603    7.779000     13.00      69.7230
      20     2 N    7   -1.622794    2.810762    8.398431      5.00      14.0067
      21     1 Ga  31   -1.622794    2.810762   10.372000     13.00      69.7230
      22     2 N    7   -1.622794    4.684603   10.991431      5.00      14.0067
      23     1 Ga  31   -1.622794    4.684603   12.965000     13.00      69.7230
      24     2 N    7   -1.622794    2.810762   13.584431      5.00      14.0067
      25     1 Ga  31   -3.245588    5.621524    0.000000     13.00      69.7230
      26     2 N    7   -3.245588    7.495365    0.619431      5.00      14.0067
      27     1 Ga  31   -3.245588    7.495365    2.593000     13.00      69.7230
      28     2 N    7   -3.245588    5.621524    3.212431      5.00      14.0067
      29     1 Ga  31   -3.245588    5.621524    5.186000     13.00      69.7230
      30     2 N    7   -3.245588    7.495365    5.805431      5.00      14.0067
      31     1 Ga  31   -3.245588    7.495365    7.779000     13.00      69.7230
      32     2 N    7   -3.245588    5.621524    8.398431      5.00      14.0067
      33     1 Ga  31   -3.245588    5.621524   10.372000     13.00      69.7230
      34     2 N    7   -3.245588    7.495365   10.991431      5.00      14.0067
      35     1 Ga  31   -3.245588    7.495365   12.965000     13.00      69.7230
      36     2 N    7   -3.245588    5.621524   13.584431      5.00      14.0067
      37     1 Ga  31   -4.868383    8.432286    0.000000     13.00      69.7230
      38     2 N    7   -4.868383   10.306127    0.619431      5.00      14.0067
      39     1 Ga  31   -4.868383   10.306127    2.593000     13.00      69.7230
      40     2 N    7   -4.868383    8.432286    3.212431      5.00      14.0067
      41     1 Ga  31   -4.868383    8.432286    5.186000     13.00      69.7230
      42     2 N    7   -4.868383   10.306127    5.805431      5.00      14.0067
      43     1 Ga  31   -4.868383   10.306127    7.779000     13.00      69.7230
      44     2 N    7   -4.868383    8.432286    8.398431      5.00      14.0067
      45     1 Ga  31   -4.868383    8.432286   10.372000     13.00      69.7230
      46     2 N    7   -4.868383   10.306127   10.991431      5.00      14.0067
      47     1 Ga  31   -4.868383   10.306127   12.965000     13.00      69.7230
      48     2 N    7   -4.868383    8.432286   13.584431      5.00      14.0067
      49     1 Ga  31   -6.491177   11.243048    0.000000     13.00      69.7230
      50     2 N    7   -6.491177   13.116890    0.619431      5.00      14.0067
      51     1 Ga  31   -6.491177   13.116890    2.593000     13.00      69.7230
      52     2 N    7   -6.491177   11.243048    3.212431      5.00      14.0067
      53     1 Ga  31   -6.491177   11.243048    5.186000     13.00      69.7230
      54     2 N    7   -6.491177   13.116890    5.805431      5.00      14.0067
      55     1 Ga  31   -6.491177   13.116890    7.779000     13.00      69.7230
      56     2 N    7   -6.491177   11.243048    8.398431      5.00      14.0067
      57     1 Ga  31   -6.491177   11.243048   10.372000     13.00      69.7230
      58     2 N    7   -6.491177   13.116890   10.991431      5.00      14.0067
      59     1 Ga  31   -6.491177   13.116890   12.965000     13.00      69.7230
      60     2 N    7   -6.491177   11.243048   13.584431      5.00      14.0067
      61     1 Ga  31    3.245588    0.000000    0.000000     13.00      69.7230
      62     2 N    7    3.245588    1.873841    0.619431      5.00      14.0067
      63     1 Ga  31    3.245588    1.873841    2.593000     13.00      69.7230
      64     2 N    7    3.245588    0.000000    3.212431      5.00      14.0067
      65     1 Ga  31    3.245588    0.000000    5.186000     13.00      69.7230
      66     2 N    7    3.245588    1.873841    5.805431      5.00      14.0067
      67     1 Ga  31    3.245588    1.873841    7.779000     13.00      69.7230
      68     2 N    7    3.245588    0.000000    8.398431      5.00      14.0067
      69     1 Ga  31    3.245588    0.000000   10.372000     13.00      69.7230
      70     2 N    7    3.245588    1.873841   10.991431      5.00      14.0067
      71     1 Ga  31    3.245588    1.873841   12.965000     13.00      69.7230
      72     2 N    7    3.245588    0.000000   13.584431      5.00      14.0067
      73     1 Ga  31    1.622794    2.810762    0.000000     13.00      69.7230
      74     2 N    7    1.622794    4.684603    0.619431      5.00      14.0067
      75     1 Ga  31    1.622794    4.684603    2.593000     13.00      69.7230
      76     2 N    7    1.622794    2.810762    3.212431      5.00      14.0067
      77     1 Ga  31    1.622794    2.810762    5.186000     13.00      69.7230
      78     2 N    7    1.622794    4.684603    5.805431      5.00      14.0067
      79     1 Ga  31    1.622794    4.684603    7.779000     13.00      69.7230
      80     2 N    7    1.622794    2.810762    8.398431      5.00      14.0067
      81     1 Ga  31    1.622794    2.810762   10.372000     13.00      69.7230
      82     2 N    7    1.622794    4.684603   10.991431      5.00      14.0067
      83     1 Ga  31    1.622794    4.684603   12.965000     13.00      69.7230
      84     2 N    7    1.622794    2.810762   13.584431      5.00      14.0067
      85     1 Ga  31    0.000000    5.621524    0.000000     13.00      69.7230
      86     2 N    7    0.000000    7.495365    0.619431      5.00      14.0067
      87     1 Ga  31    0.000000    7.495365    2.593000     13.00      69.7230
      88     2 N    7    0.000000    5.621524    3.212431      5.00      14.0067
      89     1 Ga  31    0.000000    5.621524    5.186000     13.00      69.7230
      90     2 N    7    0.000000    7.495365    5.805431      5.00      14.0067
      91     1 Ga  31    0.000000    7.495365    7.779000     13.00      69.7230
      92     2 N    7    0.000000    5.621524    8.398431      5.00      14.0067
      93     1 Ga  31    0.000000    5.621524   10.372000     13.00      69.7230
      94     2 N    7    0.000000    7.495365   10.991431      5.00      14.0067
      95     1 Ga  31    0.000000    7.495365   12.965000     13.00      69.7230
      96     2 N    7    0.000000    5.621524   13.584431      5.00      14.0067
      97     1 Ga  31   -1.622794    8.432286    0.000000     13.00      69.7230
      98     2 N    7   -1.622794   10.306127    0.619431      5.00      14.0067
      99     1 Ga  31   -1.622794   10.306127    2.593000     13.00      69.7230
     100     2 N    7   -1.622794    8.432286    3.212431      5.00      14.0067
     101     1 Ga  31   -1.622794    8.432286    5.186000     13.00      69.7230
     102     2 N    7   -1.622794   10.306127    5.805431      5.00      14.0067
     103     1 Ga  31   -1.622794   10.306127    7.779000     13.00      69.7230
     104     2 N    7   -1.622794    8.432286    8.398431      5.00      14.0067
     105     1 Ga  31   -1.622794    8.432286   10.372000     13.00      69.7230
     106     2 N    7   -1.622794   10.306127   10.991431      5.00      14.0067
     107     1 Ga  31   -1.622794   10.306127   12.965000     13.00      69.7230
     108     2 N    7   -1.622794    8.432286   13.584431      5.00      14.0067
     109     1 Ga  31   -3.245588   11.243048    0.000000     13.00      69.7230
     110     2 N    7   -3.245588   13.116890    0.619431      5.00      14.0067
     111     1 Ga  31   -3.245588   13.116890    2.593000     13.00      69.7230
     112     2 N    7   -3.245588   11.243048    3.212431      5.00      14.0067
     113     1 Ga  31   -3.245588   11.243048    5.186000     13.00      69.7230
     114     2 N    7   -3.245588   13.116890    5.805431      5.00      14.0067
     115     1 Ga  31   -3.245588   13.116890    7.779000     13.00      69.7230
     116     2 N    7   -3.245588   11.243048    8.398431      5.00      14.0067
     117     1 Ga  31   -3.245588   11.243048   10.372000     13.00      69.7230
     118     2 N    7   -3.245588   13.116890   10.991431      5.00      14.0067
     119     1 Ga  31   -3.245588   13.116890   12.965000     13.00      69.7230
     120     2 N    7   -3.245588   11.243048   13.584431      5.00      14.0067
     121     1 Ga  31    6.491177    0.000000    0.000000     13.00      69.7230
     122     2 N    7    6.491177    1.873841    0.619431      5.00      14.0067
     123     1 Ga  31    6.491177    1.873841    2.593000     13.00      69.7230
     124     2 N    7    6.491177    0.000000    3.212431      5.00      14.0067
     125     1 Ga  31    6.491177    0.000000    5.186000     13.00      69.7230
     126     2 N    7    6.491177    1.873841    5.805431      5.00      14.0067
     127     1 Ga  31    6.491177    1.873841    7.779000     13.00      69.7230
     128     2 N    7    6.491177    0.000000    8.398431      5.00      14.0067
     129     1 Ga  31    6.491177    0.000000   10.372000     13.00      69.7230
     130     2 N    7    6.491177    1.873841   10.991431      5.00      14.0067
     131     1 Ga  31    6.491177    1.873841   12.965000     13.00      69.7230
     132     2 N    7    6.491177    0.000000   13.584431      5.00      14.0067
     133     1 Ga  31    4.868383    2.810762    0.000000     13.00      69.7230
     134     2 N    7    4.868383    4.684603    0.619431      5.00      14.0067
     135     1 Ga  31    4.868383    4.684603    2.593000     13.00      69.7230
     136     2 N    7    4.868383    2.810762    3.212431      5.00      14.0067
     137     1 Ga  31    4.868383    2.810762    5.186000     13.00      69.7230
     138     2 N    7    4.868383    4.684603    5.805431      5.00      14.0067
     139     1 Ga  31    4.868383    4.684603    7.779000     13.00      69.7230
     140     2 N    7    4.868383    2.810762    8.398431      5.00      14.0067
     141     1 Ga  31    4.868383    2.810762   10.372000     13.00      69.7230
     142     2 N    7    4.868383    4.684603   10.991431      5.00      14.0067
     143     1 Ga  31    4.868383    4.684603   12.965000     13.00      69.7230
     144     2 N    7    4.868383    2.810762   13.584431      5.00      14.0067
     145     1 Ga  31    3.245588    5.621524    0.000000     13.00      69.7230
     146     2 N    7    3.245588    7.495365    0.619431      5.00      14.0067
     147     1 Ga  31    3.245588    7.495365    2.593000     13.00      69.7230
     148     2 N    7    3.245588    5.621524    3.212431      5.00      14.0067
     149     1 Ga  31    3.245588    5.621524    5.186000     13.00      69.7230
     150     2 N    7    3.245588    7.495365    5.805431      5.00      14.0067
     151     1 Ga  31    3.245588    7.495365    7.779000     13.00      69.7230
     152     2 N    7    3.245588    5.621524    8.398431      5.00      14.0067
     153     1 Ga  31    3.245588    5.621524   10.372000     13.00      69.7230
     154     2 N    7    3.245588    7.495365   10.991431      5.00      14.0067
     155     1 Ga  31    3.245588    7.495365   12.965000     13.00      69.7230
     156     2 N    7    3.245588    5.621524   13.584431      5.00      14.0067
     157     1 Ga  31    1.622794    8.432286    0.000000     13.00      69.7230
     158     2 N    7    1.622794   10.306127    0.619431      5.00      14.0067
     159     1 Ga  31    1.622794   10.306127    2.593000     13.00      69.7230
     160     2 N    7    1.622794    8.432286    3.212431      5.00      14.0067
     161     1 Ga  31    1.622794    8.432286    5.186000     13.00      69.7230
     162     2 N    7    1.622794   10.306127    5.805431      5.00      14.0067
     163     1 Ga  31    1.622794   10.306127    7.779000     13.00      69.7230
     164     2 N    7    1.622794    8.432286    8.398431      5.00      14.0067
     165     1 Ga  31    1.622794    8.432286   10.372000     13.00      69.7230
     166     2 N    7    1.622794   10.306127   10.991431      5.00      14.0067
     167     1 Ga  31    1.622794   10.306127   12.965000     13.00      69.7230
     168     2 N    7    1.622794    8.432286   13.584431      5.00      14.0067
     169     1 Ga  31    0.000000   11.243048    0.000000     13.00      69.7230
     170     2 N    7    0.000000   13.116890    0.619431      5.00      14.0067
     171     1 Ga  31    0.000000   13.116890    2.593000     13.00      69.7230
     172     2 N    7    0.000000   11.243048    3.212431      5.00      14.0067
     173     1 Ga  31    0.000000   11.243048    5.186000     13.00      69.7230
     174     2 N    7    0.000000   13.116890    5.805431      5.00      14.0067
     175     1 Ga  31    0.000000   13.116890    7.779000     13.00      69.7230
     176     2 N    7    0.000000   11.243048    8.398431      5.00      14.0067
     177     1 Ga  31    0.000000   11.243048   10.372000     13.00      69.7230
     178     2 N    7    0.000000   13.116890   10.991431      5.00      14.0067
     179     1 Ga  31    0.000000   13.116890   12.965000     13.00      69.7230
     180     2 N    7    0.000000   11.243048   13.584431      5.00      14.0067
     181     1 Ga  31    9.736765    0.000000    0.000000     13.00      69.7230
     182     2 N    7    9.736765    1.873841    0.619431      5.00      14.0067
     183     1 Ga  31    9.736765    1.873841    2.593000     13.00      69.7230
     184     2 N    7    9.736765    0.000000    3.212431      5.00      14.0067
     185     1 Ga  31    9.736765    0.000000    5.186000     13.00      69.7230
     186     2 N    7    9.736765    1.873841    5.805431      5.00      14.0067
     187     1 Ga  31    9.736765    1.873841    7.779000     13.00      69.7230
     188     2 N    7    9.736765    0.000000    8.398431      5.00      14.0067
     189     1 Ga  31    9.736765    0.000000   10.372000     13.00      69.7230
     190     2 N    7    9.736765    1.873841   10.991431      5.00      14.0067
     191     1 Ga  31    9.736765    1.873841   12.965000     13.00      69.7230
     192     2 N    7    9.736765    0.000000   13.584431      5.00      14.0067
     193     1 Ga  31    8.113971    2.810762    0.000000     13.00      69.7230
     194     2 N    7    8.113971    4.684603    0.619431      5.00      14.0067
     195     1 Ga  31    8.113971    4.684603    2.593000     13.00      69.7230
     196     2 N    7    8.113971    2.810762    3.212431      5.00      14.0067
     197     1 Ga  31    8.113971    2.810762    5.186000     13.00      69.7230
     198     2 N    7    8.113971    4.684603    5.805431      5.00      14.0067
     199     1 Ga  31    8.113971    4.684603    7.779000     13.00      69.7230
     200     2 N    7    8.113971    2.810762    8.398431      5.00      14.0067
     201     1 Ga  31    8.113971    2.810762   10.372000     13.00      69.7230
     202     2 N    7    8.113971    4.684603   10.991431      5.00      14.0067
     203     1 Ga  31    8.113971    4.684603   12.965000     13.00      69.7230
     204     2 N    7    8.113971    2.810762   13.584431      5.00      14.0067
     205     1 Ga  31    6.491177    5.621524    0.000000     13.00      69.7230
     206     2 N    7    6.491177    7.495365    0.619431      5.00      14.0067
     207     1 Ga  31    6.491177    7.495365    2.593000     13.00      69.7230
     208     2 N    7    6.491177    5.621524    3.212431      5.00      14.0067
     209     1 Ga  31    6.491177    5.621524    5.186000     13.00      69.7230
     210     2 N    7    6.491177    7.495365    5.805431      5.00      14.0067
     211     1 Ga  31    6.491177    7.495365    7.779000     13.00      69.7230
     212     2 N    7    6.491177    5.621524    8.398431      5.00      14.0067
     213     1 Ga  31    6.491177    5.621524   10.372000     13.00      69.7230
     214     2 N    7    6.491177    7.495365   10.991431      5.00      14.0067
     215     1 Ga  31    6.491177    7.495365   12.965000     13.00      69.7230
     216     2 N    7    6.491177    5.621524   13.584431      5.00      14.0067
     217     1 Ga  31    4.868383    8.432286    0.000000     13.00      69.7230
     218     2 N    7    4.868383   10.306127    0.619431      5.00      14.0067
     219     1 Ga  31    4.868383   10.306127    2.593000     13.00      69.7230
     220     2 N    7    4.868383    8.432286    3.212431      5.00      14.0067
     221     1 Ga  31    4.868383    8.432286    5.186000     13.00      69.7230
     222     2 N    7    4.868383   10.306127    5.805431      5.00      14.0067
     223     1 Ga  31    4.868383   10.306127    7.779000     13.00      69.7230
     224     2 N    7    4.868383    8.432286    8.398431      5.00      14.0067
     225     1 Ga  31    4.868383    8.432286   10.372000     13.00      69.7230
     226     2 N    7    4.868383   10.306127   10.991431      5.00      14.0067
     227     1 Ga  31    4.868383   10.306127   12.965000     13.00      69.7230
     228     2 N    7    4.868383    8.432286   13.584431      5.00      14.0067
     229     1 Ga  31    3.245588   11.243048    0.000000     13.00      69.7230
     230     2 N    7    3.245588   13.116890    0.619431      5.00      14.0067
     231     1 Ga  31    3.245588   13.116890    2.593000     13.00      69.7230
     232     2 N    7    3.245588   11.243048    3.212431      5.00      14.0067
     233     1 Ga  31    3.245588   11.243048    5.186000     13.00      69.7230
     234     2 N    7    3.245588   13.116890    5.805431      5.00      14.0067
     235     1 Ga  31    3.245588   13.116890    7.779000     13.00      69.7230
     236     2 N    7    3.245588   11.243048    8.398431      5.00      14.0067
     237     1 Ga  31    3.245588   11.243048   10.372000     13.00      69.7230
     238     2 N    7    3.245588   13.116890   10.991431      5.00      14.0067
     239     1 Ga  31    3.245588   13.116890   12.965000     13.00      69.7230
     240     2 N    7    3.245588   11.243048   13.584431      5.00      14.0067
     241     1 Ga  31   12.982354    0.000000    0.000000     13.00      69.7230
     242     2 N    7   12.982354    1.873841    0.619431      5.00      14.0067
     243     1 Ga  31   12.982354    1.873841    2.593000     13.00      69.7230
     244     2 N    7   12.982354    0.000000    3.212431      5.00      14.0067
     245     1 Ga  31   12.982354    0.000000    5.186000     13.00      69.7230
     246     2 N    7   12.982354    1.873841    5.805431      5.00      14.0067
     247     1 Ga  31   12.982354    1.873841    7.779000     13.00      69.7230
     248     2 N    7   12.982354    0.000000    8.398431      5.00      14.0067
     249     1 Ga  31   12.982354    0.000000   10.372000     13.00      69.7230
     250     2 N    7   12.982354    1.873841   10.991431      5.00      14.0067
     251     1 Ga  31   12.982354    1.873841   12.965000     13.00      69.7230
     252     2 N    7   12.982354    0.000000   13.584431      5.00      14.0067
     253     1 Ga  31   11.359560    2.810762    0.000000     13.00      69.7230
     254     2 N    7   11.359560    4.684603    0.619431      5.00      14.0067
     255     1 Ga  31   11.359560    4.684603    2.593000     13.00      69.7230
     256     2 N    7   11.359560    2.810762    3.212431      5.00      14.0067
     257     1 Ga  31   11.359560    2.810762    5.186000     13.00      69.7230
     258     2 N    7   11.359560    4.684603    5.805431      5.00      14.0067
     259     1 Ga  31   11.359560    4.684603    7.779000     13.00      69.7230
     260     2 N    7   11.359560    2.810762    8.398431      5.00      14.0067
     261     1 Ga  31   11.359560    2.810762   10.372000     13.00      69.7230
     262     2 N    7   11.359560    4.684603   10.991431      5.00      14.0067
     263     1 Ga  31   11.359560    4.684603   12.965000     13.00      69.7230
     264     2 N    7   11.359560    2.810762   13.584431      5.00      14.0067
     265     1 Ga  31    9.736765    5.621524    0.000000     13.00      69.7230
     266     2 N    7    9.736765    7.495365    0.619431      5.00      14.0067
     267     1 Ga  31    9.736765    7.495365    2.593000     13.00      69.7230
     268     2 N    7    9.736765    5.621524    3.212431      5.00      14.0067
     269     1 Ga  31    9.736765    5.621524    5.186000     13.00      69.7230
     270     2 N    7    9.736765    7.495365    5.805431      5.00      14.0067
     271     1 Ga  31    9.736765    7.495365    7.779000     13.00      69.7230
     272     2 N    7    9.736765    5.621524    8.398431      5.00      14.0067
     273     1 Ga  31    9.736765    5.621524   10.372000     13.00      69.7230
     274     2 N    7    9.736765    7.495365   10.991431      5.00      14.0067
     275     1 Ga  31    9.736765    7.495365   12.965000     13.00      69.7230
     276     2 N    7    9.736765    5.621524   13.584431      5.00      14.0067
     277     1 Ga  31    8.113971    8.432286    0.000000     13.00      69.7230
     278     2 N    7    8.113971   10.306127    0.619431      5.00      14.0067
     279     1 Ga  31    8.113971   10.306127    2.593000     13.00      69.7230
     280     2 N    7    8.113971    8.432286    3.212431      5.00      14.0067
     281     1 Ga  31    8.113971    8.432286    5.186000     13.00      69.7230
     282     2 N    7    8.113971   10.306127    5.805431      5.00      14.0067
     283     1 Ga  31    8.113971   10.306127    7.779000     13.00      69.7230
     284     2 N    7    8.113971    8.432286    8.398431      5.00      14.0067
     285     1 Ga  31    8.113971    8.432286   10.372000     13.00      69.7230
     286     2 N    7    8.113971   10.306127   10.991431      5.00      14.0067
     287     1 Ga  31    8.113971   10.306127   12.965000     13.00      69.7230
     288     2 N    7    8.113971    8.432286   13.584431      5.00      14.0067
     289     1 Ga  31    6.491177   11.243048    0.000000     13.00      69.7230
     290     2 N    7    6.491177   13.116890    0.619431      5.00      14.0067
     291     1 Ga  31    6.491177   13.116890    2.593000     13.00      69.7230
     292     2 N    7    6.491177   11.243048    3.212431      5.00      14.0067
     293     1 Ga  31    6.491177   11.243048    5.186000     13.00      69.7230
     294     2 N    7    6.491177   13.116890    5.805431      5.00      14.0067
     295     1 Ga  31    6.491177   13.116890    7.779000     13.00      69.7230
     296     2 N    7    6.491177   11.243048    8.398431      5.00      14.0067
     297     1 Ga  31    6.491177   11.243048   10.372000     13.00      69.7230
     298     2 N    7    6.491177   13.116890   10.991431      5.00      14.0067
     299     1 Ga  31    6.491177   13.116890   12.965000     13.00      69.7230
     300     2 N    7    6.491177   11.243048   13.584431      5.00      14.0067




 SCF PARAMETERS         Density guess:                                    ATOMIC
                        --------------------------------------------------------
                        max_scf:                                             100
                        max_scf_history:                                       0
                        max_diis:                                              4
                        --------------------------------------------------------
                        eps_scf:                                        5.00E-06
                        eps_scf_history:                                0.00E+00
                        eps_diis:                                       1.00E-01
                        eps_eigval:                                     1.00E-05
                        --------------------------------------------------------
                        level_shift [a.u.]:                                 0.00
                        --------------------------------------------------------
                        Outer loop SCF in use 
                        No variables optimised in outer loop
                        eps_scf                                         5.00E-06
                        max_scf                                                4
                        No outer loop optimization
                        step_size                                       5.00E-01

 PW_GRID| Information for grid number                                          1
 PW_GRID| Grid distributed over                                   120 processors
 PW_GRID| Real space group dimensions                                   120    1
 PW_GRID| the grid is blocked:                                                NO
 PW_GRID| Cutoff [a.u.]                                                    600.0
 PW_GRID| spherical cutoff:                                                   NO
 PW_GRID|   Bounds   1           -180     179                Points:         360
 PW_GRID|   Bounds   2           -180     179                Points:         360
 PW_GRID|   Bounds   3           -312     312                Points:         625
 PW_GRID| Volume element (a.u.^3)  0.5510E-03     Volume (a.u.^3)     44632.5954
 PW_GRID| Grid span                                                    FULLSPACE
 PW_GRID|   Distribution                         Average         Max         Min
 PW_GRID|   G-Vectors                           675000.0      675000      675000
 PW_GRID|   G-Rays                                1875.0        1875        1875
 PW_GRID|   Real Space Points                   675000.0      675000      675000

 PW_GRID| Information for grid number                                          2
 PW_GRID| Grid distributed over                                   120 processors
 PW_GRID| Real space group dimensions                                   120    1
 PW_GRID| the grid is blocked:                                                NO
 PW_GRID| Cutoff [a.u.]                                                    200.0
 PW_GRID| spherical cutoff:                                                   NO
 PW_GRID|   Bounds   1           -100      99                Points:         200
 PW_GRID|   Bounds   2           -100      99                Points:         200
 PW_GRID|   Bounds   3           -180     179                Points:         360
 PW_GRID| Volume element (a.u.^3)  0.3099E-02     Volume (a.u.^3)     44632.5954
 PW_GRID| Grid span                                                    FULLSPACE
 PW_GRID|   Distribution                         Average         Max         Min
 PW_GRID|   G-Vectors                           120000.0      121000      118400
 PW_GRID|   G-Rays                                 600.0         605         592
 PW_GRID|   Real Space Points                   120000.0      144000       72000

 PW_GRID| Information for grid number                                          3
 PW_GRID| Grid distributed over                                   120 processors
 PW_GRID| Real space group dimensions                                   120    1
 PW_GRID| the grid is blocked:                                                NO
 PW_GRID| Cutoff [a.u.]                                                     66.7
 PW_GRID| spherical cutoff:                                                   NO
 PW_GRID|   Bounds   1            -60      59                Points:         120
 PW_GRID|   Bounds   2            -60      59                Points:         120
 PW_GRID|   Bounds   3           -108     107                Points:         216
 PW_GRID| Volume element (a.u.^3)  0.1435E-01     Volume (a.u.^3)     44632.5954
 PW_GRID| Grid span                                                    FULLSPACE
 PW_GRID|   Distribution                         Average         Max         Min
 PW_GRID|   G-Vectors                            25920.0       27120       24720
 PW_GRID|   G-Rays                                 216.0         226         206
 PW_GRID|   Real Space Points                    25920.0       25920       25920

 PW_GRID| Information for grid number                                          4
 PW_GRID| Grid distributed over                                   120 processors
 PW_GRID| Real space group dimensions                                    10   12
 PW_GRID| the grid is blocked:                                                NO
 PW_GRID| Cutoff [a.u.]                                                     22.2
 PW_GRID| spherical cutoff:                                                   NO
 PW_GRID|   Bounds   1            -36      35                Points:          72
 PW_GRID|   Bounds   2            -36      35                Points:          72
 PW_GRID|   Bounds   3            -60      59                Points:         120
 PW_GRID| Volume element (a.u.^3)  0.7175E-01     Volume (a.u.^3)     44632.5954
 PW_GRID| Grid span                                                    FULLSPACE
 PW_GRID|   Distribution                         Average         Max         Min
 PW_GRID|   G-Vectors                             5184.0        5472        4896
 PW_GRID|   G-Rays                                  72.0          76          68
 PW_GRID|   Real Space Points                     5184.0        5760        5040

 PW_GRID| Information for grid number                                          5
 PW_GRID| Grid distributed over                                   120 processors
 PW_GRID| Real space group dimensions                                    10   12
 PW_GRID| the grid is blocked:                                                NO
 PW_GRID| Cutoff [a.u.]                                                      7.4
 PW_GRID| spherical cutoff:                                                   NO
 PW_GRID|   Bounds   1            -20      19                Points:          40
 PW_GRID|   Bounds   2            -20      19                Points:          40
 PW_GRID|   Bounds   3            -36      35                Points:          72
 PW_GRID| Volume element (a.u.^3)  0.3874         Volume (a.u.^3)     44632.5954
 PW_GRID| Grid span                                                    FULLSPACE
 PW_GRID|   Distribution                         Average         Max         Min
 PW_GRID|   G-Vectors                              960.0        1200         680
 PW_GRID|   G-Rays                                  24.0          30          17
 PW_GRID|   Real Space Points                      960.0        1152         864

 POISSON| Solver                                                        PERIODIC
 POISSON| Periodicity                                                        XYZ

 RS_GRID| Information for grid number                                          1
 RS_GRID|   Bounds   1           -180     179                Points:         360
 RS_GRID|   Bounds   2           -180     179                Points:         360
 RS_GRID|   Bounds   3           -312     312                Points:         625
 RS_GRID| Real space distribution over                                  8 groups
 RS_GRID| Real space distribution along direction                              2
 RS_GRID| Border size                                                         79
 RS_GRID| Real space distribution over                                 15 groups
 RS_GRID| Real space distribution along direction                              3
 RS_GRID| Border size                                                         79
 RS_GRID|   Distribution                         Average         Max         Min
 RS_GRID|   Planes                                 203.0         203         203
 RS_GRID|   Distribution                         Average         Max         Min
 RS_GRID|   Planes                                 199.7         200         199

 RS_GRID| Information for grid number                                          2
 RS_GRID|   Bounds   1           -100      99                Points:         200
 RS_GRID|   Bounds   2           -100      99                Points:         200
 RS_GRID|   Bounds   3           -180     179                Points:         360
 RS_GRID| Real space distribution over                                  8 groups
 RS_GRID| Real space distribution along direction                              2
 RS_GRID| Border size                                                         45
 RS_GRID| Real space distribution over                                 15 groups
 RS_GRID| Real space distribution along direction                              3
 RS_GRID| Border size                                                         45
 RS_GRID|   Distribution                         Average         Max         Min
 RS_GRID|   Planes                                 115.0         115         115
 RS_GRID|   Distribution                         Average         Max         Min
 RS_GRID|   Planes                                 114.0         114         114

 RS_GRID| Information for grid number                                          3
 RS_GRID|   Bounds   1            -60      59                Points:         120
 RS_GRID|   Bounds   2            -60      59                Points:         120
 RS_GRID|   Bounds   3           -108     107                Points:         216
 RS_GRID| Real space fully replicated
 RS_GRID| Group size                                                           1

 RS_GRID| Information for grid number                                          4
 RS_GRID|   Bounds   1            -36      35                Points:          72
 RS_GRID|   Bounds   2            -36      35                Points:          72
 RS_GRID|   Bounds   3            -60      59                Points:         120
 RS_GRID| Real space fully replicated
 RS_GRID| Group size                                                           1

 RS_GRID| Information for grid number                                          5
 RS_GRID|   Bounds   1            -20      19                Points:          40
 RS_GRID|   Bounds   2            -20      19                Points:          40
 RS_GRID|   Bounds   3            -36      35                Points:          72
 RS_GRID| Real space fully replicated
 RS_GRID| Group size                                                           1

 BFGS| Use rational function optimization for step estimation:                NO
 BFGS| Use model Hessian for initial guess:                                  YES
 BFGS| Restart Hessian:                                                       NO
 BFGS| Trust radius:                                                       0.472

 *******************************************************************************
 ***                     STARTING GEOMETRY OPTIMIZATION                      ***
 ***                                   BFGS                                  ***
 *******************************************************************************

 Number of electrons:                                                       2700
 Number of occupied orbitals:                                               1350
 Number of molecular orbitals:                                              1350

 Number of orbital functions:                                               5700
 Number of independent orbital functions:                                   5700

 Extrapolation method: initial_guess

 Atomic guess: The first density matrix is obtained in terms of atomic orbitals
               and electronic configurations assigned to each atomic kind

 Guess for atomic kind: Ga

 Electronic structure
    Total number of core electrons                                         18.00
    Total number of valence electrons                                      13.00
    Total number of electrons                                              31.00
    Multiplicity                                                   not specified
    S   [  2.00  2.00  2.00] 2.00
    P   [  6.00  6.00] 1.00
    D     10.00
 

 *******************************************************************************
                  Iteration          Convergence                     Energy [au]
 *******************************************************************************
                          1         22.1524                     -44.516413224335
                          2         1.91043                     -73.305924441898
                          3        0.524291E-01                 -74.147756188929
                          4        0.359055E-02                 -74.148100266765
                          5        0.137660E-02                 -74.148101509825
                          6        0.820576E-03                 -74.148101603074
                          7        0.577059E-04                 -74.148101657024
                          8        0.577427E-08                 -74.148101657328

 Energy components [Hartree]           Total Energy ::          -74.148101657328
                                        Band Energy ::           -7.354344558070
                                     Kinetic Energy ::           99.564392614967
                                   Potential Energy ::         -173.712494272295
                                      Virial (-V/T) ::            1.744725094081
                                        Core Energy ::         -134.243973097364
                                          XC Energy ::           -9.781240980901
                                     Coulomb Energy ::           69.877112420937
                       Total Pseudopotential Energy ::         -233.873649274629
                       Local Pseudopotential Energy ::         -163.402683521975
                    Nonlocal Pseudopotential Energy ::          -70.470965752654
                                        Confinement ::            0.652835622975

 Orbital energies  State     L     Occupation   Energy[a.u.]          Energy[eV]

                       1     0          2.000      -0.307238           -8.360378
 
                       1     1          1.000      -0.061461           -1.672442
 
                       1     2         10.000      -0.667841          -18.172870
 

 Total Electron Density at R=0:                                         0.000004

 Guess for atomic kind: N

 Electronic structure
    Total number of core electrons                                          2.00
    Total number of valence electrons                                       5.00
    Total number of electrons                                               7.00
    Multiplicity                                                   not specified
    S   [  2.00] 2.00
    P      3.00
 

 *******************************************************************************
                  Iteration          Convergence                     Energy [au]
 *******************************************************************************
                          1        0.314603                      -9.513311037226
                          2        0.240982                      -9.524715106536
                          3        0.171660E-02                  -9.545365478140
                          4        0.189497E-03                  -9.545366407342
                          5        0.115171E-03                  -9.545366414563
                          6        0.842367E-04                  -9.545366416530
                          7        0.416372E-07                  -9.545366418792

[...]
 flops   134 x    96 x    32        1908729446400     100.0%      0.0%      0.0%
 flops   128 x   102 x   101        2161343116800     100.0%      0.0%      0.0%
 flops   534 x   102 x    32        2262327072768     100.0%      0.0%      0.0%
 flops   134 x   128 x   101        2433781324800     100.0%      0.0%      0.0%
 flops   160 x    96 x    89        2438799360000     100.0%      0.0%      0.0%
 flops   606 x   102 x    32        2567359936512     100.0%      0.0%      0.0%
 flops   546 x    96 x   101        2568127161600     100.0%      0.0%      0.0%
 flops   558 x    96 x   101        2624569516800     100.0%      0.0%      0.0%
 flops   534 x   128 x    77        2626078371840     100.0%      0.0%      0.0%
 flops   570 x    96 x   101        2681011872000     100.0%      0.0%      0.0%
 flops   582 x    96 x    77        2683247212800     100.0%      0.0%      0.0%
 flops   128 x   102 x    32        2712105123840     100.0%      0.0%      0.0%
 flops   546 x   128 x    89        2758708592640     100.0%      0.0%      0.0%
 flops   558 x   128 x    89        2819339550720     100.0%      0.0%      0.0%
 flops   570 x   128 x    89        2879970508800     100.0%      0.0%      0.0%
 flops   606 x   128 x    77        2980156354560     100.0%      0.0%      0.0%
 flops   134 x   128 x    32        3053967114240     100.0%      0.0%      0.0%
 flops   128 x    96 x    77        3323206656000     100.0%      0.0%      0.0%
 flops   534 x    96 x    89        3372597043200     100.0%      0.0%      0.0%
 flops   160 x    96 x   101        3632509440000     100.0%      0.0%      0.0%
 flops   582 x   102 x    32        3698523472896     100.0%      0.0%      0.0%
 flops   606 x    96 x    89        3827329228800     100.0%      0.0%      0.0%
 flops   160 x   128 x    89        3902078976000     100.0%      0.0%      0.0%
 flops   546 x   128 x   101        4109003458560     100.0%      0.0%      0.0%
 flops   558 x   128 x   101        4199311226880     100.0%      0.0%      0.0%
 flops   570 x   128 x   101        4289618995200     100.0%      0.0%      0.0%
 flops   582 x   128 x    77        4293195540480     100.0%      0.0%      0.0%
 flops   160 x    96 x    32        4558159872000     100.0%      0.0%      0.0%
 flops   534 x    96 x   101        5023369612800     100.0%      0.0%      0.0%
 flops   128 x   128 x    77        5317130649600     100.0%      0.0%      0.0%
 flops   534 x   128 x    89        5396155269120     100.0%      0.0%      0.0%
 flops   546 x    96 x    32        5442743255040     100.0%      0.0%      0.0%
 flops   582 x    96 x    89        5513627750400     100.0%      0.0%      0.0%
 flops   558 x    96 x    32        5562363985920     100.0%      0.0%      0.0%
 flops   570 x    96 x    32        5681984716800     100.0%      0.0%      0.0%
 flops   606 x    96 x   101        5700677875200     100.0%      0.0%      0.0%
 flops   160 x   128 x   101        5812015104000     100.0%      0.0%      0.0%
 flops   606 x   128 x    89        6123726766080     100.0%      0.0%      0.0%
 flops   128 x    96 x    89        6828638208000     100.0%      0.0%      0.0%
 flops   160 x   128 x    32        7293055795200     100.0%      0.0%      0.0%
 flops   534 x   128 x   101        8037391380480     100.0%      0.0%      0.0%
 flops   582 x    96 x   101        8212362681600     100.0%      0.0%      0.0%
 flops   546 x   128 x    32        8708389208064     100.0%      0.0%      0.0%
 flops   582 x   128 x    89        8821804400640     100.0%      0.0%      0.0%
 flops   558 x   128 x    32        8899782377472     100.0%      0.0%      0.0%
 flops   570 x   128 x    32        9091175546880     100.0%      0.0%      0.0%
 flops   606 x   128 x   101        9121084600320     100.0%      0.0%      0.0%
 flops   128 x    96 x   101       10171026432000     100.0%      0.0%      0.0%
 flops   534 x    96 x    32       10646245048320     100.0%      0.0%      0.0%
 flops    13 x    13 x    32       10691382374400     100.0%      0.0%      0.0%
 flops   128 x   128 x    89       10925821132800     100.0%      0.0%      0.0%
 flops   606 x    96 x    32       12081693818880     100.0%      0.0%      0.0%
 flops   128 x    96 x    32       12762847641600     100.0%      0.0%      0.0%
 flops   582 x   128 x   101       13139780290560     100.0%      0.0%      0.0%
 flops   128 x   128 x   101       16273642291200     100.0%      0.0%      0.0%
 flops   534 x   128 x    32       17033992077312     100.0%      0.0%      0.0%
 flops   582 x    96 x    32       17404816343040     100.0%      0.0%      0.0%
 flops   606 x   128 x    32       19330710110208     100.0%      0.0%      0.0%
 flops   128 x   128 x    32       20420556226560     100.0%      0.0%      0.0%
 flops    25 x    13 x    32       21723620755200     100.0%      0.0%      0.0%
 flops    13 x    25 x    32       22028112288000     100.0%      0.0%      0.0%
 flops   582 x   128 x    32       27847706148864     100.0%      0.0%      0.0%
 flops    13 x    32 x    13       34886885779200     100.0%      0.0%      0.0%
 flops    25 x    25 x    32       43055838000000     100.0%      0.0%      0.0%
 flops    13 x    32 x    25       71901081033600     100.0%      0.0%      0.0%
 flops    25 x    32 x    13       71901081033600     100.0%      0.0%      0.0%
 flops    25 x    32 x    25      140578200000000     100.0%      0.0%      0.0%
 flops inhomo. stacks              97775606250000     100.0%      0.0%      0.0%
 flops total                       968.051391E+12     100.0%      0.0%      0.0%
 flops max/rank                      9.624521E+12     100.0%      0.0%      0.0%
 matmuls inhomo. stacks                  13246800     100.0%      0.0%      0.0%
 matmuls total                        18400295037     100.0%      0.0%      0.0%
 number of processed stacks             311678840     100.0%      0.0%      0.0%
 average stack size                                    59.0       0.0       0.0
 marketing flops                     1.059464E+15
 -------------------------------------------------------------------------------
 # multiplications                          32715
 max memory usage/rank               1.399046E+09
 # max total images/rank                        6
 # max 3D layers                                1
 # MPI messages exchanged               475021800
 MPI messages size (bytes):
  total size                        41.711120E+12
  min size                           0.000000E+00
  max size                         606.000000E+03
  average size                      87.808859E+03
 MPI breakdown and total messages size (bytes):
             size <=      128            87490623                        0
       128 < size <=     8192             3710905              21401019552
      8192 < size <=    32768           141144080            4203239388480
     32768 < size <=   131072           155074392           13535988218720
    131072 < size <=  4194304            87601800           24033841242400
   4194304 < size <= 16777216                   0                        0
  16777216 < size                               0                        0
 -------------------------------------------------------------------------------

 *** WARNING in dbcsr/mm/dbcsr_mm.F:268 :: Using a non-square number of ***
 *** MPI ranks might lead to poor performance.                          ***
 *** Used ranks: 120                                                    ***
 *** Suggested: 121 225                                                 ***

 -------------------------------------------------------------------------------
 
 MEMORY| Estimated peak process memory [MiB]                                1357

 -------------------------------------------------------------------------------
 ----                             MULTIGRID INFO                            ----
 -------------------------------------------------------------------------------
 count for grid        1:         228709          cutoff [a.u.]          600.00
 count for grid        2:        5630574          cutoff [a.u.]          200.00
 count for grid        3:        5008667          cutoff [a.u.]           66.67
 count for grid        4:        7771101          cutoff [a.u.]           22.22
 count for grid        5:        7086569          cutoff [a.u.]            7.41
 total gridlevel count  :       25725620

 -------------------------------------------------------------------------------
 -                                                                             -
 -                         MESSAGE PASSING PERFORMANCE                         -
 -                                                                             -
 -------------------------------------------------------------------------------

 ROUTINE             CALLS      AVE VOLUME [Bytes]
 MP_Group             2257
 MP_Bcast            76618                   6133.
 MP_Allreduce       364439                    288.
 MP_Sync              1760
 MP_Alltoall        160053                5251594.
 MP_SendRecv         16660                   5619.
 MP_ISendRecv      1205589                  87552.
 MP_Wait           5786970
 MP_comm_split        1755
 MP_ISend          9179660                  94990.
 MP_IRecv          9179512                  94517.
 MP_Recv               952                 230400.
 MP_Memory         6601716
 -------------------------------------------------------------------------------


 -------------------------------------------------------------------------------
 -                                                                             -
 -                           R E F E R E N C E S                               -
 -                                                                             -
 -------------------------------------------------------------------------------
 
 CP2K version 7.0 (Development Version), the CP2K developers group (2018).
 CP2K is freely available from https://www.cp2k.org/ .

 Schuett, Ole; Messmer, Peter; Hutter, Juerg; VandeVondele, Joost. 
 Electronic Structure Calculations on Graphics Processing Units, John Wiley & Sons, Ltd, 173-190 (2016). 
 GPU-Accelerated Sparse Matrix-Matrix Multiplication for Linear Scaling Density Functional Theory.
 http://dx.doi.org/10.1002/9781118670712.ch8


 Borstnik, U; VandeVondele, J; Weber, V; Hutter, J. 
 PARALLEL COMPUTING, 40 (5-6), 47-58 (2014). 
 Sparse matrix multiplication: The distributed block-compressed sparse
 row library.
 http://dx.doi.org/10.1016/j.parco.2014.03.012


 Hutter, J; Iannuzzi, M; Schiffmann, F; VandeVondele, J. 
 WILEY INTERDISCIPLINARY REVIEWS-COMPUTATIONAL MOLECULAR SCIENCE, 4 (1), 15-25 (2014). 
 CP2K: atomistic simulations of condensed matter systems.
 http://dx.doi.org/10.1002/wcms.1159


 Grimme, S; Ehrlich, S; Goerigk, L. 
 JOURNAL OF COMPUTATIONAL CHEMISTRY, 32, 1456 (2011). 
 Effect of the damping function in dispersion corrected density functional theory.
 http://dx.doi.org/10.1002/jcc.21759


 Grimme, S; Antony, J; Ehrlich, S; Krieg, H. 
 JOURNAL OF CHEMICAL PHYSICS, 132 (15), 154104 (2010). 
 A consistent and accurate ab initio parametrization of density
 functional dispersion correction (DFT-D) for the 94 elements H-Pu.
 http://dx.doi.org/10.1063/1.3382344


 VandeVondele, J; Hutter, J. 
 JOURNAL OF CHEMICAL PHYSICS, 127 (11), 114105 (2007). 
 Gaussian basis sets for accurate calculations on molecular systems in
 gas and condensed phases.
 http://dx.doi.org/10.1063/1.2770708


 Krack, M. 
 THEORETICAL CHEMISTRY ACCOUNTS, 114 (1-3), 145-152 (2005). 
 Pseudopotentials for H to Kr optimized for gradient-corrected
 exchange-correlation functionals.
 http://dx.doi.org/10.1007/s00214-005-0655-y


 VandeVondele, J; Krack, M; Mohamed, F; Parrinello, M; Chassaing, T;
 Hutter, J. COMPUTER PHYSICS COMMUNICATIONS, 167 (2), 103-128 (2005). 
 QUICKSTEP: Fast and accurate density functional calculations using a
 mixed Gaussian and plane waves approach.
 http://dx.doi.org/10.1016/j.cpc.2004.12.014


 Frigo, M; Johnson, SG. 
 PROCEEDINGS OF THE IEEE, 93 (2), 216-231 (2005). 
 The design and implementation of FFTW3.
 http://dx.doi.org/10.1109/JPROC.2004.840301


 Kolafa, J. 
 JOURNAL OF COMPUTATIONAL CHEMISTRY, 25 (3), 335-342 (2004). 
 Time-reversible always stable predictor-corrector method for molecular dynamics of polarizable molecules.
 http://dx.doi.org/10.1002/jcc.10385


 VandeVondele, J; Hutter, J. 
 JOURNAL OF CHEMICAL PHYSICS, 118 (10), 4365-4369 (2003). 
 An efficient orbital transformation method for electronic structure
 calculations.
 http://dx.doi.org/10.1063/1.1543154


 Hartwigsen, C; Goedecker, S; Hutter, J. 
 PHYSICAL REVIEW B, 58 (7), 3641-3662 (1998). 
 Relativistic separable dual-space Gaussian pseudopotentials from H to Rn.
 http://dx.doi.org/10.1103/PhysRevB.58.3641


 Lippert, G; Hutter, J; Parrinello, M. 
 MOLECULAR PHYSICS, 92 (3), 477-487 (1997). 
 A hybrid Gaussian and plane wave density functional scheme.
 http://dx.doi.org/10.1080/002689797170220


 Perdew, JP; Burke, K; Ernzerhof, M. 
 PHYSICAL REVIEW LETTERS, 77 (18), 3865-3868 (1996). 
 Generalized gradient approximation made simple.
 http://dx.doi.org/10.1103/PhysRevLett.77.3865


 Goedecker, S; Teter, M; Hutter, J. 
 PHYSICAL REVIEW B, 54 (3), 1703-1710 (1996). 
 Separable dual-space Gaussian pseudopotentials.
 http://dx.doi.org/10.1103/PhysRevB.54.1703


 -------------------------------------------------------------------------------
 -                                                                             -
 -                                T I M I N G                                  -
 -                                                                             -
 -------------------------------------------------------------------------------
 SUBROUTINE                       CALLS  ASD         SELF TIME        TOTAL TIME
                                MAXIMUM       AVERAGE  MAXIMUM  AVERAGE  MAXIMUM
 CP2K                                 1  1.0     0.36     0.42 18318.81 18318.81
 cp_geo_opt                           1  2.0     0.05     0.07 18317.24 18317.26
 geoopt_bfgs                          1  3.0     0.21     0.27 18317.19 18317.25
 cp_eval_at                          36  4.0     0.06     0.08 18296.73 18296.77
 qs_forces                           35  5.0     0.05     0.09 18021.81 18021.82
 qs_energies                         36  6.0     0.10     0.13 17843.78 17843.91
 scf_env_do_scf                      36  7.0     0.02     0.06 17484.61 17484.64
 scf_env_do_scf_inner_loop         2192  8.0     0.19     0.26 16527.99 16528.05
 rebuild_ks_matrix                 2227  9.9     0.01     0.02  7474.54  7478.34
 qs_ks_build_kohn_sham_matrix      2227 10.9     0.64     1.14  7474.54  7478.33
 qs_ks_update_qs_env               2233  9.0     0.02     0.02  7124.58  7128.21
 qs_rho_update_rho                 2228  9.0     0.02     0.03  6704.90  6716.95
 calculate_rho_elec                2228 10.0  2868.83  2959.53  6704.89  6716.94
 pw_transfer                      36029 13.4     4.33     5.38  4380.60  4397.96
 fft_wrap_pw1pw2                  31575 14.4     0.42     0.53  4345.95  4365.78
 fft_wrap_pw1pw2_600              18067 15.7   240.66   290.70  3909.50  3918.12
 fft3d_ps                         31575 16.4   834.36   969.91  3798.05  3872.52
 sum_up_and_integrate              1149 11.9     9.07    10.71  3788.55  3791.38
 integrate_v_rspace                1149 12.9  1701.34  1751.08  3779.48  3782.90
 rs_pw_transfer                   17028 13.0     0.25     0.32  3486.05  3531.81
 density_rs2pw                     2228 11.0     0.18     0.22  3420.66  3468.98
 qs_scf_new_mos                    2192  9.0     0.02     0.04  3037.45  3043.81
 qs_scf_loop_do_ot                 2192 10.0     0.07     0.16  3037.43  3043.79
 qs_vxc_create                     2227 11.9     0.09     0.17  3007.47  3012.84
 mp_alltoall_z22v                 31575 18.4  2657.47  2820.11  2657.47  2820.11
 ot_scf_mini                       2192 11.0     0.18     0.32  2809.28  2812.71
 dbcsr_multiply_generic           32715 13.9     2.94     3.88  2676.88  2688.74
 xc_vxc_pw_create                  1149 12.9    75.16    84.69  2109.96  2115.47
 mp_waitany                      882816 14.9  1574.86  1790.91  1574.86  1790.91
 mp_waitall_1                   4904154 16.6  1669.58  1773.03  1669.58  1773.03
 x_to_yz                          13505 18.1   141.50   168.18  1659.37  1732.85
 xc_rho_set_and_dset_create        2227 13.9    13.26    15.03  1710.38  1722.12
 potential_pw2rs                   1149 13.9     0.88     1.10  1644.72  1648.34
 multiply_cannon                  32715 14.9    15.90    16.55  1537.69  1589.99
 rs_pw_transfer_RS2PW_600          2300 13.0   567.96   753.80  1440.81  1494.74
 yz_to_x                          11316 16.9    94.54   112.80  1231.75  1300.22
 ot_mini                           2192 12.0     0.02     0.03  1218.05  1222.28
 qs_ot_get_p                       2233 11.9     0.05     0.14   965.80   974.97
 init_scf_loop                       41  8.0     0.01     0.04   954.76   954.80
 rs_pw_transfer_PW2RS_600          1220 15.6   345.52   451.74   838.62   935.15
 xc_exc_calc                       1078 13.0     5.07     5.15   897.43   897.56
 cp_fm_syevd                       1755 14.6     0.02     0.02   859.67   860.64
 qs_ot_get_derivative              1114 13.0     0.01     0.03   827.58   831.31
 cp_fm_redistribute_end            1755 15.6   451.99   817.86   454.97   820.68
 cp_fm_syevd_base                  1755 15.5   364.11   782.52   364.11   782.52
 mp_alltoall_d11v                 27778 16.1   661.71   721.54   661.71   721.54
 multiply_cannon_metrocomm3      392580 15.9     1.21     1.30   578.27   715.17
 prepare_preconditioner              41  9.0     0.00     0.00   700.75   702.57
 make_preconditioner                 41 10.0     0.03     0.05   662.59   662.67
 rs_distribute_matrix              3412 12.0     5.58    12.13   595.93   650.85
 qs_ot_p2m_diag                    1597 13.0     1.52     2.03   641.07   643.36
 make_full_all                       41 11.0     0.02     0.06   631.08   631.19
 mp_sum_l                        156168 14.9   557.37   588.60   557.37   588.60
 cp_dbcsr_syevd                    1679 13.9     0.15     0.39   564.18   564.97
 make_m2s                         65430 14.9     3.27     3.46   520.44   536.89
 make_images                      65430 15.9     4.22     4.40   500.83   517.85
 multiply_cannon_metrocomm1      392580 15.9     1.36     1.48   348.48   464.55
 qs_ot_get_derivative_diag          779 14.0     0.04     0.08   421.77   424.68
 rs_pw_transfer_RS2PW_200          2228 13.0    98.92   129.62   373.68   414.58
 mp_sum_d                         60148 15.0   361.02   404.08   361.02   404.08
 ot_new_cg_direction               1114 13.0     0.02     0.05   380.17   380.34
 qs_ks_update_qs_env_forces          35  6.0     0.00     0.00   377.01   377.22
 apply_preconditioner_dbcsr        1155 14.0     0.00     0.02   372.07   374.97
 apply_all                         1155 15.0     0.18     0.23   372.06   374.97
 -------------------------------------------------------------------------------

 The number of warnings for this run is : 1
 
 -------------------------------------------------------------------------------
  **** **** ******  **  PROGRAM ENDED AT                 2019-05-24 17:38:07.439
 ***** ** ***  *** **   PROGRAM RAN ON            blg5614.int.ets1.calculquebec.
 **    ****   ******    PROGRAM RAN BY                                       rzk
 ***** **    ** ** **   PROGRAM PROCESS ID                                 74564
  **** **  *******  **  PROGRAM STOPPED IN /lustre03/project/6004141/rzk/GaN-car
                                           bene/00-Surface/00-Preoptimization/55
                                           4-native
