     300
 i =        1, E =    -12684.0479142534
 Ga         0.0041974678       -0.0003184017       -0.0185551845
  N         0.0004079972        1.8746539506        0.6106003200
 Ga        -0.0009342975        1.8736891236        2.6135318195
  N        -0.0001684348        0.0007217776        3.2130810777
 Ga        -0.0000064349        0.0000007066        5.1985383550
  N        -0.0000343914        1.8738754307        5.7901149698
 Ga         0.0001705697        1.8738547289        7.7789393684
  N         0.0000936486        0.0000551024        8.3945283680
 Ga         0.0004057303       -0.0005350917       10.3914887123
  N         0.0011121369        1.8721984480       11.0212641804
 Ga         0.0019501781        1.8726337161       13.0292303400
  N         0.0012380470       -0.0008138196       13.4792348964
 Ga        -1.6238756254        2.8091103278       -0.0155895539
  N        -1.6230333599        4.6804544560        0.6156579312
 Ga        -1.6230200911        4.6838734578        2.6158526295
  N        -1.6222213878        2.8108377088        3.2133930587
 Ga        -1.6231088039        2.8104679979        5.1986813395
  N        -1.6228353610        4.6844230986        5.7900976865
 Ga        -1.6227123033        4.6842837896        7.7787674820
  N        -1.6224951128        2.8105598872        8.3947597164
 Ga        -1.6221844753        2.8093539108       10.3918585462
  N        -1.6231078054        4.6822957572       11.0213112879
 Ga        -1.6230111513        4.6824197742       13.0295872537
  N        -1.6209832808        2.8084399863       13.4792960547
 Ga        -3.2380888084        5.6267974280       -0.0208028370
  N        -3.2493607320        7.4981652461        0.6168118681
 Ga        -3.2460950843        7.4962120766        2.6164191017
  N        -3.2451475241        5.6221618453        3.2121754180
 Ga        -3.2454313793        5.6215186679        5.1980545535
  N        -3.2457810368        7.4954165800        5.7902335295
 Ga        -3.2454061774        7.4950637284        7.7790373775
  N        -3.2454899853        5.6211336016        8.3951265433
 Ga        -3.2452792311        5.6206364474       10.3923430088
  N        -3.2445475671        7.4941663610       11.0214611500
 Ga        -3.2432443712        7.4944642609       13.0297379355
  N        -3.2452932308        5.6208735281       13.4796663213
 Ga        -4.8704666330        8.4311977251       -0.0165528922
  N        -4.8650391175       10.3074864094        0.6084007435
 Ga        -4.8687995041       10.3060033326        2.6124657135
  N        -4.8680065765        8.4333432208        3.2132845450
 Ga        -4.8687738578        8.4320898510        5.1984798838
  N        -4.8684201043       10.3060862100        5.7898647956
 Ga        -4.8684191561       10.3061333665        7.7786666680
  N        -4.8682081368        8.4322214060        8.3952221709
 Ga        -4.8675782811        8.4314910199       10.3925113564
  N        -4.8693159299       10.3057205487       11.0218074077
 Ga        -4.8671551302       10.3057747988       13.0302188156
  N        -4.8658696958        8.4315123803       13.4790469472
 Ga        -6.4892463863       11.2463878392       -0.0197547921
  N        -6.4923767743       13.1163711719        0.6208550687
 Ga        -6.4912932974       13.1172310214        2.6186198539
  N        -6.4905260499       11.2428298352        3.2129466609
 Ga        -6.4913309266       11.2432054098        5.1984142955
  N        -6.4914008897       13.1167954502        5.7906194245
 Ga        -6.4913241185       13.1167567813        7.7791316348
  N        -6.4913172254       11.2426638629        8.3950906437
 Ga        -6.4928094716       11.2420780108       10.3922872805
  N        -6.4910540269       13.1149620281       11.0211609779
 Ga        -6.4905426814       13.1150476563       13.0295869557
  N        -6.4914055356       11.2406700370       13.4790066035
 Ga         3.2404363300       -0.0026076428       -0.0201129196
  N         3.2462857672        1.8720401124        0.6107106471
 Ga         3.2453223877        1.8733959869        2.6134218757
  N         3.2455696466        0.0005713418        3.2133011917
 Ga         3.2450601893       -0.0001709751        5.1985024822
  N         3.2456750239        1.8739083142        5.7899340255
 Ga         3.2455282544        1.8739694396        7.7788862925
  N         3.2454937988        0.0001750077        8.3952515468
 Ga         3.2446914970        0.0006844695       10.3925946674
  N         3.2441350891        1.8754025434       11.0213134423
 Ga         3.2446114524        1.8744608757       13.0297420607
  N         3.2446592640        0.0004962508       13.4795101872
 Ga         1.6249173670        2.8128334678       -0.0200718038
  N         1.6168743205        4.6866022795        0.6134407316
 Ga         1.6217775450        4.6854078964        2.6147821061
  N         1.6224390870        2.8106991361        3.2113759674
 Ga         1.6226218219        2.8107235137        5.1980016527
  N         1.6226896231        4.6846789349        5.7899241298
 Ga         1.6227173343        4.6847560512        7.7787925002
  N         1.6230160859        2.8111366126        8.3947218455
 Ga         1.6218117174        2.8117041532       10.3917670763
  N         1.6214173201        4.6861605039       11.0213347070
 Ga         1.6208166754        4.6871719766       13.0297630255
  N         1.6226595187        2.8131860804       13.4793815568
 Ga        -0.0059960945        5.6232286238       -0.0185579779
  N         0.0013641418        7.4963472321        0.6132249291
 Ga         0.0001475382        7.4957597263        2.6146077537
  N        -0.0009264310        5.6222676138        3.2121494076
 Ga        -0.0003131144        5.6215098772        5.1981156402
  N         0.0000833207        7.4953570995        5.7901042833
 Ga         0.0001311060        7.4952988325        7.7790131915
  N        -0.0001355117        5.6214810318        8.3947167164
 Ga        -0.0013516204        5.6215454969       10.3917340748
  N         0.0003905803        7.4951674448       11.0211907682
 Ga         0.0007675466        7.4960128329       13.0292541366
  N        -0.0029554914        5.6227973139       13.4795856077
 Ga        -1.6247351473        8.4252001101       -0.0180396618
  N        -1.6223009539       10.2981603846        0.6146930150
 Ga        -1.6226627252       10.3049126679        2.6153727313
  N        -1.6225720010        8.4315056951        3.2125619637
 Ga        -1.6228642121        8.4319150735        5.1981107436
  N        -1.6227878796       10.3060418270        5.7898148040
 Ga        -1.6228298487       10.3062945754        7.7788602344
  N        -1.6227342862        8.4325444155        8.3948306358
 Ga        -1.6223737006        8.4320244538       10.3919861964
  N        -1.6241791502       10.3056011453       11.0216991709
 Ga        -1.6233301391       10.3067409091       13.0299647362
  N        -1.6218100033        8.4333153823       13.4791133810
 Ga        -3.2379132218       11.2445229522       -0.0200521446
  N        -3.2506314456       13.1177460235        0.6133456010
 Ga        -3.2467444841       13.1175207230        2.6145194018
  N        -3.2456948515       11.2430505994        3.2110440989
 Ga        -3.2456797875       11.2430834040        5.1977055273
  N        -3.2457448783       13.1169244344        5.7899994160
 Ga        -3.2455752264       13.1170661529        7.7789094347
  N        -3.2457882933       11.2432374544        8.3955875380
 Ga        -3.2460260497       11.2440563635       10.3931155397
  N        -3.2457639446       13.1188803712       11.0218289809
 Ga        -3.2455905842       13.1189979913       13.0302798013
  N        -3.2453203811       11.2448559453       13.4798632300
 Ga         6.4883128268       -0.0069239988       -0.0203065220
  N         6.4909192168        1.8696542137        0.6101254220
 Ga         6.4918758486        1.8739854142        2.6132350776
  N         6.4911411999       -0.0002624198        3.2113504028
 Ga         6.4911465240        0.0000446613        5.1980025139
  N         6.4912979766        1.8739104256        5.7901145481
 Ga         6.4916865105        1.8738014125        7.7790443771
  N         6.4913397377       -0.0000154407        8.3947908665
 Ga         6.4919426673        0.0002828548       10.3919593951
  N         6.4920465384        1.8733098997       11.0208742192
 Ga         6.4933624008        1.8733637259       13.0289998871
  N         6.4924837414       -0.0007702009       13.4801239555
 Ga         4.8685120386        2.8107614618       -0.0196144877
  N         4.8658284528        4.6842052104        0.6126638947
 Ga         4.8685643123        4.6852055671        2.6143211083
  N         4.8684669955        2.8105717868        3.2112962927
 Ga         4.8684995138        2.8107834385        5.1980042000
  N         4.8684966404        4.6846554600        5.7901043496
 Ga         4.8682932600        4.6844795022        7.7790103799
  N         4.8687756956        2.8104314600        8.3947810604
 Ga         4.8691617397        2.8093471239       10.3920177387
  N         4.8670414635        4.6825445045       11.0215485346
 Ga         4.8681983890        4.6826702345       13.0300999697
  N         4.8699299341        2.8079629702       13.4794770750
 Ga         3.2417514061        5.6173961496       -0.0232387280
  N         3.2469083750        7.4931206199        0.6111913743
 Ga         3.2458570198        7.4960488623        2.6138681967
  N         3.2453020904        5.6219326974        3.2121404773
 Ga         3.2455462799        5.6216545810        5.1983153843
  N         3.2457391778        7.4953297244        5.7903621479
 Ga         3.2458450197        7.4955946761        7.7790490501
  N         3.2455904723        5.6217322115        8.3953866029
 Ga         3.2453666269        5.6221431982       10.3928109675
  N         3.2471859850        7.4965725371       11.0215570666
 Ga         3.2480214501        7.4955799631       13.0299478162
  N         3.2455736118        5.6211483753       13.4796478757
 Ga         1.6234785231        8.4311614097       -0.0184463560
  N         1.6191137365       10.3071596234        0.6098991465
 Ga         1.6232692711       10.3064659590        2.6132798227
  N         1.6228107721        8.4326570767        3.2123683025
 Ga         1.6230114878        8.4321895313        5.1984061036
  N         1.6229084923       10.3060290673        5.7900493806
 Ga         1.6229839574       10.3060201635        7.7788348912
  N         1.6229570870        8.4322441464        8.3949525797
 Ga         1.6231682731        8.4319867257       10.3922534022
  N         1.6215110840       10.3059464400       11.0215547983
 Ga         1.6216603810       10.3058389955       13.0299752016
  N         1.6239697210        8.4312369455       13.4793908100
 Ga        -0.0071693743       11.2442579810       -0.0204971716
  N         0.0005522411       13.1173741562        0.6124715748
 Ga         0.0011675869       13.1175329059        2.6140854949
  N        -0.0000582864       11.2432249543        3.2114761507
 Ga         0.0002338896       11.2431406524        5.1980304554
  N         0.0000187798       13.1170074229        5.7900487503
 Ga         0.0000891082       13.1167660637        7.7789985427
  N         0.0001250103       11.2427800634        8.3949024316
 Ga        -0.0005124286       11.2428627592       10.3920432198
  N        -0.0000358103       13.1160333330       11.0210724184
 Ga         0.0005751179       13.1162330878       13.0290212827
  N        -0.0007213064       11.2432096817       13.4795288757
 Ga         9.7358118531       -0.0008672358       -0.0226749035
  N         9.7362892054        1.8740600454        0.6128631426
 Ga         9.7382844103        1.8749349643        2.6147407045
  N         9.7375061201        0.0007532070        3.2129218276
 Ga         9.7371668005        0.0000992272        5.1986786634
  N         9.7367030136        1.8738974686        5.7903338553
 Ga         9.7369488903        1.8736704783        7.7788603193
  N         9.7368207436       -0.0001986018        8.3947966894
 Ga         9.7366870526       -0.0013276586       10.3919406972
  N         9.7372441114        1.8718938380       11.0217823143
 Ga         9.7367221357        1.8730401887       13.0301440249
  N         9.7363577164       -0.0006128788       13.4789318968
 Ga         8.1122387943        2.8099901714       -0.0208221878
  N         8.1162030323        4.6844310026        0.6111167939
 Ga         8.1157424991        4.6851395495        2.6137154700
  N         8.1142920426        2.8109772060        3.2120006327
 Ga         8.1142111487        2.8108000408        5.1982743577
  N         8.1140025349        4.6846301111        5.7901547409
 Ga         8.1139483448        4.6846892034        7.7789804533
  N         8.1145863076        2.8109434479        8.3952878439
 Ga         8.1141365160        2.8103319956       10.3926459220
  N         8.1130948571        4.6844861425       11.0217406936
 Ga         8.1132664445        4.6860411909       13.0302976626
  N         8.1150519431        2.8122226200       13.4800276750
 Ga         6.4896467348        5.6167903318       -0.0224243073
  N         6.4924790840        7.4933104312        0.6103340116
 Ga         6.4920848928        7.4960519806        2.6134722673
  N         6.4919961937        5.6217092502        3.2121477987
 Ga         6.4913385194        5.6218342014        5.1983372002
  N         6.4913039473        7.4954713292        5.7903902803
 Ga         6.4914563138        7.4954923428        7.7790925810
  N         6.4909063974        5.6214830368        8.3949691999
 Ga         6.4902671674        5.6215282513       10.3923214019
  N         6.4911561393        7.4943868997       11.0205933978
 Ga         6.4931396112        7.4955676301       13.0286653719
  N         6.4894344760        5.6222182821       13.4798929426
 Ga         4.8691855739        8.4320665879       -0.0202726423
  N         4.8654947793       10.3062733278        0.6122451141
 Ga         4.8689138609       10.3067532369        2.6143713736
  N         4.8689064490        8.4325590144        3.2124342149
 Ga         4.8685530932        8.4322829932        5.1985881567
  N         4.8683724922       10.3060712738        5.7902664485
 Ga         4.8682293116       10.3064011079        7.7790544145
  N         4.8687857444        8.4326088208        8.3942955344
 Ga         4.8699333235        8.4324251065       10.3912449474
  N         4.8671193636       10.3053481469       11.0209029322
 Ga         4.8687489916       10.3066096876       13.0291673430
  N         4.8705661514        8.4328189442       13.4791259642
 Ga         3.2428705606       11.2442622606       -0.0220599454
  N         3.2475690200       13.1188591988        0.6119220913
 Ga         3.2467603199       13.1179994028        2.6142143462
  N         3.2456483990       11.2437443176        3.2123807845
 Ga         3.2457362778       11.2432663638        5.1985695422
  N         3.2458839800       13.1170024527        5.7904424765
 Ga         3.2458528512       13.1169528393        7.7789857402
  N         3.2452784769       11.2432782611        8.3951364757
 Ga         3.2451924311       11.2428742349       10.3923444458
  N         3.2468362961       13.1167455006       11.0216693521
 Ga         3.2457331319       13.1161008524       13.0298538562
  N         3.2448791539       11.2423404678       13.4791238859
 Ga        12.9850647654        0.0012475474       -0.0195934420
  N        12.9809198407        1.8748593320        0.6148017502
 Ga        12.9831830028        1.8744516266        2.6159205978
  N        12.9832698531        0.0005990285        3.2130292621
 Ga        12.9825694046        0.0002547701        5.1986453805
  N        12.9821234876        1.8738509516        5.7905624556
 Ga        12.9824667184        1.8738695035        7.7790819177
  N        12.9825748746        0.0002077855        8.3950035541
 Ga        12.9828125660        0.0009143273       10.3920580673
  N        12.9815498121        1.8752604338       11.0209548606
 Ga        12.9821589459        1.8749248857       13.0292297979
  N        12.9814581239        0.0005719876       13.4791580172
 Ga        11.3580112404        2.8119708529       -0.0189539994
  N        11.3651256332        4.6876730997        0.6094387634
 Ga        11.3604846869        4.6849960144        2.6129229345
  N        11.3606480588        2.8116384700        3.2131860738
 Ga        11.3596238045        2.8107018090        5.1986949560
  N        11.3596923065        4.6846764394        5.7899501144
 Ga        11.3595451006        4.6846100199        7.7785973326
  N        11.3595709002        2.8109304908        8.3948748513
 Ga        11.3592891776        2.8109767187       10.3919230739
  N        11.3580802884        4.6852599611       11.0216375422
 Ga        11.3587294402        4.6856151433       13.0298940862
  N        11.3589557317        2.8117144637       13.4788169918
 Ga         9.7387031627        5.6222508125       -0.0205004230
  N         9.7357325145        7.4958290086        0.6159557572
 Ga         9.7375151902        7.4965808304        2.6164437216
  N         9.7380404776        5.6222623749        3.2127737368
 Ga         9.7369279749        5.6217195186        5.1985158917
  N         9.7366870735        7.4953342863        5.7906178256
 Ga         9.7365364970        7.4953983825        7.7790990015
  N         9.7368194618        5.6215156541        8.3951385859
 Ga         9.7358131401        5.6226540013       10.3924172071
  N         9.7363223189        7.4970771522       11.0215336720
 Ga         9.7385115079        7.4960869704       13.0298913273
  N         9.7362313024        5.6221156382       13.4794777963
 Ga         8.1144952858        8.4327807178       -0.0204459856
  N         8.1159430903       10.3072133997        0.6108400808
 Ga         8.1149593551       10.3064207259        2.6136712325
  N         8.1141642143        8.4329301813        3.2129001891
 Ga         8.1141122714        8.4323176987        5.1986497186
  N         8.1139922856       10.3061980530        5.7901569061
 Ga         8.1135703537       10.3061631774        7.7788593766
  N         8.1140448948        8.4325933879        8.3948208218
 Ga         8.1129080244        8.4322063938       10.3918630450
  N         8.1106781850       10.3059510671       11.0213296940
 Ga         8.1116933560       10.3061234535       13.0296549164
  N         8.1158141144        8.4319733735       13.4799425096
 Ga         6.4896280967       11.2403344627       -0.0187338126
  N         6.4937141771       13.1162287112        0.6104643240
 Ga         6.4917681356       13.1178208696        2.6135985548
  N         6.4920853314       11.2437591124        3.2122222780
 Ga         6.4911609348       11.2431037314        5.1984515216
  N         6.4912375428       13.1168674884        5.7901903707
 Ga         6.4911697415       13.1169571785        7.7788927419
  N         6.4909096611       11.2432964279        8.3949391018
 Ga         6.4896035193       11.2439413152       10.3921806327
  N         6.4913483180       13.1182939415       11.0212958520
 Ga         6.4912197567       13.1192428331       13.0294710936
  N         6.4904761768       11.2454700862       13.4796763208
     300
 i =        2, E =    -12684.1054786293
 Ga         0.0101759630       -0.0038928775       -0.0097522637
  N         0.0027063677        1.8735766386        0.5838321702
 Ga        -0.0008508252        1.8730568594        2.6161448531
  N        -0.0010919641        0.0017779670        3.2050273948
 Ga        -0.0002892257        0.0001591999        5.2077479531
  N         0.0003642752        1.8739743380        5.7959185126
 Ga         0.0003466332        1.8737702399        7.8047241414
  N         0.0003771173       -0.0000382505        8.3976309759
 Ga        -0.0001112927       -0.0006885575       10.4168826657
  N         0.0007360198        1.8719202323       11.0017780732
 Ga         0.0016930967        1.8724915001       13.0516312147
  N         0.0014548052       -0.0010237211       13.4299036022
 Ga        -1.6249048563        2.8051998108       -0.0047175892
  N        -1.6227961839        4.6735457416        0.5967148138
 Ga        -1.6225988009        4.6819921681        2.6220664287
  N        -1.6209131088        2.8097177253        3.2054204617
 Ga        -1.6230785110        2.8100042163        5.2080507815
  N        -1.6229342214        4.6842474727        5.7958395050
 Ga        -1.6229142284        4.6842704745        7.8046237494
  N        -1.6223783750        2.8104368774        8.3977532499
 Ga        -1.6223816776        2.8096639427       10.4172626515
  N        -1.6233058464        4.6826741156       11.0019006405
 Ga        -1.6229114431        4.6823440600       13.0517589907
  N        -1.6209739901        2.8088460606       13.4296076360
 Ga        -3.2262646573        5.6346022850       -0.0236088069
  N        -3.2550654232        7.5016274517        0.6014813450
 Ga        -3.2478889527        7.4978848355        2.6244787503
  N        -3.2440714750        5.6225113078        3.2025209979
 Ga        -3.2455324409        5.6215802847        5.2066274126
  N        -3.2460210245        7.4953241567        5.7962401078
 Ga        -3.2453957157        7.4950313662        7.8050267948
  N        -3.2454779311        5.6211402329        8.3981021387
 Ga        -3.2458080910        5.6203688339       10.4175865756
  N        -3.2449907597        7.4942827171       11.0018754304
 Ga        -3.2427927879        7.4943084999       13.0519060240
  N        -3.2448453992        5.6208193218       13.4307138677
 Ga        -4.8734475475        8.4320905121       -0.0025816501
  N        -4.8620154985       10.3121275870        0.5780954131
 Ga        -4.8688754847       10.3065280218        2.6130025439
  N        -4.8688901209        8.4356777039        3.2060113989
 Ga        -4.8690672126        8.4326432885        5.2083580642
  N        -4.8680898201       10.3064765761        5.7964906333
 Ga        -4.8681621023       10.3061796963        7.8052691220
  N        -4.8680265874        8.4321490848        8.3979853908
 Ga        -4.8675501714        8.4319435824       10.4174143593
  N        -4.8687991474       10.3057395578       11.0025279674
 Ga        -4.8669664566       10.3062934325       13.0522552198
  N        -4.8659414709        8.4317931998       13.4293030365
 Ga        -6.4889440808       11.2543383966       -0.0151493970
  N        -6.4938850899       13.1166894223        0.6139051348
 Ga        -6.4914769500       13.1176773863        2.6300557001
  N        -6.4895905485       11.2420107575        3.2045369175
 Ga        -6.4910301898       11.2427067218        5.2075131033
  N        -6.4917143229       13.1165336230        5.7965834606
 Ga        -6.4910781312       13.1164901734        7.8050088574
  N        -6.4913869451       11.2425056254        8.3985845083
 Ga        -6.4920296178       11.2419383356       10.4181176926
  N        -6.4911094280       13.1154117094       11.0018400001
 Ga        -6.4905182034       13.1146774739       13.0518822645
  N        -6.4913333081       11.2407741899       13.4299259723
 Ga         3.2314437657       -0.0065019931       -0.0185236071
  N         3.2453372850        1.8696953762        0.5850608399
 Ga         3.2452749179        1.8726895998        2.6161921358
  N         3.2452274134        0.0018757963        3.2067813035
 Ga         3.2450201638       -0.0000291385        5.2085058590
  N         3.2456166632        1.8744503712        5.7955849781
 Ga         3.2456847404        1.8739610712        7.8046712667
  N         3.2454790084        0.0003261460        8.3978304457
 Ga         3.2452292268        0.0001488417       10.4173459452
  N         3.2438437508        1.8748892802       11.0021257013
 Ga         3.2450168999        1.8750615809       13.0520737242
  N         3.2451477594        0.0006248864       13.4293292345
 Ga         1.6276163448        2.8193263520       -0.0150265228
  N         1.6077693358        4.6912774105        0.5926715378
 Ga         1.6202060657        4.6865936207        2.6192705933
  N         1.6224836289        2.8108927718        3.1999360628
 Ga         1.6226384341        2.8105766776        5.2055611299
  N         1.6224928158        4.6845976911        5.7952136764
 Ga         1.6228859723        4.6848752998        7.8045882576
  N         1.6231574680        2.8111985098        8.3977278420
 Ga         1.6218249106        2.8118157667       10.4171741691
  N         1.6211919322        4.6860716823       11.0023084062
 Ga         1.6214706176        4.6871523732       13.0522630954
  N         1.6225267739        2.8128869336       13.4299873851
 Ga        -0.0155091933        5.6271860779       -0.0108996404
  N         0.0052372908        7.4980598043        0.5937269671
 Ga         0.0015350966        7.4966447370        2.6206225703
  N        -0.0019487649        5.6232364752        3.2028879505
 Ga        -0.0007156543        5.6218088336        5.2067992351
  N         0.0005208703        7.4955263347        5.7959353666
 Ga         0.0001810008        7.4954695992        7.8050053482
  N        -0.0001510665        5.6214670180        8.3975647012
 Ga        -0.0011987682        5.6217493174       10.4169829697
  N        -0.0001437943        7.4952244850       11.0014867006
 Ga         0.0009440294        7.4961783977       13.0512423705
  N        -0.0023921117        5.6226142500       13.4298894577
 Ga        -1.6265585301        8.4120056709       -0.0129552236
  N        -1.6226963760       10.2845382228        0.5944283351
 Ga        -1.6222787470       10.3020943320        2.6203478811
  N        -1.6220227000        8.4295851556        3.2045028406
 Ga        -1.6229324216        8.4315516170        5.2075241509
  N        -1.6228739732       10.3061368353        5.7952736390
 Ga        -1.6231278196       10.3063462478        7.8047695452
  N        -1.6227097882        8.4326008396        8.3974719226
 Ga        -1.6226184805        8.4323413989       10.4168926101
  N        -1.6243958041       10.3052325840       11.0019343463
 Ga        -1.6232422319       10.3068470811       13.0517870099
  N        -1.6215894324        8.4332670835       13.4301744826
 Ga        -3.2260336554       11.2472511425       -0.0188117065
  N        -3.2582158203       13.1193757441        0.5919560018
 Ga        -3.2490154085       13.1187562145        2.6191646628
  N        -3.2453388888       11.2430518024        3.1996162761
 Ga        -3.2458731675       11.2430619364        5.2055135240
  N        -3.2455595282       13.1167164268        5.7959395545
 Ga        -3.2455280079       13.1169900412        7.8051334687
  N        -3.2457031021       11.2433800852        8.3983177340
 Ga        -3.2461532396       11.2439248196       10.4180482690
  N        -3.2462741440       13.1181930151       11.0024109155
 Ga        -3.2448812669       13.1185973485       13.0523092839
  N        -3.2450696005       11.2447872122       13.4312589748
 Ga         6.4861653759       -0.0199272611       -0.0163853020
  N         6.4887537346        1.8620304587        0.5817809069
 Ga         6.4925236812        1.8732658509        2.6143742478
  N         6.4910444703       -0.0008135744        3.2005172463
 Ga         6.4911033991       -0.0000822813        5.2060611357
  N         6.4914057376        1.8738504257        5.7954523810
 Ga         6.4917644749        1.8738256706        7.8046014060
  N         6.4915264123        0.0002264136        8.3972051511
 Ga         6.4911912322       -0.0001472133       10.4166638877
  N         6.4913634211        1.8726421584       11.0014508812
 Ga         6.4936303149        1.8735606405       13.0513198553
  N         6.4923747633       -0.0003752027       13.4316026738
 Ga         4.8672547868        2.8121111495       -0.0087851172
  N         4.8627204098        4.6848699919        0.5902097614
 Ga         4.8685955995        4.6861462029        2.6181127251
  N         4.8688922881        2.8105372648        3.1996218351
 Ga         4.8686614445        2.8105431428        5.2056897448
  N         4.8685767161        4.6845152085        5.7954697472
 Ga         4.8684123540        4.6844102826        7.8049066224
  N         4.8688775138        2.8103760274        8.3975251553
 Ga         4.8689505378        2.8094828328       10.4171030962
  N         4.8675368762        4.6822872504       11.0025074545
 Ga         4.8685766862        4.6828438381       13.0523627416
  N         4.8698424964        2.8087155069       13.4296502060
 Ga         3.2357521009        5.6106901874       -0.0261447561
  N         3.2474216561        7.4889239596        0.5859298897
 Ga         3.2470826910        7.4962025354        2.6164579635
  N         3.2447249773        5.6223266343        3.2020415697
 Ga         3.2455081844        5.6217266631        5.2065581197
  N         3.2459041249        7.4954841637        5.7960067196
 Ga         3.2459861601        7.4953398535        7.8049072598
  N         3.2457770700        5.6216769706        8.3985369338
 Ga         3.2454256648        5.6213199240       10.4184038369
  N         3.2463115391        7.4957943241       11.0024423809
 Ga         3.2480663738        7.4955584371       13.0524246317
  N         3.2462432964        5.6213527732       13.4300347703
 Ga         1.6253158934        8.4317388408       -0.0074349194
  N         1.6125600981       10.3107191932        0.5814992362
 Ga         1.6234196026       10.3073069742        2.6142672755
  N         1.6247766812        8.4337400303        3.2020802410