 DBCSR| Multiplication driver                                               BLAS
 DBCSR| Multrec recursion limit                                              512
 DBCSR| Multiplication stack size                                           1000
 DBCSR| Maximum elements for images                                    UNLIMITED
 DBCSR| Multiplicative factor virtual images                                   1
 DBCSR| Multiplication size stacks                                             3
 DBCSR| Number of 3D layers                                               SINGLE
 DBCSR| Use MPI memory allocation                                              T
 DBCSR| Use RMA algorithm                                                      F
 DBCSR| Use Communication thread                                               T
 DBCSR| Communication thread load                                             87


  **** **** ******  **  PROGRAM STARTED AT               2019-05-16 13:08:02.578
 ***** ** ***  *** **   PROGRAM STARTED ON        blg9212.int.ets1.calculquebec.
 **    ****   ******    PROGRAM STARTED BY                                   rzk
 ***** **    ** ** **   PROGRAM PROCESS ID                                378067
  **** **  *******  **  PROGRAM STARTED IN /lustre03/project/6004141/rzk/GaN-car
                                           bene/00-Surface/00-Preoptimization/33
                                           4-native/Trial4

 CP2K| version string:                    CP2K version 7.0 (Development Version)
 CP2K| source code revision number:                                    svn:18619
 CP2K| cp2kflags: libint fftw3 libxc parallel mpi3 scalapack mkl                
 CP2K| is freely available from                            https://www.cp2k.org/
 CP2K| Program compiled at                          Sun Apr  7 00:48:11 EDT 2019
 CP2K| Program compiled on                      beluga2.int.ets1.calculquebec.ca
 CP2K| Program compiled for                    Beluga-Linux-x86-64-intel-openmpi
 CP2K| Data directory path    /home/rzk/projects/def-rzk/group/cp2k/cp2k-mcgill/
 CP2K| Input file name                                               restart.inp
 
 GLOBAL| Force Environment number                                              1
 GLOBAL| Basis set file name                                        BASIS_MOLOPT
 GLOBAL| Potential file name                                      GTH_POTENTIALS
 GLOBAL| MM Potential file name                                     MM_POTENTIAL
 GLOBAL| Coordinate file name                                     334-native.xyz
 GLOBAL| Method name                                                        CP2K
 GLOBAL| Project name                                                       TEST
 GLOBAL| Preferred FFT library                                             FFTW3
 GLOBAL| Preferred diagonalization lib.                                       SL
 GLOBAL| Run type                                                       CELL_OPT
 GLOBAL| All-to-all communication in single precision                          F
 GLOBAL| FFTs using library dependent lengths                                  F
 GLOBAL| Global print level                                               MEDIUM
 GLOBAL| MPI I/O enabled                                                       T
 GLOBAL| Total number of message passing processes                            80
 GLOBAL| Number of threads for this process                                    1
 GLOBAL| This output is from process                                           0
 GLOBAL| CPU model name :  Intel(R) Xeon(R) Gold 6148 CPU @ 2.40GHz

 MEMORY| system memory details [Kb]
 MEMORY|                        rank 0           min           max       average
 MEMORY| MemTotal            196614300     196614300     196614300     196614300
 MEMORY| MemFree              87494164      72964956      87496024      80261618
 MEMORY| Buffers                    76             0            76            38
 MEMORY| Cached               82784932      82784932      95144536      88964734
 MEMORY| Slab                 12885612      12885612      14239424      13562518
 MEMORY| SReclaimable          1233000       1202112       1233000       1217556
 MEMORY| MemLikelyFree       171512172     169311604     171514032     170443946


 *** Fundamental physical constants (SI units) ***

 *** Literature: B. J. Mohr and B. N. Taylor,
 ***             CODATA recommended values of the fundamental physical
 ***             constants: 2006, Web Version 5.1
 ***             http://physics.nist.gov/constants

 Speed of light in vacuum [m/s]                             2.99792458000000E+08
 Magnetic constant or permeability of vacuum [N/A**2]       1.25663706143592E-06
 Electric constant or permittivity of vacuum [F/m]          8.85418781762039E-12
 Planck constant (h) [J*s]                                  6.62606896000000E-34
 Planck constant (h-bar) [J*s]                              1.05457162825177E-34
 Elementary charge [C]                                      1.60217648700000E-19
 Electron mass [kg]                                         9.10938215000000E-31
 Electron g factor [ ]                                     -2.00231930436220E+00
 Proton mass [kg]                                           1.67262163700000E-27
 Fine-structure constant                                    7.29735253760000E-03
 Rydberg constant [1/m]                                     1.09737315685270E+07
 Avogadro constant [1/mol]                                  6.02214179000000E+23
 Boltzmann constant [J/K]                                   1.38065040000000E-23
 Atomic mass unit [kg]                                      1.66053878200000E-27
 Bohr radius [m]                                            5.29177208590000E-11

 *** Conversion factors ***

 [u] -> [a.u.]                                              1.82288848426455E+03
 [Angstrom] -> [Bohr] = [a.u.]                              1.88972613288564E+00
 [a.u.] = [Bohr] -> [Angstrom]                              5.29177208590000E-01
 [a.u.] -> [s]                                              2.41888432650478E-17
 [a.u.] -> [fs]                                             2.41888432650478E-02
 [a.u.] -> [J]                                              4.35974393937059E-18
 [a.u.] -> [N]                                              8.23872205491840E-08
 [a.u.] -> [K]                                              3.15774647902944E+05
 [a.u.] -> [kJ/mol]                                         2.62549961709828E+03
 [a.u.] -> [kcal/mol]                                       6.27509468713739E+02
 [a.u.] -> [Pa]                                             2.94210107994716E+13
 [a.u.] -> [bar]                                            2.94210107994716E+08
 [a.u.] -> [atm]                                            2.90362800883016E+08
 [a.u.] -> [eV]                                             2.72113838565563E+01
 [a.u.] -> [Hz]                                             6.57968392072181E+15
 [a.u.] -> [1/cm] (wave numbers)                            2.19474631370540E+05
 [a.u./Bohr**2] -> [1/cm]                                   5.14048714338585E+03
 

 CELL_TOP| Volume [angstrom^3]:                                         2519.204
 CELL_TOP| Vector a [angstrom     9.743     0.000     0.000    |a| =       9.743
 CELL_TOP| Vector b [angstrom    -4.856     8.410     0.000    |b| =       9.712
 CELL_TOP| Vector c [angstrom     0.000     0.000    30.744    |c| =      30.744
 CELL_TOP| Angle (b,c), alpha [degree]:                                   90.000
 CELL_TOP| Angle (a,c), beta  [degree]:                                   90.000
 CELL_TOP| Angle (a,b), gamma [degree]:                                  120.000
 CELL_TOP| Numerically orthorhombic:                                          NO

 *** WARNING in atoms_input.F:122 :: Overwriting coordinates. Active    ***
 *** coordinates read from &COORD section. Active coordinates READ from ***
 *** &COORD section                                                     ***

 
 GENERATE|  Preliminary Number of Bonds generated:                             0
 GENERATE|  Achieved consistency in connectivity generation.

 CELL| Volume [angstrom^3]:                                             2519.204
 CELL| Vector a [angstrom]:       9.743     0.000     0.000    |a| =       9.743
 CELL| Vector b [angstrom]:      -4.856     8.410     0.000    |b| =       9.712
 CELL| Vector c [angstrom]:       0.000     0.000    30.744    |c| =      30.744
 CELL| Angle (b,c), alpha [degree]:                                       90.000
 CELL| Angle (a,c), beta  [degree]:                                       90.000
 CELL| Angle (a,b), gamma [degree]:                                      120.000
 CELL| Numerically orthorhombic:                                              NO

 CELL_REF| Volume [angstrom^3]:                                         2432.344
 CELL_REF| Vector a [angstrom     9.558     0.000     0.000    |a| =       9.558
 CELL_REF| Vector b [angstrom    -4.779     8.277     0.000    |b| =       9.558
 CELL_REF| Vector c [angstrom     0.000     0.000    30.744    |c| =      30.744
 CELL_REF| Angle (b,c), alpha [degree]:                                   90.000
 CELL_REF| Angle (a,c), beta  [degree]:                                   90.000
 CELL_REF| Angle (a,b), gamma [degree]:                                  120.000
 CELL_REF| Numerically orthorhombic:                                          NO

 *******************************************************************************
 *******************************************************************************
 **                                                                           **
 **     #####                         ##              ##                      **
 **    ##   ##            ##          ##              ##                      **
 **   ##     ##                       ##            ######                    **
 **   ##     ##  ##   ##  ##   #####  ##  ##   ####   ##    #####    #####    **
 **   ##     ##  ##   ##  ##  ##      ## ##   ##      ##   ##   ##  ##   ##   **
 **   ##  ## ##  ##   ##  ##  ##      ####     ###    ##   ######   ######    **
 **    ##  ###   ##   ##  ##  ##      ## ##      ##   ##   ##       ##        **
 **     #######   #####   ##   #####  ##  ##  ####    ##    #####   ##        **
 **           ##                                                    ##        **
 **                                                                           **
 **                                                ... make the atoms dance   **
 **                                                                           **
 **            Copyright (C) by CP2K developers group (2000 - 2018)           **
 **                                                                           **
 *******************************************************************************

 DFT| Spin restricted Kohn-Sham (RKS) calculation                            RKS
 DFT| Multiplicity                                                             1
 DFT| Number of spin states                                                    1
 DFT| Charge                                                                   0
 DFT| Self-interaction correction (SIC)                                       NO
 DFT| Cutoffs: density                                              1.000000E-10
 DFT|          gradient                                             1.000000E-10
 DFT|          tau                                                  1.000000E-10
 DFT|          cutoff_smoothing_range                               0.000000E+00
 DFT| XC density smoothing                                                  NONE
 DFT| XC derivatives                                                          PW
 FUNCTIONAL| ROUTINE=NEW
 FUNCTIONAL| PBE:
 FUNCTIONAL| J.P.Perdew, K.Burke, M.Ernzerhof, Phys. Rev. Letter, vol. 77, n 18,
 FUNCTIONAL|  pp. 3865-3868, (1996){spin unpolarized}                           
 vdW POTENTIAL|                                                   Pair Potential
 vdW POTENTIAL|          DFT-D3 (Version 3.1)
 vdW POTENTIAL|          Potential Form: S. Grimme et al, JCP 132: 154104 (2010)
 vdW POTENTIAL|          Zero Damping
 vdW POTENTIAL|          Cutoff Radius [Bohr]:                             18.90
 vdW POTENTIAL|          s6 Scaling Factor:                               1.0000
 vdW POTENTIAL|          sr6 Scaling Factor:                              1.2170
 vdW POTENTIAL|          s8 Scaling Factor:                               0.7220
 vdW POTENTIAL|          Cutoff for CN calculation:                   0.1000E-05

 QS| Method:                                                                 GPW
 QS| Density plane wave grid type                        NON-SPHERICAL FULLSPACE
 QS| Number of grid levels:                                                    5
 QS| Density cutoff [a.u.]:                                                600.0
 QS| Multi grid cutoff [a.u.]: 1) grid level                               600.0
 QS|                           2) grid level                               200.0
 QS|                           3) grid level                                66.7
 QS|                           4) grid level                                22.2
 QS|                           5) grid level                                 7.4
 QS| Grid level progression factor:                                          3.0
 QS| Relative density cutoff [a.u.]:                                        20.0
 QS| Consistent realspace mapping and integration 
 QS| Interaction thresholds: eps_pgf_orb:                                1.0E-07
 QS|                         eps_filter_matrix:                          0.0E+00
 QS|                         eps_core_charge:                            1.0E-16
 QS|                         eps_rho_gspace:                             1.0E-14
 QS|                         eps_rho_rspace:                             1.0E-14
 QS|                         eps_gvg_rspace:                             1.0E-07
 QS|                         eps_ppl:                                    1.0E-02
 QS|                         eps_ppnl:                                   1.0E-09


 ATOMIC KIND INFORMATION

  1. Atomic kind: Ga                                    Number of atoms:      72

     Orbital Basis Set                                        DZVP-MOLOPT-SR-GTH

       Number of orbital shell sets:                                           1
       Number of orbital shells:                                               7
       Number of primitive Cartesian functions:                                6
       Number of Cartesian basis functions:                                   30
       Number of spherical basis functions:                                   25
       Norm type:                                                              2

       Normalised Cartesian orbitals:

                        Set   Shell   Orbital            Exponent    Coefficient

                          1       1    2s                7.066654       0.013136
                                                         3.428369      -0.094392
                                                         1.430064       0.265435
                                                         0.571611       0.056465
                                                         0.232197      -0.192187
                                                         0.076562      -0.044987

                          1       2    3s                7.066654      -0.098564
                                                         3.428369       0.010390
                                                         1.430064       0.351249
                                                         0.571611       0.182615
                                                         0.232197      -0.425358
                                                         0.076562       0.190349

                          1       3    3px               7.066654       0.002364
                                                         3.428369       0.019222
                                                         1.430064       0.250132
                                                         0.571611      -0.058486
                                                         0.232197      -0.159451
                                                         0.076562      -0.020696
                          1       3    3py               7.066654       0.002364
                                                         3.428369       0.019222
                                                         1.430064       0.250132
                                                         0.571611      -0.058486
                                                         0.232197      -0.159451
                                                         0.076562      -0.020696
                          1       3    3pz               7.066654       0.002364
                                                         3.428369       0.019222
                                                         1.430064       0.250132
                                                         0.571611      -0.058486
                                                         0.232197      -0.159451
                                                         0.076562      -0.020696

                          1       4    4px               7.066654       0.492448
                                                         3.428369      -0.614736
                                                         1.430064      -0.191654
                                                         0.571611       0.037801
                                                         0.232197       0.302315
                                                         0.076562      -0.071336
                          1       4    4py               7.066654       0.492448
                                                         3.428369      -0.614736
                                                         1.430064      -0.191654
                                                         0.571611       0.037801
                                                         0.232197       0.302315
                                                         0.076562      -0.071336
                          1       4    4pz               7.066654       0.492448
                                                         3.428369      -0.614736
                                                         1.430064      -0.191654
                                                         0.571611       0.037801
                                                         0.232197       0.302315
                                                         0.076562      -0.071336

                          1       5    4dx2              7.066654     -15.264855
                                                         3.428369      -5.345726
                                                         1.430064      -1.022732
                                                         0.571611      -0.123148
                                                         0.232197      -0.006983
                                                         0.076562      -0.000022
                          1       5    4dxy              7.066654     -26.439504
                                                         3.428369      -9.259069
                                                         1.430064      -1.771423
                                                         0.571611      -0.213299
                                                         0.232197      -0.012094
                                                         0.076562      -0.000037
                          1       5    4dxz              7.066654     -26.439504
                                                         3.428369      -9.259069
                                                         1.430064      -1.771423
                                                         0.571611      -0.213299
                                                         0.232197      -0.012094
                                                         0.076562      -0.000037
                          1       5    4dy2              7.066654     -15.264855
                                                         3.428369      -5.345726
                                                         1.430064      -1.022732
                                                         0.571611      -0.123148
                                                         0.232197      -0.006983
                                                         0.076562      -0.000022
                          1       5    4dyz              7.066654     -26.439504
                                                         3.428369      -9.259069
                                                         1.430064      -1.771423
                                                         0.571611      -0.213299
                                                         0.232197      -0.012094
                                                         0.076562      -0.000037
                          1       5    4dz2              7.066654     -15.264855
                                                         3.428369      -5.345726
                                                         1.430064      -1.022732
                                                         0.571611      -0.123148
                                                         0.232197      -0.006983
                                                         0.076562      -0.000022

                          1       6    5dx2              7.066654      -5.739265
                                                         3.428369      -2.129289
                                                         1.430064      -0.700423
                                                         0.571611       0.161606
                                                         0.232197       0.043513
                                                         0.076562       0.011205
                          1       6    5dxy              7.066654      -9.940698
                                                         3.428369      -3.688037
                                                         1.430064      -1.213168
                                                         0.571611       0.279909
                                                         0.232197       0.075368
                                                         0.076562       0.019407
                          1       6    5dxz              7.066654      -9.940698
                                                         3.428369      -3.688037
                                                         1.430064      -1.213168
                                                         0.571611       0.279909
                                                         0.232197       0.075368
                                                         0.076562       0.019407
                          1       6    5dy2              7.066654      -5.739265
                                                         3.428369      -2.129289
                                                         1.430064      -0.700423
                                                         0.571611       0.161606
                                                         0.232197       0.043513
                                                         0.076562       0.011205
                          1       6    5dyz              7.066654      -9.940698
                                                         3.428369      -3.688037
                                                         1.430064      -1.213168
                                                         0.571611       0.279909
                                                         0.232197       0.075368
                                                         0.076562       0.019407
                          1       6    5dz2              7.066654      -5.739265
                                                         3.428369      -2.129289
                                                         1.430064      -0.700423
                                                         0.571611       0.161606
                                                         0.232197       0.043513
                                                         0.076562       0.011205

                          1       7    5fx3              7.066654       0.705879
                                                         3.428369      -0.273976
                                                         1.430064       0.113667
                                                         0.571611       0.132480
                                                         0.232197       0.012437
                                                         0.076562       0.003241
                          1       7    5fx2y             7.066654       1.578393
                                                         3.428369      -0.612629
                                                         1.430064       0.254167
                                                         0.571611       0.296234
                                                         0.232197       0.027811
                                                         0.076562       0.007246
                          1       7    5fx2z             7.066654       1.578393
                                                         3.428369      -0.612629
                                                         1.430064       0.254167
                                                         0.571611       0.296234
                                                         0.232197       0.027811
                                                         0.076562       0.007246
                          1       7    5fxy2             7.066654       1.578393
                                                         3.428369      -0.612629
                                                         1.430064       0.254167
                                                         0.571611       0.296234
                                                         0.232197       0.027811
                                                         0.076562       0.007246
                          1       7    5fxyz             7.066654       2.733856
                                                         3.428369      -1.061105
                                                         1.430064       0.440230
                                                         0.571611       0.513092
                                                         0.232197       0.048170
                                                         0.076562       0.012551
                          1       7    5fxz2             7.066654       1.578393
                                                         3.428369      -0.612629
                                                         1.430064       0.254167
                                                         0.571611       0.296234
                                                         0.232197       0.027811
                                                         0.076562       0.007246
                          1       7    5fy3              7.066654       0.705879
                                                         3.428369      -0.273976
                                                         1.430064       0.113667
                                                         0.571611       0.132480
                                                         0.232197       0.012437
                                                         0.076562       0.003241
                          1       7    5fy2z             7.066654       1.578393
                                                         3.428369      -0.612629
                                                         1.430064       0.254167
                                                         0.571611       0.296234
                                                         0.232197       0.027811
                                                         0.076562       0.007246
                          1       7    5fyz2             7.066654       1.578393
                                                         3.428369      -0.612629
                                                         1.430064       0.254167
                                                         0.571611       0.296234
                                                         0.232197       0.027811
                                                         0.076562       0.007246
                          1       7    5fz3              7.066654       0.705879
                                                         3.428369      -0.273976
                                                         1.430064       0.113667
                                                         0.571611       0.132480
                                                         0.232197       0.012437
                                                         0.076562       0.003241

     GTH Potential information for                                   GTH-PBE-q13

       Description:                       Goedecker-Teter-Hutter pseudopotential
                                           Goedecker et al., PRB 54, 1703 (1996)
                                          Hartwigsen et al., PRB 58, 3641 (1998)
                                                      Krack, TCA 114, 145 (2005)

       Gaussian exponent of the core charge distribution:               2.082466
       Electronic configuration (s p d ...):                           2   1  10

       Parameters of the local part of the GTH pseudopotential:

                          rloc        C1          C2          C3          C4
                        0.490000

       Parameters of the non-local part of the GTH pseudopotential:

                   l      r(l)      h(i,j,l)

                   0    0.416777   10.475690   -4.921768    0.870706
                                   -4.921768    7.770178   -2.248152
                                    0.870706   -2.248152    1.784415
                   1    0.569627    1.777985    0.195860
                                    0.195860   -0.231744
                   2    0.238126  -16.248680

  2. Atomic kind: N                                     Number of atoms:      72

     Orbital Basis Set                                        DZVP-MOLOPT-SR-GTH

       Number of orbital shell sets:                                           1
       Number of orbital shells:                                               5
       Number of primitive Cartesian functions:                                5
       Number of Cartesian basis functions:                                   14
       Number of spherical basis functions:                                   13
       Norm type:                                                              2

       Normalised Cartesian orbitals:

                        Set   Shell   Orbital            Exponent    Coefficient

                          1       1    2s                7.341988       0.360561
                                                         2.542637       0.139177
                                                         0.888575      -0.289383
                                                         0.333802      -0.182244
                                                         0.112012      -0.019197

                          1       2    3s                7.341988       0.282000
                                                         2.542637       0.177875
                                                         0.888575      -0.278381
                                                         0.333802       0.008577
                                                         0.112012       0.154176

                          1       3    3px               7.341988      -1.188719
                                                         2.542637      -0.973969
                                                         0.888575      -0.501079
                                                         0.333802      -0.144894
                                                         0.112012      -0.013986
                          1       3    3py               7.341988      -1.188719
                                                         2.542637      -0.973969
                                                         0.888575      -0.501079
                                                         0.333802      -0.144894
                                                         0.112012      -0.013986
                          1       3    3pz               7.341988      -1.188719
                                                         2.542637      -0.973969
                                                         0.888575      -0.501079
                                                         0.333802      -0.144894
                                                         0.112012      -0.013986

                          1       4    4px               7.341988      -0.094798
                                                         2.542637       0.050069
                                                         0.888575      -0.114797
                                                         0.333802       0.144793
                                                         0.112012       0.066710
                          1       4    4py               7.341988      -0.094798
                                                         2.542637       0.050069
                                                         0.888575      -0.114797
                                                         0.333802       0.144793
                                                         0.112012       0.066710
                          1       4    4pz               7.341988      -0.094798
                                                         2.542637       0.050069
                                                         0.888575      -0.114797
                                                         0.333802       0.144793
                                                         0.112012       0.066710

                          1       5    4dx2              7.341988       1.354688
                                                         2.542637       0.690378
                                                         0.888575       0.855359
                                                         0.333802       0.091746
                                                         0.112012       0.001253
                          1       5    4dxy              7.341988       2.346389
                                                         2.542637       1.195770
                                                         0.888575       1.481524
                                                         0.333802       0.158910
                                                         0.112012       0.002169
                          1       5    4dxz              7.341988       2.346389
                                                         2.542637       1.195770
                                                         0.888575       1.481524
                                                         0.333802       0.158910
                                                         0.112012       0.002169
                          1       5    4dy2              7.341988       1.354688
                                                         2.542637       0.690378
                                                         0.888575       0.855359
                                                         0.333802       0.091746
                                                         0.112012       0.001253
                          1       5    4dyz              7.341988       2.346389
                                                         2.542637       1.195770
                                                         0.888575       1.481524
                                                         0.333802       0.158910
                                                         0.112012       0.002169
                          1       5    4dz2              7.341988       1.354688
                                                         2.542637       0.690378
                                                         0.888575       0.855359
                                                         0.333802       0.091746
                                                         0.112012       0.001253

     GTH Potential information for                                    GTH-PBE-q5

       Description:                       Goedecker-Teter-Hutter pseudopotential
                                           Goedecker et al., PRB 54, 1703 (1996)
                                          Hartwigsen et al., PRB 58, 3641 (1998)
                                                      Krack, TCA 114, 145 (2005)

       Gaussian exponent of the core charge distribution:               6.208322
       Electronic configuration (s p d ...):                               2   3

       Parameters of the local part of the GTH pseudopotential:

                          rloc        C1          C2          C3          C4
                        0.283791  -12.415226    1.868096

       Parameters of the non-local part of the GTH pseudopotential:

                   l      r(l)      h(i,j,l)

                   0    0.255405   13.630263
                   1    0.245495


 MOLECULE KIND INFORMATION


 All atoms are their own molecule, skipping detailed information


 TOTAL NUMBERS AND MAXIMUM NUMBERS

  Total number of            - Atomic kinds:                                   2
                             - Atoms:                                        144
                             - Shell sets:                                   144
                             - Shells:                                       864
                             - Primitive Cartesian functions:                792
                             - Cartesian basis functions:                   3168
                             - Spherical basis functions:                   2736

  Maximum angular momentum of- Orbital basis functions:                        3
                             - Local part of the GTH pseudopotential:          2
                             - Non-local part of the GTH pseudopotential:      4


 MODULE QUICKSTEP:  ATOMIC COORDINATES IN angstrom

  Atom  Kind  Element       X           Y           Z          Z(eff)       Mass

       1     1 Ga  31    0.001275   -0.000142   -0.590257     13.00      69.7230
       2     2 N    7    0.005877    1.873345    0.566300      5.00      14.0067
       3     1 Ga  31    0.004683    1.839501    2.595623     13.00      69.7230
       4     2 N    7   -0.000278   -0.002894    3.228996      5.00      14.0067
       5     1 Ga  31    0.000290   -0.003304    5.220180     13.00      69.7230
       6     2 N    7    0.004772    1.871292    5.806484      5.00      14.0067
       7     1 Ga  31    0.003664    1.868148    7.805904     13.00      69.7230
       8     2 N    7   -0.000686   -0.005174    8.407844      5.00      14.0067
       9     1 Ga  31   -0.000228   -0.004386   10.406144     13.00      69.7230
      10     2 N    7    0.004381    1.867438   11.010566      5.00      14.0067
      11     1 Ga  31    0.003878    1.872734   13.004945     13.00      69.7230
      12     2 N    7   -0.000449    0.003038   13.610212      5.00      14.0067
      13     1 Ga  31   -0.008074    0.013793   15.612488     13.00      69.7230
      14     2 N    7    0.001887    1.883393   16.256406      5.00      14.0067
      15     1 Ga  31    0.014276    1.907030   18.365005     13.00      69.7230
      16     2 N    7    0.003142    0.010809   18.662722      5.00      14.0067
      17     1 Ga  31   -1.616483    2.802173    0.280520     13.00      69.7230
      18     2 N    7   -1.618627    4.671030    0.564440      5.00      14.0067
      19     1 Ga  31   -1.590015    4.685760    2.594421     13.00      69.7230
      20     2 N    7   -1.618565    2.800729    3.186534      5.00      14.0067
      21     1 Ga  31   -1.618289    2.800590    5.197916     13.00      69.7230
      22     2 N    7   -1.616668    4.670118    5.806531      5.00      14.0067
      23     1 Ga  31   -1.616411    4.668268    7.806132     13.00      69.7230
      24     2 N    7   -1.619879    2.798089    8.411624      5.00      14.0067
      25     1 Ga  31   -1.619163    2.798571   10.407734     13.00      69.7230
      26     2 N    7   -1.610931    4.669072   11.014314      5.00      14.0067
      27     1 Ga  31   -1.606433    4.667703   13.010590     13.00      69.7230
      28     2 N    7   -1.617761    2.798646   13.623929      5.00      14.0067
      29     1 Ga  31   -1.623628    2.795269   15.631715     13.00      69.7230
      30     2 N    7   -1.623816    4.676457   16.217458      5.00      14.0067
      31     1 Ga  31   -1.610248    4.679485   18.298251     13.00      69.7230
      32     2 N    7   -1.622449    2.813892   18.737131      5.00      14.0067
      33     1 Ga  31   -3.236376    5.606750    0.279885     13.00      69.7230
      34     2 N    7   -3.228226    7.476110    0.565162      5.00      14.0067
      35     1 Ga  31   -3.257569    7.489884    2.595373     13.00      69.7230
      36     2 N    7   -3.236980    5.604385    3.187140      5.00      14.0067
      37     1 Ga  31   -3.237001    5.604542    5.198145     13.00      69.7230
      38     2 N    7   -3.229356    7.473315    5.807883      5.00      14.0067
      39     1 Ga  31   -3.231106    7.471585    7.807623     13.00      69.7230
      40     2 N    7   -3.237823    5.601237    8.414308      5.00      14.0067
      41     1 Ga  31   -3.237032    5.601539   10.412336     13.00      69.7230
      42     2 N    7   -3.233274    7.474520   11.014015      5.00      14.0067
      43     1 Ga  31   -3.232676    7.477802   13.010591     13.00      69.7230
      44     2 N    7   -3.235200    5.599135   13.596412      5.00      14.0067
      45     1 Ga  31   -3.240780    5.598424   15.589949     13.00      69.7230
      46     2 N    7   -3.241013    7.473709   16.160417      5.00      14.0067
      47     1 Ga  31   -3.244904    7.493753   18.210259     13.00      69.7230
      48     2 N    7   -3.247594    5.616000   18.612836      5.00      14.0067
      49     1 Ga  31    3.248903   -0.003228    0.279853     13.00      69.7230
      50     2 N    7    3.249098    1.868077    0.564858      5.00      14.0067
      51     1 Ga  31    3.275360    1.881930    2.597751     13.00      69.7230
      52     2 N    7    3.247450   -0.003277    3.186080      5.00      14.0067
      53     1 Ga  31    3.247641   -0.003506    5.197500     13.00      69.7230
      54     2 N    7    3.249411    1.866373    5.805867      5.00      14.0067
      55     1 Ga  31    3.249581    1.864300    7.805693     13.00      69.7230
      56     2 N    7    3.247098   -0.005486    8.412728      5.00      14.0067
      57     1 Ga  31    3.247400   -0.005331   10.409885     13.00      69.7230
      58     2 N    7    3.250278    1.866195   11.014101      5.00      14.0067
      59     1 Ga  31    3.246431    1.864909   13.011273     13.00      69.7230
      60     2 N    7    3.247073   -0.004267   13.624117      5.00      14.0067
      61     1 Ga  31    3.250137    0.000557   15.628014     13.00      69.7230
      62     2 N    7    3.231396    1.882078   16.212330      5.00      14.0067
      63     1 Ga  31    3.244493    1.897356   18.284772     13.00      69.7230
      64     2 N    7    3.240801   -0.001939   18.575970      5.00      14.0067
      65     1 Ga  31    1.627811    2.803028    0.278999     13.00      69.7230
      66     2 N    7    1.638945    4.672045    0.563423      5.00      14.0067
      67     1 Ga  31    1.609184    4.686238    2.593859     13.00      69.7230
      68     2 N    7    1.628375    2.801095    3.186515      5.00      14.0067
      69     1 Ga  31    1.628712    2.800807    5.197487     13.00      69.7230
      70     2 N    7    1.636437    4.670142    5.806625      5.00      14.0067
      71     1 Ga  31    1.634560    4.668609    7.806107     13.00      69.7230
      72     2 N    7    1.628294    2.798206    8.410590      5.00      14.0067
      73     1 Ga  31    1.628505    2.799109   10.406770     13.00      69.7230
      74     2 N    7    1.629991    4.669625   11.013467      5.00      14.0067
      75     1 Ga  31    1.623842    4.668455   13.009629     13.00      69.7230
      76     2 N    7    1.624923    2.799327   13.618220      5.00      14.0067
      77     1 Ga  31    1.619586    2.800576   15.624947     13.00      69.7230
      78     2 N    7    1.636891    4.676790   16.210245      5.00      14.0067
      79     1 Ga  31    1.653426    4.679707   18.290265     13.00      69.7230
      80     2 N    7    1.635538    2.815217   18.749199      5.00      14.0067
      81     1 Ga  31    0.010380    5.605689   -0.588245     13.00      69.7230
      82     2 N    7    0.016557    7.480380    0.564344      5.00      14.0067
      83     1 Ga  31    0.015211    7.446862    2.594237     13.00      69.7230
      84     2 N    7    0.009908    5.603654    3.227037      5.00      14.0067
      85     1 Ga  31    0.010443    5.604010    5.218415     13.00      69.7230
      86     2 N    7    0.015344    7.478132    5.805969      5.00      14.0067
      87     1 Ga  31    0.013993    7.474600    7.805438     13.00      69.7230
      88     2 N    7    0.009399    5.601899    8.407301      5.00      14.0067
      89     1 Ga  31    0.009876    5.603462   10.404945     13.00      69.7230
      90     2 N    7    0.014644    7.472682   11.016671      5.00      14.0067
      91     1 Ga  31    0.013886    7.472855   13.016655     13.00      69.7230
      92     2 N    7    0.007690    5.605637   13.635219      5.00      14.0067
      93     1 Ga  31    0.004905    5.614539   15.646999     13.00      69.7230
      94     2 N    7    0.011509    7.489111   16.217266      5.00      14.0067
      95     1 Ga  31    0.025927    7.478882   18.278823     13.00      69.7230
      96     2 N    7    0.015550    5.592819   18.643164      5.00      14.0067
      97     1 Ga  31    6.495233   -0.001931    0.278938     13.00      69.7230
      98     2 N    7    6.503367    1.869366    0.564066      5.00      14.0067
      99     1 Ga  31    6.476053    1.882004    2.597748     13.00      69.7230
     100     2 N    7    6.495148   -0.003143    3.186647      5.00      14.0067
     101     1 Ga  31    6.495716   -0.003237    5.197713     13.00      69.7230
     102     2 N    7    6.502661    1.866544    5.806095      5.00      14.0067
     103     1 Ga  31    6.500685    1.864557    7.805883     13.00      69.7230
     104     2 N    7    6.493790   -0.005644    8.411509      5.00      14.0067
     105     1 Ga  31    6.494479   -0.005533   10.408753     13.00      69.7230
     106     2 N    7    6.501263    1.865525   11.015395      5.00      14.0067
     107     1 Ga  31    6.504869    1.862986   13.013458     13.00      69.7230
     108     2 N    7    6.493964   -0.007615   13.623169      5.00      14.0067
     109     1 Ga  31    6.483635   -0.009597   15.626780     13.00      69.7230
     110     2 N    7    6.510984    1.871312   16.210889      5.00      14.0067
     111     1 Ga  31    6.522809    1.897047   18.282383     13.00      69.7230
     112     2 N    7    6.508404   -0.000149   18.584240      5.00      14.0067
     113     1 Ga  31    4.876781    2.802462   -0.552251     13.00      69.7230
     114     2 N    7    4.882643    4.675450    0.565696      5.00      14.0067
     115     1 Ga  31    4.881078    4.644773    2.598683     13.00      69.7230
     116     2 N    7    4.876199    2.800423    3.227765      5.00      14.0067
     117     1 Ga  31    4.876562    2.800751    5.219623     13.00      69.7230
     118     2 N    7    4.881530    4.674865    5.807761      5.00      14.0067
     119     1 Ga  31    4.880378    4.670649    7.808375     13.00      69.7230
     120     2 N    7    4.875523    2.796686    8.408878      5.00      14.0067
     121     1 Ga  31    4.876414    2.795326   10.407453     13.00      69.7230
     122     2 N    7    4.881345    4.665379   11.012591      5.00      14.0067
     123     1 Ga  31    4.881602    4.659416   13.008342     13.00      69.7230
     124     2 N    7    4.875921    2.783246   13.618812      5.00      14.0067
     125     1 Ga  31    4.869950    2.777447   15.622714     13.00      69.7230
     126     2 N    7    4.875363    4.669106   16.134991      5.00      14.0067
     127     1 Ga  31    4.888919    4.688396   18.179574     13.00      69.7230
     128     2 N    7    4.880472    2.814630   18.600635      5.00      14.0067
     129     1 Ga  31    3.258561    5.605984    0.279940     13.00      69.7230
     130     2 N    7    3.258904    7.475148    0.565376      5.00      14.0067
     131     1 Ga  31    3.287490    7.489812    2.595046     13.00      69.7230
     132     2 N    7    3.257349    5.604536    3.186998      5.00      14.0067
     133     1 Ga  31    3.258069    5.604504    5.198499     13.00      69.7230
     134     2 N    7    3.260164    7.473514    5.807694      5.00      14.0067
     135     1 Ga  31    3.260076    7.471319    7.807404     13.00      69.7230
     136     2 N    7    3.256979    5.601110    8.414553      5.00      14.0067
     137     1 Ga  31    3.257411    5.601523   10.412660     13.00      69.7230
     138     2 N    7    3.263111    7.474774   11.012631      5.00      14.0067
     139     1 Ga  31    3.262260    7.477397   13.009198     13.00      69.7230
     140     2 N    7    3.254670    5.598217   13.590595      5.00      14.0067
     141     1 Ga  31    3.248907    5.600755   15.584421     13.00      69.7230
     142     2 N    7    3.267720    7.470384   16.163830      5.00      14.0067
     143     1 Ga  31    3.290843    7.495870   18.215421     13.00      69.7230
     144     2 N    7    3.275416    5.618514   18.616897      5.00      14.0067




 SCF PARAMETERS         Density guess:                                    ATOMIC
                        --------------------------------------------------------
                        max_scf:                                             100
                        max_scf_history:                                       0
                        max_diis:                                              4
                        --------------------------------------------------------
                        eps_scf:                                        5.00E-06
                        eps_scf_history:                                0.00E+00
                        eps_diis:                                       1.00E-01
                        eps_eigval:                                     1.00E-05
                        --------------------------------------------------------
                        level_shift [a.u.]:                                 0.00
                        --------------------------------------------------------
                        Outer loop SCF in use 
                        No variables optimised in outer loop
                        eps_scf                                         5.00E-06
                        max_scf                                               10
                        No outer loop optimization
                        step_size                                       5.00E-01

 PW_GRID| Information for grid number                                          1
 PW_GRID| Grid distributed over                                    80 processors
 PW_GRID| Real space group dimensions                                    80    1
 PW_GRID| the grid is blocked:                                                NO
 PW_GRID| Cutoff [a.u.]                                                    600.0
 PW_GRID| spherical cutoff:                                                   NO
 PW_GRID|   Bounds   1           -100      99                Points:         200
 PW_GRID|   Bounds   2           -100      99                Points:         200
 PW_GRID|   Bounds   3           -324     323                Points:         648
 PW_GRID| Volume element (a.u.^3)  0.6333E-03     Volume (a.u.^3)     16414.2734
 PW_GRID| Grid span                                                    FULLSPACE
 PW_GRID|   Distribution                         Average         Max         Min
 PW_GRID|   G-Vectors                           324000.0      324000      324000
 PW_GRID|   G-Rays                                1620.0        1620        1620
 PW_GRID|   Real Space Points                   324000.0      388800      259200

 PW_GRID| Information for grid number                                          2
 PW_GRID| Grid distributed over                                    80 processors
 PW_GRID| Real space group dimensions                                    80    1
 PW_GRID| the grid is blocked:                                                NO
 PW_GRID| Cutoff [a.u.]                                                    200.0
 PW_GRID| spherical cutoff:                                                   NO
 PW_GRID|   Bounds   1            -60      59                Points:         120
 PW_GRID|   Bounds   2            -60      59                Points:         120
 PW_GRID|   Bounds   3           -187     187                Points:         375
 PW_GRID| Volume element (a.u.^3)  0.3040E-02     Volume (a.u.^3)     16414.2734
 PW_GRID| Grid span                                                    FULLSPACE
 PW_GRID|   Distribution                         Average         Max         Min
 PW_GRID|   G-Vectors                            67500.0       68520       66240
 PW_GRID|   G-Rays                                 562.5         571         552
 PW_GRID|   Real Space Points                    67500.0       90000       45000

 PW_GRID| Information for grid number                                          3
 PW_GRID| Grid distributed over                                    80 processors
 PW_GRID| Real space group dimensions                                     8   10
 PW_GRID| the grid is blocked:                                                NO
 PW_GRID| Cutoff [a.u.]                                                     66.7
 PW_GRID| spherical cutoff:                                                   NO
 PW_GRID|   Bounds   1            -36      35                Points:          72
 PW_GRID|   Bounds   2            -36      35                Points:          72
 PW_GRID|   Bounds   3           -108     107                Points:         216
 PW_GRID| Volume element (a.u.^3)  0.1466E-01     Volume (a.u.^3)     16414.2734
 PW_GRID| Grid span                                                    FULLSPACE
 PW_GRID|   Distribution                         Average         Max         Min
 PW_GRID|   G-Vectors                            13996.8       14976       12816
 PW_GRID|   G-Rays                                 194.4         208         178
 PW_GRID|   Real Space Points                    13996.8       15552       13608

 PW_GRID| Information for grid number                                          4
 PW_GRID| Grid distributed over                                    80 processors
 PW_GRID| Real space group dimensions                                     8   10
 PW_GRID| the grid is blocked:                                                NO
 PW_GRID| Cutoff [a.u.]                                                     22.2
 PW_GRID| spherical cutoff:                                                   NO
 PW_GRID|   Bounds   1            -20      19                Points:          40
 PW_GRID|   Bounds   2            -20      19                Points:          40
 PW_GRID|   Bounds   3            -62      62                Points:         125
 PW_GRID| Volume element (a.u.^3)  0.8207E-01     Volume (a.u.^3)     16414.2734
 PW_GRID| Grid span                                                    FULLSPACE
 PW_GRID|   Distribution                         Average         Max         Min
 PW_GRID|   G-Vectors                             2500.0        2960        2040
 PW_GRID|   G-Rays                                  62.5          74          51
 PW_GRID|   Real Space Points                     2500.0        2500        2500

 PW_GRID| Information for grid number                                          5
 PW_GRID| Grid distributed over                                    80 processors
 PW_GRID| Real space group dimensions                                     8   10
 PW_GRID| the grid is blocked:                                                NO
 PW_GRID| Cutoff [a.u.]                                                      7.4
 PW_GRID| spherical cutoff:                                                   NO
 PW_GRID|   Bounds   1            -12      11                Points:          24
 PW_GRID|   Bounds   2            -12      11                Points:          24
 PW_GRID|   Bounds   3            -36      35                Points:          72
 PW_GRID| Volume element (a.u.^3)  0.3958         Volume (a.u.^3)     16414.2734
 PW_GRID| Grid span                                                    FULLSPACE
 PW_GRID|   Distribution                         Average         Max         Min
 PW_GRID|   G-Vectors                              518.4         648         240
 PW_GRID|   G-Rays                                  21.6          27          10
 PW_GRID|   Real Space Points                      518.4         648         432

 POISSON| Solver                                                        PERIODIC
 POISSON| Periodicity                                                        XYZ

 RS_GRID| Information for grid number                                          1
 RS_GRID|   Bounds   1           -100      99                Points:         200
 RS_GRID|   Bounds   2           -100      99                Points:         200
 RS_GRID|   Bounds   3           -324     323                Points:         648
 RS_GRID| Real space distribution over                                 80 groups
 RS_GRID| Real space distribution along direction                              3
 RS_GRID| Border size                                                         73
 RS_GRID|   Distribution                         Average         Max         Min
 RS_GRID|   Planes                                 154.1         155         154

 RS_GRID| Information for grid number                                          2
 RS_GRID|   Bounds   1            -60      59                Points:         120
 RS_GRID|   Bounds   2            -60      59                Points:         120
 RS_GRID|   Bounds   3           -187     187                Points:         375
 RS_GRID| Real space distribution over                                 80 groups
 RS_GRID| Real space distribution along direction                              3
 RS_GRID| Border size                                                         45
 RS_GRID|   Distribution                         Average         Max         Min
 RS_GRID|   Planes                                  94.7          95          94

 RS_GRID| Information for grid number                                          3
 RS_GRID|   Bounds   1            -36      35                Points:          72
 RS_GRID|   Bounds   2            -36      35                Points:          72
 RS_GRID|   Bounds   3           -108     107                Points:         216
 RS_GRID| Real space fully replicated
 RS_GRID| Group size                                                           1

 RS_GRID| Information for grid number                                          4
 RS_GRID|   Bounds   1            -20      19                Points:          40
 RS_GRID|   Bounds   2            -20      19                Points:          40
 RS_GRID|   Bounds   3            -62      62                Points:         125
 RS_GRID| Real space fully replicated
 RS_GRID| Group size                                                           1

 RS_GRID| Information for grid number                                          5
 RS_GRID|   Bounds   1            -12      11                Points:          24
 RS_GRID|   Bounds   2            -12      11                Points:          24
 RS_GRID|   Bounds   3            -36      35                Points:          72
 RS_GRID| Real space fully replicated
 RS_GRID| Group size                                                           1

 CELL_OPT| Pressure tolerance [bar]:                                       300.0
 CELL_OPT| Keep angles between the cell vectors:                             YES
 CELL_OPT| Keep cell symmetry:                                               YES
 CELL_OPT| Constraint:                                                         Z

 BFGS| Use rational function optimization for step estimation:                NO
 BFGS| Use model Hessian for initial guess:                                   NO
 BFGS| Restart Hessian:                                                       NO
 BFGS| Trust radius:                                                       0.472

 *******************************************************************************
 ***                     STARTING   CELL   OPTIMIZATION                      ***
 ***                                   BFGS                                  ***
 *******************************************************************************

 CELL| Volume [angstrom^3]:                                             2519.204
 CELL| Vector a [angstrom]:       9.743     0.000     0.000    |a| =       9.743
 CELL| Vector b [angstrom]:      -4.856     8.410     0.000    |b| =       9.712
 CELL| Vector c [angstrom]:       0.000     0.000    30.744    |c| =      30.744
 CELL| Angle (b,c), alpha [degree]:                                       90.000
 CELL| Angle (a,c), beta  [degree]:                                       90.000
 CELL| Angle (a,b), gamma [degree]:                                      120.000
 CELL| Numerically orthorhombic:                                              NO

 Number of electrons:                                                       1296
 Number of occupied orbitals:                                                648
 Number of molecular orbitals:                                               648

 Number of orbital functions:                                               2736
 Number of independent orbital functions:                                   2736

 Extrapolation method: initial_guess

 Atomic guess: The first density matrix is obtained in terms of atomic orbitals
               and electronic configurations assigned to each atomic kind

 Guess for atomic kind: Ga

 Electronic structure
    Total number of core electrons                                         18.00
    Total number of valence electrons                                      13.00
    Total number of electrons                                              31.00
    Multiplicity                                                   not specified
    S   [  2.00  2.00  2.00] 2.00
    P   [  6.00  6.00] 1.00
    D     10.00
 

 *******************************************************************************
                  Iteration          Convergence                     Energy [au]
 *******************************************************************************
                          1         22.1524                     -44.516413224335
                          2         1.91043                     -73.305924441898
                          3        0.524291E-01                 -74.147756188929
                          4        0.359055E-02                 -74.148100266765
                          5        0.137660E-02                 -74.148101509825
                          6        0.820576E-03                 -74.148101603074
                          7        0.577059E-04                 -74.148101657024
                          8        0.577427E-08                 -74.148101657328

 Energy components [Hartree]           Total Energy ::          -74.148101657328
                                        Band Energy ::           -7.354344558070
                                     Kinetic Energy ::           99.564392614967
                                   Potential Energy ::         -173.712494272295
                                      Virial (-V/T) ::            1.744725094081
                                        Core Energy ::         -134.243973097364
                                          XC Energy ::           -9.781240980901
                                     Coulomb Energy ::           69.877112420937
                       Total Pseudopotential Energy ::         -233.873649274629
                       Local Pseudopotential Energy ::         -163.402683521975
                    Nonlocal Pseudopotential Energy ::          -70.470965752654
                                        Confinement ::            0.652835622975

 Orbital energies  State     L     Occupation   Energy[a.u.]          Energy[eV]

                       1     0          2.000      -0.307238           -8.360378
 
                       1     1          1.000      -0.061461           -1.672442
 
                       1     2         10.000      -0.667841          -18.172870
 

 Total Electron Density at R=0:                                         0.000004

 Guess for atomic kind: N

 Electronic structure
    Total number of core electrons                                          2.00
    Total number of valence electrons                                       5.00
    Total number of electrons                                               7.00
    Multiplicity                                                   not specified
    S   [  2.00] 2.00
    P      3.00
 

 *******************************************************************************
                  Iteration          Convergence                     Energy [au]
 *******************************************************************************
                          1        0.314603                      -9.513311037226
                          2        0.240982                      -9.524715106536
                          3        0.171660E-02                  -9.545365478140
                          4        0.189497E-03                  -9.545366407342
                          5        0.115171E-03                  -9.545366414563
                          6        0.842367E-04                  -9.545366416530
                          7        0.416372E-07                  -9.545366418792

 Energy components [Hartree]           Total Energy ::           -9.545366418792
                                        Band Energy ::           -2.053285301135
                                     Kinetic Energy ::            6.740378038236
                                   Potential Energy ::          -16.285744457028
                                      Virial (-V/T) ::            2.416147041701
                                        Core Energy ::          -15.542519058333
                                          XC Energy ::           -2.163416690174
                                     Coulomb Energy ::            8.160569329715
                       Total Pseudopotential Energy ::          -22.320027271038
                       Local Pseudopotential Energy ::          -23.240219346165
                    Nonlocal Pseudopotential Energy ::            0.920192075127
                                        Confinement ::            0.371301744695

 Orbital energies  State     L     Occupation   Energy[a.u.]          Energy[eV]

                       1     0          2.000      -0.663125          -18.044549
 
                       1     1          3.000      -0.242345           -6.594545
 

 Total Electron Density at R=0:                                         0.000019
 Re-scaling the density matrix to get the right number of electrons
                  # Electrons              Trace(P)               Scaling factor
                         1296              1295.997                        1.000


 SCF WAVEFUNCTION OPTIMIZATION

  ----------------------------------- OT ---------------------------------------
  Minimizer      : CG                  : conjugate gradient
  Preconditioner : FULL_ALL            : diagonalization, state selective
  Precond_solver : DEFAULT
  Line search    : 2PNT                : 2 energies, one gradient
  stepsize       :    0.15000000                  energy_gap     :    0.08000000
  eps_taylor     :   0.10000E-15                  max_taylor     :             4
  ----------------------------------- OT ---------------------------------------

  Step     Update method      Time    Convergence         Total energy    Change
  ------------------------------------------------------------------------------
     1 OT CG       0.15E+00    4.5     0.03624087     -6016.5313233228 -6.02E+03
     2 OT LS       0.48E-01    2.2                    -5824.5564685410
     3 OT CG       0.48E-01    4.2     0.35753047     -5773.5548106554  2.43E+02
     4 OT LS       0.22E-01    1.9                    -4491.0829144018
     5 OT CG       0.22E-01    4.2     0.77073572     -5219.9162194900  5.54E+02
     6 OT LS       0.11E-01    1.9                    -4963.1760643651
     7 OT CG       0.11E-01    4.4     0.84298358     -4791.6213967366  4.28E+02
     8 OT LS       0.55E-02    1.9                    -5303.4680001393
     9 OT CG       0.55E-02    4.2     0.50819913     -5407.1336970111 -6.16E+02
    10 OT LS       0.35E-02    2.2                    -5791.1568473032
    11 OT CG       0.35E-02    6.8     0.28706774     -5633.0626651929 -2.26E+02
    12 OT LS       0.25E-02    2.9                    -5804.5202511953
    13 OT CG       0.25E-02    6.1     0.09026718     -5827.3491243516 -1.94E+02
    14 OT LS       0.98E-02    2.6                    -5857.1620154433
    15 OT CG       0.98E-02    6.2     0.03285833     -5899.8925693829 -7.25E+01
    16 OT LS       0.15E-01    2.8                    -5913.3658239551
    17 OT CG       0.15E-01    6.6     0.05202539     -5916.5361774219 -1.66E+01
    18 OT LS       0.71E-02    3.0                    -5909.5039852348
    19 OT CG       0.71E-02    4.8     0.02881401     -5941.6208655024 -2.51E+01
    20 OT LS       0.22E-01    1.9                    -5952.8218588081
    21 OT CG       0.22E-01    4.1     0.05489793     -5960.9741574840 -1.94E+01
    22 OT LS       0.50E-02    2.2                    -5842.6659941893
    23 OT CG       0.50E-02    4.2     0.03523411     -5973.6687725132 -1.27E+01
    24 OT LS       0.59E-02    1.9                    -5980.0394339026
    25 OT CG       0.59E-02    4.2     0.02772975     -5980.2857859380 -6.62E+00
    26 OT LS       0.13E-01    1.9                    -5986.8603737011
    27 OT CG       0.13E-01    5.2     0.02111030     -5989.5782007263 -9.29E+00
    28 OT LS       0.19E-01    2.4                    -5996.1423103576
    29 OT CG       0.19E-01    4.8     0.01920789     -5997.6331049176 -8.05E+00
    30 OT LS       0.14E-01    2.4                    -6002.3758364154
    31 OT CG       0.14E-01    5.3     0.02697451     -6003.3960535552 -5.76E+00
    32 OT LS       0.97E-02    2.5                    -6008.2448358909
    33 OT CG       0.97E-02    5.4     0.02444478     -6009.2631030651 -5.87E+00
    34 OT LS       0.62E-02    2.3                    -6011.4804745829
    35 OT CG       0.62E-02    4.9     0.01889770     -6012.3959137127 -3.13E+00
    36 OT LS       0.22E-01    2.4                    -6015.7374640961
    37 OT CG       0.22E-01    4.6     0.01429025     -6019.3181248673 -6.92E+00
    38 OT LS       0.20E-01    1.9                    -6022.9298481210
    39 OT CG       0.20E-01    4.6     0.01366256     -6022.8759343456 -3.56E+00
    40 OT LS       0.10E-01    1.9                    -6022.8731416435
    41 OT CG       0.10E-01    4.1     0.01285207     -6025.0393164168 -2.16E+00
    42 OT LS       0.27E-01    1.9                    -6027.6386021041
    43 OT CG       0.27E-01    4.1     0.01366705     -6029.3771478024 -4.34E+00
    44 OT LS       0.32E-01    2.1                    -6034.5964460014
    45 OT CG       0.32E-01    4.1     0.00823133     -6034.9034852870 -5.53E+00
    46 OT LS       0.96E-02    1.9                    -6032.1612583008
    47 OT CG       0.96E-02    4.2     0.00853394     -6035.5731264602 -6.70E-01
    48 OT LS       0.38E-01    1.9                    -6036.7253019076
    49 OT CG       0.38E-01    4.4     0.01414513     -6038.1480734985 -2.57E+00
    50 OT LS       0.13E-01    1.9                    -6032.0441040568
    51 OT CG       0.13E-01    4.1     0.01181740     -6038.9207113633 -7.73E-01
    52 OT LS       0.66E-02    1.9                    -6039.0056320191
    53 OT CG       0.66E-02    4.5     0.00638774     -6039.7632476011 -8.43E-01
    54 OT LS       0.26E-01    1.9                    -6040.2030946041
    55 OT CG       0.26E-01    4.1     0.00449954     -6041.0197226711 -1.26E+00
    56 OT LS       0.11E-01    1.9                    -6040.7866581785
    57 OT CG       0.11E-01    4.5     0.00445381     -6041.2048044957 -1.85E-01
    58 OT LS       0.42E-01    2.9                    -6041.5431342906
    59 OT CG       0.42E-01    7.8     0.00324607     -6042.2615673195 -1.06E+00
    60 OT LS       0.28E-01    2.4                    -6042.4735720724
    61 OT CG       0.28E-01    5.7     0.00586295     -6042.5500390820 -2.88E-01
    62 OT LS       0.23E-01    2.5                    -6043.2079026970
    63 OT CG       0.23E-01    5.9     0.00486031     -6043.2336633099 -6.84E-01
    64 OT LS       0.19E-01    2.6                    -6043.6317254567
    65 OT CG       0.19E-01    5.5     0.00667917     -6043.6407358348 -4.07E-01
    66 OT LS       0.22E-01    2.5                    -6044.5078960265
    67 OT CG       0.22E-01    5.5     0.00362430     -6044.5049887794 -8.64E-01
    68 OT LS       0.10E-01    2.2                    -6044.4666139414
    69 OT CG       0.10E-01    5.1     0.00339147     -6044.6950110985 -1.90E-01
    70 OT LS       0.25E-01    2.3                    -6044.8577565146
    71 OT CG       0.25E-01    5.0     0.00291246     -6044.9590121574 -2.64E-01
    72 OT LS       0.10E-01    2.2                    -6044.8722685712
    73 OT CG       0.10E-01    5.3     0.00195481     -6045.0441768398 -8.52E-02
    74 OT LS       0.40E-01    2.2                    -6045.1127694829
    75 OT CG       0.40E-01    5.9     0.00201971     -6045.2972877151 -2.53E-01
    76 OT LS       0.24E-01    2.8                    -6045.3507745448
    77 OT CG       0.24E-01    9.2     0.00313869     -6045.3919085375 -9.46E-02
    78 OT LS       0.26E-01    2.6                    -6045.6136923920
    79 OT CG       0.26E-01    5.8     0.00290042     -6045.6135836791 -2.22E-01
    80 OT LS       0.10E+00    2.5                    -6045.9379047925
    81 OT CG       0.10E+00    5.4     0.00893855     -6046.3209759084 -7.07E-01
    82 OT LS       0.19E-01    2.5                    -6023.6716137165
    83 OT CG       0.19E-01    5.5     0.00532052     -6046.8472248765 -5.26E-01
    84 OT LS       0.65E-02    2.2                    -6046.7747190043
    85 OT CG       0.65E-02    5.0     0.00535614     -6046.8773644162 -3.01E-02
    86 OT LS       0.26E-01    2.1                    -6047.1719035977
    87 OT CG       0.26E-01    4.3     0.00647989     -6047.4881407408 -6.11E-01
    88 OT LS       0.89E-02    1.9                    -6046.7840796136
    89 OT CG       0.89E-02    4.2     0.00393662     -6047.7260663600 -2.38E-01
    90 OT LS       0.89E-02    1.9                    -6047.8477435474
    91 OT CG       0.89E-02    5.4     0.00239258     -6047.8477190525 -1.22E-01
    92 OT LS       0.35E-01    2.5                    -6047.9287149870
    93 OT CG       0.35E-01    5.4     0.00213518     -6048.0404954695 -1.93E-01
    94 OT LS       0.60E-01    2.6                    -6048.2486193595
    95 OT CG       0.60E-01    5.9     0.00423808     -6048.3021368129 -2.62E-01
    96 OT LS       0.15E-01    2.8                    -6046.1173450731
    97 OT CG       0.15E-01    5.7     0.00249585     -6048.6275220885 -3.25E-01
    98 OT LS       0.40E-01    2.6                    -6048.7842323157
    99 OT CG       0.40E-01    5.6     0.00193898     -6048.8988306385 -2.71E-01
   100 OT LS       0.27E-01    2.6                    -6048.9706060873

  Leaving inner SCF loop after reaching   100 steps.


  Electronic density on regular grids:      -1295.9999999999        0.0000000001
  Core density on regular grids:             1296.0000000000       -0.0000000000
  Total charge density on r-space grids:        0.0000000001
  Total charge density g-space grids:           0.0000000001

  Overlap energy of the core charge distribution:               0.00000035529627
  Self energy of the core charge distribution:              -8794.40665096074918
  Core Hamiltonian energy:                                   2654.71925913524683
  Hartree energy:                                            1001.51066991277230
  Exchange-correlation energy:                               -910.08618320639630
  Dispersion energy:                                           -0.70770132350874

  Total energy:                                             -6048.97060608733864

  outer SCF iter =    1 RMS gradient =   0.19E-02 energy =      -6048.9706060873

  ----------------------------------- OT ---------------------------------------
  Minimizer      : CG                  : conjugate gradient
  Preconditioner : FULL_ALL            : diagonalization, state selective
  Precond_solver : DEFAULT
  Line search    : 2PNT                : 2 energies, one gradient
  stepsize       :    0.15000000                  energy_gap     :    0.08000000
  eps_taylor     :   0.10000E-15                  max_taylor     :             4
  ----------------------------------- OT ---------------------------------------

  Step     Update method      Time    Convergence         Total energy    Change
  ------------------------------------------------------------------------------
     1 OT CG       0.15E+00    8.9     0.01810466     -6048.9969024261 -9.81E-02
     2 OT LS       0.61E-01    1.9                    -6029.4093493845
     3 OT CG       0.61E-01    4.4     0.09435799     -6037.3769873563  1.16E+01
     4 OT LS       0.28E-01    1.9                    -5932.7158528139
     5 OT CG       0.28E-01    4.1     0.18009000     -5975.7316514550  6.16E+01
     6 OT LS       0.14E-01    1.9                    -5971.8529354042
     7 OT CG       0.14E-01    4.5     0.12404006     -6019.5053949115 -4.38E+01
     8 OT LS       0.61E-02    2.9                    -6004.1000382718
[...]
 flops   168 x    40 x    40           3747609600     100.0%      0.0%      0.0%
 flops   160 x    40 x    40          10707456000     100.0%      0.0%      0.0%
 flops   672 x    40 x    40          16680652800     100.0%      0.0%      0.0%
 flops   683 x    40 x    40          16953699200     100.0%      0.0%      0.0%
 flops   685 x    40 x    40          17003344000     100.0%      0.0%      0.0%
 flops   696 x    40 x    40          17276390400     100.0%      0.0%      0.0%
 flops   168 x    40 x   140          21100262400     100.0%      0.0%      0.0%
 flops   168 x    40 x   139          31424319360     100.0%      0.0%      0.0%
 flops   672 x    40 x   140          35193446400     100.0%      0.0%      0.0%
 flops   683 x    40 x   140          35769529600     100.0%      0.0%      0.0%
 flops   685 x    40 x   140          35874272000     100.0%      0.0%      0.0%
 flops   696 x    40 x   140          36450355200     100.0%      0.0%      0.0%
 flops    13 x     8 x    13          43413866496     100.0%      0.0%      0.0%
 flops   672 x    40 x   139          52413096960     100.0%      0.0%      0.0%
 flops   683 x    40 x   139          53271049440     100.0%      0.0%      0.0%
 flops   685 x    40 x   139          53427040800     100.0%      0.0%      0.0%
 flops   696 x    40 x   139          54284993280     100.0%      0.0%      0.0%
 flops   168 x    40 x    32          56963665920     100.0%      0.0%      0.0%
 flops   168 x    32 x    40          56963665920     100.0%      0.0%      0.0%
 flops   160 x    40 x   140          60286464000     100.0%      0.0%      0.0%
 flops    13 x    13 x    40          66126265920     100.0%      0.0%      0.0%
 flops   168 x    40 x   127          86134285440     100.0%      0.0%      0.0%
 flops   160 x    40 x   139          89783769600     100.0%      0.0%      0.0%
 flops    13 x     8 x    25          97358227200     100.0%      0.0%      0.0%
 flops    25 x     8 x    13          97358227200     100.0%      0.0%      0.0%
 flops    25 x    13 x    40         143085540000     100.0%      0.0%      0.0%
 flops   672 x    40 x   127         143664675840     100.0%      0.0%      0.0%
 flops   683 x    40 x   127         146016329760     100.0%      0.0%      0.0%
 flops   685 x    40 x   127         146443903200     100.0%      0.0%      0.0%
 flops    13 x    25 x    40         148530304000     100.0%      0.0%      0.0%
 flops   696 x    40 x   127         148795557120     100.0%      0.0%      0.0%
 flops   160 x    32 x    40         162753331200     100.0%      0.0%      0.0%
 flops   160 x    40 x    32         162753331200     100.0%      0.0%      0.0%
 flops    25 x     8 x    25         197043840000     100.0%      0.0%      0.0%
 flops   160 x    40 x   127         246097958400     100.0%      0.0%      0.0%
 flops   672 x    32 x    40         253545922560     100.0%      0.0%      0.0%
 flops   672 x    40 x    32         253545922560     100.0%      0.0%      0.0%
 flops   683 x    32 x    40         257696227840     100.0%      0.0%      0.0%
 flops   683 x    40 x    32         257696227840     100.0%      0.0%      0.0%
 flops   685 x    32 x    40         258450828800     100.0%      0.0%      0.0%
 flops   685 x    40 x    32         258450828800     100.0%      0.0%      0.0%
 flops   696 x    40 x    32         262601134080     100.0%      0.0%      0.0%
 flops   696 x    32 x    40         262601134080     100.0%      0.0%      0.0%
 flops    25 x    25 x    40         299197800000     100.0%      0.0%      0.0%
 flops   168 x    32 x   140         320723988480     100.0%      0.0%      0.0%
 flops   168 x    32 x   139         477649654272     100.0%      0.0%      0.0%
 flops   672 x    32 x   140         534940385280     100.0%      0.0%      0.0%
 flops   683 x    32 x   140         543696849920     100.0%      0.0%      0.0%
 flops   685 x    32 x   140         545288934400     100.0%      0.0%      0.0%
 flops   696 x    32 x   140         554045399040     100.0%      0.0%      0.0%
 flops   672 x    32 x   139         796679073792     100.0%      0.0%      0.0%
 flops   683 x    32 x   139         809719951488     100.0%      0.0%      0.0%
 flops   685 x    32 x   139         812091020160     100.0%      0.0%      0.0%
 flops   696 x    32 x   139         825131897856     100.0%      0.0%      0.0%
 flops   168 x    32 x    32         865847721984     100.0%      0.0%      0.0%
 flops   160 x    32 x   140         916354252800     100.0%      0.0%      0.0%
 flops    13 x    13 x    32        1005119241984     100.0%      0.0%      0.0%
 flops   168 x    32 x   127        1309241138688     100.0%      0.0%      0.0%
 flops   160 x    32 x   139        1364713297920     100.0%      0.0%      0.0%
 flops    25 x    13 x    32        2174900208000     100.0%      0.0%      0.0%
 flops   672 x    32 x   127        2183703072768     100.0%      0.0%      0.0%
 flops   683 x    32 x   127        2219448212352     100.0%      0.0%      0.0%
 flops   685 x    32 x   127        2225947328640     100.0%      0.0%      0.0%
 flops    13 x    25 x    32        2257660620800     100.0%      0.0%      0.0%
 flops   696 x    32 x   127        2261692468224     100.0%      0.0%      0.0%
 flops   160 x    32 x    32        2473850634240     100.0%      0.0%      0.0%
 flops    13 x    32 x    13        3473109319680     100.0%      0.0%      0.0%
 flops   160 x    32 x   127        3740688967680     100.0%      0.0%      0.0%
 flops   672 x    32 x    32        3853898022912     100.0%      0.0%      0.0%
 flops   683 x    32 x    32        3916982663168     100.0%      0.0%      0.0%
 flops   685 x    32 x    32        3928452597760     100.0%      0.0%      0.0%
 flops   696 x    32 x    32        3991537238016     100.0%      0.0%      0.0%
 flops    25 x    25 x    32        4547806560000     100.0%      0.0%      0.0%
 flops    13 x    32 x    25        7788658176000     100.0%      0.0%      0.0%
 flops    25 x    32 x    13        7788658176000     100.0%      0.0%      0.0%
 flops    25 x    32 x    25       15763507200000     100.0%      0.0%      0.0%
 flops inhomo. stacks              15598817740800     100.0%      0.0%      0.0%
 flops total                       107.031120E+12     100.0%      0.0%      0.0%
 flops max/rank                      1.651728E+12     100.0%      0.0%      0.0%
 matmuls inhomo. stacks                   3813600     100.0%      0.0%      0.0%
 matmuls total                         2015557800     100.0%      0.0%      0.0%
 number of processed stacks              75762152     100.0%      0.0%      0.0%
 average stack size                                    26.6       0.0       0.0
 marketing flops                   116.364690E+12
 -------------------------------------------------------------------------------
 # multiplications                          28851
 max memory usage/rank             966.717440E+06
 # max total images/rank                        5
 # max 3D layers                                1
 # MPI messages exchanged               263121120
 MPI messages size (bytes):
  total size                        16.190013E+12
  min size                           0.000000E+00
  max size                           1.113600E+06
  average size                      61.530648E+03
 MPI breakdown and total messages size (bytes):
             size <=      128              817000                        0
       128 < size <=     8192           101037402             827698397184
      8192 < size <=    32768            60845752            1696767867392
     32768 < size <=   131072            67239366            2639626338304
    131072 < size <=  4194304            33181600           11022881243904
   4194304 < size <= 16777216                   0                        0
  16777216 < size                               0                        0
 -------------------------------------------------------------------------------

 *** WARNING in dbcsr/mm/dbcsr_mm.F:268 :: Using a non-square number of ***
 *** MPI ranks might lead to poor performance.                          ***
 *** Used ranks: 80                                                     ***
 *** Suggested: 81 169                                                  ***

 -------------------------------------------------------------------------------
 
 MEMORY| Estimated peak process memory [MiB]                                 922

 -------------------------------------------------------------------------------
 ----                             MULTIGRID INFO                            ----
 -------------------------------------------------------------------------------
 count for grid        1:         125914          cutoff [a.u.]          600.00
 count for grid        2:         939330          cutoff [a.u.]          200.00
 count for grid        3:         578346          cutoff [a.u.]           66.67
 count for grid        4:         506074          cutoff [a.u.]           22.22
 count for grid        5:         346508          cutoff [a.u.]            7.41
 total gridlevel count  :        2496172

 -------------------------------------------------------------------------------
 -                                                                             -
 -                         MESSAGE PASSING PERFORMANCE                         -
 -                                                                             -
 -------------------------------------------------------------------------------

 ROUTINE             CALLS      AVE VOLUME [Bytes]
 MP_Group             1654
 MP_Bcast            31068                   6304.
 MP_Allreduce       230761                    528.
 MP_Sync              1069
 MP_Alltoall        144020                3099264.
 MP_SendRecv         12008                   5256.
 MP_ISendRecv       804852                  49867.
 MP_Wait           6674121
 MP_comm_split         879
 MP_ISend          7532860                  57888.
 MP_IRecv          7530522                  57832.
 MP_Recv               703                  77088.
 MP_Memory         3242240
 -------------------------------------------------------------------------------


 -------------------------------------------------------------------------------
 -                                                                             -
 -                           R E F E R E N C E S                               -
 -                                                                             -
 -------------------------------------------------------------------------------
 
 CP2K version 7.0 (Development Version), the CP2K developers group (2018).
 CP2K is freely available from https://www.cp2k.org/ .

 Schuett, Ole; Messmer, Peter; Hutter, Juerg; VandeVondele, Joost. 
 Electronic Structure Calculations on Graphics Processing Units, John Wiley & Sons, Ltd, 173-190 (2016). 
 GPU-Accelerated Sparse Matrix-Matrix Multiplication for Linear Scaling Density Functional Theory.
 http://dx.doi.org/10.1002/9781118670712.ch8


 Borstnik, U; VandeVondele, J; Weber, V; Hutter, J. 
 PARALLEL COMPUTING, 40 (5-6), 47-58 (2014). 
 Sparse matrix multiplication: The distributed block-compressed sparse
 row library.
 http://dx.doi.org/10.1016/j.parco.2014.03.012


 Hutter, J; Iannuzzi, M; Schiffmann, F; VandeVondele, J. 
 WILEY INTERDISCIPLINARY REVIEWS-COMPUTATIONAL MOLECULAR SCIENCE, 4 (1), 15-25 (2014). 
 CP2K: atomistic simulations of condensed matter systems.
 http://dx.doi.org/10.1002/wcms.1159


 Grimme, S; Ehrlich, S; Goerigk, L. 
 JOURNAL OF COMPUTATIONAL CHEMISTRY, 32, 1456 (2011). 
 Effect of the damping function in dispersion corrected density functional theory.
 http://dx.doi.org/10.1002/jcc.21759


 Grimme, S; Antony, J; Ehrlich, S; Krieg, H. 
 JOURNAL OF CHEMICAL PHYSICS, 132 (15), 154104 (2010). 
 A consistent and accurate ab initio parametrization of density
 functional dispersion correction (DFT-D) for the 94 elements H-Pu.
 http://dx.doi.org/10.1063/1.3382344


 VandeVondele, J; Hutter, J. 
 JOURNAL OF CHEMICAL PHYSICS, 127 (11), 114105 (2007). 
 Gaussian basis sets for accurate calculations on molecular systems in
 gas and condensed phases.
 http://dx.doi.org/10.1063/1.2770708


 Krack, M. 
 THEORETICAL CHEMISTRY ACCOUNTS, 114 (1-3), 145-152 (2005). 
 Pseudopotentials for H to Kr optimized for gradient-corrected
 exchange-correlation functionals.
 http://dx.doi.org/10.1007/s00214-005-0655-y


 VandeVondele, J; Krack, M; Mohamed, F; Parrinello, M; Chassaing, T;
 Hutter, J. COMPUTER PHYSICS COMMUNICATIONS, 167 (2), 103-128 (2005). 
 QUICKSTEP: Fast and accurate density functional calculations using a
 mixed Gaussian and plane waves approach.
 http://dx.doi.org/10.1016/j.cpc.2004.12.014


 Frigo, M; Johnson, SG. 
 PROCEEDINGS OF THE IEEE, 93 (2), 216-231 (2005). 
 The design and implementation of FFTW3.
 http://dx.doi.org/10.1109/JPROC.2004.840301


 Kolafa, J. 
 JOURNAL OF COMPUTATIONAL CHEMISTRY, 25 (3), 335-342 (2004). 
 Time-reversible always stable predictor-corrector method for molecular dynamics of polarizable molecules.
 http://dx.doi.org/10.1002/jcc.10385


 VandeVondele, J; Hutter, J. 
 JOURNAL OF CHEMICAL PHYSICS, 118 (10), 4365-4369 (2003). 
 An efficient orbital transformation method for electronic structure
 calculations.
 http://dx.doi.org/10.1063/1.1543154


 Hartwigsen, C; Goedecker, S; Hutter, J. 
 PHYSICAL REVIEW B, 58 (7), 3641-3662 (1998). 
 Relativistic separable dual-space Gaussian pseudopotentials from H to Rn.
 http://dx.doi.org/10.1103/PhysRevB.58.3641


 Lippert, G; Hutter, J; Parrinello, M. 
 MOLECULAR PHYSICS, 92 (3), 477-487 (1997). 
 A hybrid Gaussian and plane wave density functional scheme.
 http://dx.doi.org/10.1080/002689797170220


 Perdew, JP; Burke, K; Ernzerhof, M. 
 PHYSICAL REVIEW LETTERS, 77 (18), 3865-3868 (1996). 
 Generalized gradient approximation made simple.
 http://dx.doi.org/10.1103/PhysRevLett.77.3865


 Goedecker, S; Teter, M; Hutter, J. 
 PHYSICAL REVIEW B, 54 (3), 1703-1710 (1996). 
 Separable dual-space Gaussian pseudopotentials.
 http://dx.doi.org/10.1103/PhysRevB.54.1703


 -------------------------------------------------------------------------------
 -                                                                             -
 -                                T I M I N G                                  -
 -                                                                             -
 -------------------------------------------------------------------------------
 SUBROUTINE                       CALLS  ASD         SELF TIME        TOTAL TIME
                                MAXIMUM       AVERAGE  MAXIMUM  AVERAGE  MAXIMUM
 CP2K                                 1  1.0    0.193    0.267 8890.633 8890.659
 cp_cell_opt                          1  2.0    0.047    0.067 8889.505 8889.525
 geoopt_bfgs                          1  3.0    0.198    0.233 8889.458 8889.490
 cp_eval_at                          39  4.0    0.100    0.157 8869.269 8869.297
 qs_forces                           38  5.0    0.021    0.050 8798.124 8798.136
 qs_energies                         39  6.0    0.111    0.167 8537.127 8537.223
 scf_env_do_scf                      39  7.0    0.018    0.113 8326.828 8326.863
 scf_env_do_scf_inner_loop         2200  8.0    0.150    0.211 7967.211 7967.245
 qs_rho_update_rho                 2239  9.0    0.028    0.036 3727.042 3730.760
 calculate_rho_elec                2239 10.0 2068.895 2563.638 3727.014 3730.727
 rebuild_ks_matrix                 2238  9.9    0.009    0.019 3621.002 3622.080
 qs_ks_build_kohn_sham_matrix      2238 10.9    0.450    0.890 3620.993 3622.072
 qs_ks_update_qs_env               2250  9.0    0.023    0.034 3380.443 3381.782
 sum_up_and_integrate              1157 11.9    4.008    4.916 2181.273 2181.767
 integrate_v_rspace                1157 12.9 1262.300 1551.138 2177.262 2178.417
 rs_pw_transfer                   17135 13.0    0.209    0.246 1546.498 1691.273
 density_rs2pw                     2239 11.0    0.160    0.195 1511.804 1651.220
 pw_transfer                      36233 13.4    3.825    4.272 1587.065 1592.546
 fft_wrap_pw1pw2                  31757 14.4    0.387    0.437 1570.639 1576.087
 fft_wrap_pw1pw2_600              18173 15.7   99.853  116.276 1423.819 1429.209
 fft3d_ps                         31757 16.4  342.462  395.266 1338.865 1358.810
 mp_waitany                      708284 14.9 1006.752 1191.660 1006.752 1191.660
 qs_vxc_create                     2238 11.9    0.043    0.065 1154.348 1159.072
 dbcsr_multiply_generic           28851 13.8    1.758    2.339 1099.336 1102.409
 qs_scf_new_mos                    2200  9.0    0.016    0.029 1066.379 1067.609
 qs_scf_loop_do_ot                 2200 10.0    0.094    0.254 1066.364 1067.594
 mp_waitall_1                   5965837 16.7  927.713  979.560  927.713  979.560
 ot_scf_mini                       2200 11.0    0.134    0.218  968.699  969.729
 rs_pw_transfer_RS2PW_600          2317 13.0  125.472  148.700  801.835  944.492
 mp_alltoall_z22v                 31757 18.4  856.844  941.597  856.844  941.597
 multiply_cannon                  28851 14.8    8.814    9.222  819.623  834.028
 xc_vxc_pw_create                  1157 12.9   25.533   31.395  808.248  812.967
 xc_rho_set_and_dset_create        2238 13.9    6.721    7.786  646.145  663.829
 potential_pw2rs                   1157 13.9    0.520    0.716  586.756  587.765
 x_to_yz                          12424 18.0   52.360   65.578  532.433  552.014
 multiply_cannon_metrocomm3      577020 15.8    1.558    1.659  491.236  536.925
 ot_mini                           2200 12.0    0.015    0.033  492.632  493.775
 mp_alltoall_d11v                 21977 15.6  383.752  473.250  383.752  473.250
 rs_distribute_matrix              3434 12.0    1.903    5.141  373.234  461.420
 yz_to_x                           9145 17.1   35.870   45.052  408.490  454.152
 init_scf_loop                       50  8.0    0.009    0.017  358.937  358.959
 xc_exc_calc                       1081 13.0    2.489    3.007  346.057  346.147
 qs_ot_get_derivative              1119 13.0    0.012    0.026  297.017  298.130
 rs_pw_transfer_PW2RS_600          1234 15.6  105.655  118.779  292.266  294.973
 multiply_cannon_metrocomm1      577020 15.8    1.686    1.781  189.645  265.732
 qs_ks_update_qs_env_forces          38  6.0    0.000    0.000  251.407  251.488
 mp_sum_d                         38093 14.4  185.549  225.077  185.549  225.077
 prepare_preconditioner              50  9.0    0.001    0.001  210.473  210.625
 qs_ot_get_p                       2250 11.9    0.032    0.054  200.482  202.809
 make_preconditioner                 50 10.0    0.005    0.020  196.376  196.474
 ot_new_cg_direction               1119 13.0    0.019    0.039  190.828  190.982
 apply_preconditioner_dbcsr        1169 14.0    0.003    0.004  186.990  188.200
 apply_all                         1169 15.0    0.077    0.117  186.987  188.197
 cp_fm_syevd                        879 14.1    0.005    0.009  175.725  184.812
 make_full_all                       50 11.0    0.018    0.070  183.997  184.042
 -------------------------------------------------------------------------------

 The number of warnings for this run is : 3
 
 -------------------------------------------------------------------------------
  **** **** ******  **  PROGRAM ENDED AT                 2019-05-16 15:36:39.068
 ***** ** ***  *** **   PROGRAM RAN ON            blg9212.int.ets1.calculquebec.
 **    ****   ******    PROGRAM RAN BY                                       rzk
 ***** **    ** ** **   PROGRAM PROCESS ID                                378067
  **** **  *******  **  PROGRAM STOPPED IN /lustre03/project/6004141/rzk/GaN-car
                                           bene/00-Surface/00-Preoptimization/33
                                           4-native/Trial4
