     144
 i =        1, E =     -6088.3047124669
 Ga         0.0015666999       -0.0024039926       -0.0028384917
  N        -0.0015006144        1.8485582656        0.6370545709
 Ga        -0.0010213319        1.8501154833        2.6015274861
  N        -0.0001510911        0.0001943281        3.2324379174
 Ga         0.0000997595       -0.0000567860        5.1907861907
  N        -0.0012062755        1.8516329635        5.8257430360
 Ga        -0.0011734700        1.8515607266        7.7831503504
  N        -0.0000084314        0.0000258841        8.4191886782
 Ga        -0.0000054538        0.0000093153       10.3757117647
  N        -0.0011615495        1.8514984661       11.0123770425
 Ga        -0.0012188566        1.8515053895       12.9686493991
  N         0.0000005336        0.0000037015       13.6053153724
 Ga         0.0000069860       -0.0000081635       15.5615520731
  N        -0.0012445489        1.8514691171       16.1952191399
 Ga        -0.0013542816        1.8513274653       18.1657060590
  N         0.0000049339       -0.0000105137       18.7883210850
 Ga        -1.6011970757        2.7810880470       -0.0060284879
  N        -1.6060915981        4.6292435306        0.6376408727
 Ga        -1.6053130140        4.6290468071        2.6014450098
  N        -1.6033120729        2.7773330512        3.2313280762
 Ga        -1.6034560457        2.7772564521        5.1912979878
  N        -1.6045643795        4.6287062558        5.8257721558
 Ga        -1.6045719264        4.6287863445        7.7831311726
  N        -1.6034439598        2.7772657555        8.4191797292
 Ga        -1.6034232447        2.7772207001       10.3757117446
  N        -1.6046501825        4.6287568875       11.0123802832
 Ga        -1.6045082128        4.6287615481       12.9686476267
  N        -1.6034601352        2.7772619873       13.6053215987
 Ga        -1.6034284219        2.7772241384       15.5615479957
  N        -1.6045285260        4.6287171487       16.1952137073
 Ga        -1.6042821742        4.6286993799       18.1656820296
  N        -1.6034505616        2.7772467815       18.7883062053
 Ga        -3.2101937301        5.5576173153       -0.0024837374
  N        -3.2069803360        7.4051438113        0.6416046704
 Ga        -3.2078292238        7.4054791136        2.6008067813
  N        -3.2068658012        5.5541056728        3.2325544999
 Ga        -3.2069573524        5.5546762029        5.1907480575
  N        -3.2081218700        7.4060458302        5.8259527275
 Ga        -3.2080328895        7.4059989985        7.7830338823
  N        -3.2068856857        5.5544913295        8.4191840836
 Ga        -3.2069148754        5.5545475126       10.3756855019
  N        -3.2080809626        7.4059996758       11.0123811558
 Ga        -3.2080450221        7.4060545780       12.9686522676
  N        -3.2068912184        5.5545008579       13.6053920201
 Ga        -3.2069181444        5.5545594623       15.5616308245
  N        -3.2080539353        7.4060512057       16.1952182937
 Ga        -3.2081105697        7.4062612183       18.1656842853
  N        -3.2069181132        5.5545183741       18.7882388293
 Ga         3.2025834484        0.0019084480       -0.0027503009
  N         3.2019796684        1.8497350883        0.6391246260
 Ga         3.2022797739        1.8501862999        2.6012831810
  N         3.2035765280        0.0001632858        3.2331290113
 Ga         3.2033445614        0.0000525318        5.1905237044
  N         3.2021378606        1.8516703815        5.8258950442
 Ga         3.2021756346        1.8515069030        7.7830757186
  N         3.2033740521        0.0000094114        8.4192061006
 Ga         3.2033212772        0.0000039749       10.3756942252
  N         3.2021536533        1.8515089519       11.0123819614
 Ga         3.2022323936        1.8514782459       12.9686510327
  N         3.2033608394       -0.0000005397       13.6053179372
 Ga         3.2033071851        0.0000204638       15.5615489820
  N         3.2021676295        1.8514405523       16.1952117603
 Ga         3.2024574325        1.8514249140       18.1657046131
  N         3.2033941940        0.0000390601       18.7882441326
 Ga         1.5993577512        2.7807568920       -0.0042428210
  N         1.5996510795        4.6279456307        0.6383423909
 Ga         1.5989835639        4.6284964684        2.6012481522
  N         1.5995653889        2.7773363703        3.2316130079
 Ga         1.5999325038        2.7771446524        5.1911456090
  N         1.5987261806        4.6287556402        5.8256975653
 Ga         1.5986808243        4.6287825162        7.7831681327
  N         1.5998944253        2.7772798092        8.4191692210
 Ga         1.5998854506        2.7772308171       10.3756825481
  N         1.5987404913        4.6287396138       11.0123755061
 Ga         1.5986716576        4.6288493626       12.9686448134
  N         1.5999062253        2.7772531952       13.6053951865
 Ga         1.5999094599        2.7772104481       15.5616203946
  N         1.5987629548        4.6288459192       16.1952295400
 Ga         1.5986062436        4.6290514074       18.1657323291
  N         1.5999120245        2.7772819107       18.7881514621
 Ga        -0.0008355205        5.5541542946       -0.0044336788
  N        -0.0061388713        7.4052284511        0.6394091249
 Ga        -0.0054216251        7.4059135510        2.6012470632
  N        -0.0034776089        5.5541059479        3.2317607759
 Ga        -0.0035749287        5.5546429778        5.1910884810
  N        -0.0046464022        7.4059703371        5.8259244894
 Ga        -0.0047082691        7.4059679509        7.7830689885
  N        -0.0035306875        5.5544965052        8.4191840093
 Ga        -0.0035271882        5.5545090820       10.3756904076
  N        -0.0047069682        7.4060263379       11.0123782721
 Ga        -0.0047640049        7.4059067625       12.9686462260
  N        -0.0035341615        5.5545084641       13.6053024002
 Ga        -0.0035542147        5.5545046091       15.5615275672
  N        -0.0047475243        7.4059625015       16.1952285904
 Ga        -0.0049275660        7.4057505634       18.1657198863
  N        -0.0035750190        5.5545147960       18.7882765399
 Ga         6.4072147942       -0.0009917297       -0.0043530563
  N         6.4051858598        1.8498207063        0.6375405322
 Ga         6.4048577881        1.8505659960        2.6015193185
  N         6.4066313559        0.0001031456        3.2323152740
 Ga         6.4066605611        0.0000554061        5.1908685890
  N         6.4056431636        1.8516051230        5.8258441060
 Ga         6.4055564890        1.8514966559        7.7831075692
  N         6.4067247020        0.0000176431        8.4191887461
 Ga         6.4067617666        0.0000008679       10.3756674031
  N         6.4055386538        1.8514854238       11.0123855330
 Ga         6.4055362789        1.8515592605       12.9686447554
  N         6.4067087948        0.0000067326       13.6054016836
 Ga         6.4067563185        0.0000018750       15.5616262125
  N         6.4054818900        1.8515657787       16.1952081982
 Ga         6.4053869512        1.8517950586       18.1656971932
  N         6.4067279628       -0.0000241210       18.7882076263
 Ga         4.8027910310        2.7805699823       -0.0042130675
  N         4.8017933523        4.6269876823        0.6397870551
 Ga         4.8020964393        4.6283997132        2.6010739702
  N         4.8034197262        2.7770601071        3.2322633816
 Ga         4.8032834263        2.7771893591        5.1909026279
  N         4.8020627418        4.6287721327        5.8258197968
 Ga         4.8020995654        4.6287704439        7.7830893488
  N         4.8032720306        2.7772600836        8.4191889012
 Ga         4.8032689326        2.7772563869       10.3757117924
  N         4.8020928922        4.6287724422       11.0123856772
 Ga         4.8020279561        4.6287253501       12.9686468135
  N         4.8032648712        2.7772567480       13.6052974335
 Ga         4.8032745366        2.7772445881       15.5615641063
  N         4.8020096151        4.6287421789       16.1952169794
 Ga         4.8018947549        4.6285068431       18.1657073500
  N         4.8032971096        2.7772716195       18.7883355307
 Ga         3.2017195828        5.5575929946       -0.0021123992
  N         3.1980505293        7.4058471626        0.6396864654
 Ga         3.1986538430        7.4054553858        2.6011038269
  N         3.1996888690        5.5544652147        3.2320363848
 Ga         3.1999473684        5.5546616012        5.1909327954
  N         3.1986350182        7.4060454256        5.8258200180
 Ga         3.1985964435        7.4060033484        7.7831074344
  N         3.1998066576        5.5545149948        8.4191721971
 Ga         3.1998307642        5.5545476736       10.3757012445
  N         3.1986419298        7.4060251715       11.0123795433
 Ga         3.1986675595        7.4059573389       12.9686478335
  N         3.1998329774        5.5545045795       13.6053199190
 Ga         3.1998386208        5.5545340566       15.5615334858
  N         3.1987166086        7.4060090757       16.1952238234
 Ga         3.1989357703        7.4059617063       18.1657112041
  N         3.1997920784        5.5544944866       18.7882216957
     144
 i =        2, E =     -6088.3427691188
 Ga         0.0060031708       -0.0090682293       -0.0076052826
  N        -0.0044048309        1.8609221052        0.6158065751
 Ga        -0.0029782326        1.8663565777        2.6227546369
  N        -0.0002489304        0.0004744021        3.2205127196
 Ga         0.0004813002        0.0000753850        5.2042520797
  N        -0.0035231333        1.8717746598        5.8135725228
 Ga        -0.0033805708        1.8715861184        7.7952707345
  N         0.0001525862        0.0004080860        8.4077914373
 Ga         0.0001351267        0.0002830153       10.3866753601
  N        -0.0033649132        1.8713507466       11.0014580601
 Ga        -0.0035462026        1.8714079836       12.9794280020
  N         0.0001800889        0.0003200101       13.5940326945
 Ga         0.0001703050        0.0002309529       15.5721097735
  N        -0.0036873104        1.8711967234       16.1795194823
 Ga        -0.0040361601        1.8708047574       18.2038856675
  N         0.0002171423        0.0002779517       18.7678838829
 Ga        -1.6127089820        2.8213937914       -0.0191266106
  N        -1.6297704147        4.6818288534        0.6175964013
 Ga        -1.6267188419        4.6797445572        2.6227367524
  N        -1.6203416641        2.8079445320        3.2163134508
 Ga        -1.6207620497        2.8078013471        5.2056676661
  N        -1.6241544273        4.6787551811        5.8136426673
 Ga        -1.6241298958        4.6790238670        7.7952188992
  N        -1.6207199404        2.8078574111        8.4077684239
 Ga        -1.6206803645        2.8076450537       10.3866754804
  N        -1.6244156067        4.6788488376       11.0014453902
 Ga        -1.6239194227        4.6789170131       12.9794087937
  N        -1.6207627998        2.8078305315       13.5940610642
 Ga        -1.6207033761        2.8076515476       15.5721159910
  N        -1.6239789683        4.6786735776       16.1794825717
 Ga        -1.6232268513        4.6787155800       18.2038315689
  N        -1.6207428556        2.8077597660       18.7677102541
 Ga        -3.2538642497        5.6265209007       -0.0055751760
  N        -3.2409776674        7.4835845965        0.6332136040
 Ga        -3.2442334710        7.4844532400        2.6216090839
  N        -3.2417908206        5.6138393901        3.2208617115
 Ga        -3.2418952162        5.6158348786        5.2042147654
  N        -3.2453623314        7.4865038549        5.8142512633
 Ga        -3.2450668194        7.4863698032        7.7948796409
  N        -3.2415906277        5.6152223825        8.4077798502
 Ga        -3.2417362213        5.6153860545       10.3865803419
  N        -3.2452668162        7.4863281530       11.0014652281
 Ga        -3.2451095552        7.4865412418       12.9794298757
  N        -3.2416098852        5.6152747596       13.5943294352
 Ga        -3.2417454427        5.6154204655       15.5724783847
  N        -3.2451890988        7.4864945808       16.1795104178
 Ga        -3.2453329882        7.4871823434       18.2038266929
  N        -3.2417153650        5.6153049199       18.7673576773
 Ga         3.2294585292        0.0069680739       -0.0066724731
  N         3.2278581093        1.8658788284        0.6233726448
 Ga         3.2289679501        1.8666395824        2.6224150323
  N         3.2328834493        0.0006052915        3.2231331098
 Ga         3.2321750008        0.0004921322        5.2035256008
  N         3.2285007155        1.8719268924        5.8140961869
 Ga         3.2286529159        1.8714148228        7.7950161026
  N         3.2323082077        0.0003422215        8.4078620103
 Ga         3.2320787842        0.0002719679       10.3866144077
  N         3.2285379574        1.8713883348       11.0014592598
 Ga         3.2288435208        1.8713117569       12.9794285800
  N         3.2322517344        0.0002944796       13.5940514650
 Ga         3.2320384112        0.0003068662       15.5721161330
  N         3.2286207352        1.8711447280       16.1795029179
 Ga         3.2295803115        1.8711551946       18.2038411531
  N         3.2323330883        0.0004219568       18.7676288496
 Ga         1.6091139541        2.8197065309       -0.0129183297
  N         1.6118316122        4.6768963388        0.6210732182
 Ga         1.6085824332        4.6778163657        2.6223820478
  N         1.6101931628        2.8078425484        3.2173926801
 Ga         1.6113653599        2.8074270447        5.2052591034
  N         1.6077368579        4.6788896095        5.8133537125
 Ga         1.6075970530        4.6790053775        7.7952944431
  N         1.6112702739        2.8079047163        8.4077404812
 Ga         1.6112149520        2.8076613340       10.3865617133
  N         1.6077664528        4.6787932925       11.0014372049
 Ga         1.6075509310        4.6792204846       12.9794094923
  N         1.6113122961        2.8078108498       13.5943410641
 Ga         1.6112828800        2.8076103224       15.5724387420
  N         1.6078023661        4.6791937760       16.1795453676
 Ga         1.6073267349        4.6799205858       18.2039182394
  N         1.6113300271        2.8078808351       18.7671916695
 Ga        -0.0000490533        5.6139726285       -0.0128362556
  N        -0.0182698616        7.4835677479        0.6241085283
 Ga        -0.0156891370        7.4858385319        2.6224044861
  N        -0.0094136561        5.6137859804        3.2179517634
 Ga        -0.0096870166        5.6156936065        5.2051064731
  N        -0.0129744382        7.4862607811        5.8141761623
 Ga        -0.0131343588        7.4862600339        7.7950011366
  N        -0.0095559833        5.6152577382        8.4078032029
 Ga        -0.0095933092        5.6152612179       10.3865910061
  N        -0.0131416881        7.4864253906       11.0014428347
 Ga        -0.0133113927        7.4860556265       12.9794097448
  N        -0.0095639518        5.6152972954       13.5940020901
 Ga        -0.0096593380        5.6152558746       15.5720322568
  N        -0.0133018076        7.4861374362       16.1795342911
 Ga        -0.0137959186        7.4855613770       18.2039022056
  N        -0.0097411918        5.6152915635       18.7677199825
 Ga         6.4654689334       -0.0035805525       -0.0126927127
  N         6.4599079708        1.8658413459        0.6168383382
 Ga         6.4584217447        1.8679170155        2.6227280803
  N         6.4638436335        0.0003172681        3.2200986581
 Ga         6.4640779858        0.0004507280        5.2044636255
  N         6.4610625286        1.8717206244        5.8139465144
 Ga         6.4607790631        1.8713873098        7.7951465987
  N         6.4643066463        0.0003720692        8.4078019296
 Ga         6.4644241631        0.0002737860       10.3865154324
  N         6.4606990504        1.8712993967       11.0014616002
 Ga         6.4607141986        1.8715818452       12.9794157709
  N         6.4642667383        0.0003246601       13.5943430945
 Ga         6.4644178756        0.0002653082       15.5724445051
  N         6.4604773338        1.8716003507       16.1794881389
 Ga         6.4602789751        1.8723407249       18.2038758160
  N         6.4643172478        0.0002080400       18.7672450303
 Ga         4.8416393947        2.8188279542       -0.0125319296
  N         4.8386038382        4.6732128796        0.6263299074
 Ga         4.8397903915        4.6772735955        2.6222387559
  N         4.8437816803        2.8069704952        3.2197808077
 Ga         4.8434168937        2.8075450226        5.2045869479
  N         4.8397172948        4.6789260163        5.8137713681
 Ga         4.8398402681        4.6789491871        7.7950681804
  N         4.8434067898        2.8078299883        8.4078075700
 Ga         4.8433691212        2.8077698884       10.3866729129
  N         4.8397888011        4.6789142941       11.0014603403
 Ga         4.8396254918        4.6787914274       12.9794119963
  N         4.8433680652        2.8078082360       13.5939835771
 Ga         4.8433756436        2.8077456656       15.5721184972
  N         4.8394710536        4.6787477058       16.1795029874
 Ga         4.8392272441        4.6781510267       18.2038834767
  N         4.8434752936        2.8078249952       18.7679051956
 Ga         3.2294457987        5.6265654581       -0.0043764318
  N         3.2168961269        7.4861525407        0.6264324200
 Ga         3.2187819611        7.4844923515        2.6221520517
  N         3.2221625191        5.6149892197        3.2189516464
 Ga         3.2228687593        5.6158114893        5.2047250501
  N         3.2188670328        7.4865356664        5.8137949601
 Ga         3.2187531081        7.4863747251        7.7950998773
  N         3.2224222184        5.6153147721        8.4077537585
 Ga         3.2225105483        5.6154010556       10.3866158260
  N         3.2188832353        7.4864135370       11.0014594510
 Ga         3.2189800346        7.4862334164       12.9794235384
  N         3.2225005623        5.6152828106       13.5940638946
 Ga         3.2225310604        5.6153678682       15.5720647886
  N         3.2191657194        7.4863386563       16.1795347194
 Ga         3.2198538397        7.4862708407       18.2038957526
  N         3.2223831709        5.6152168207       18.7675162430
     144
 i =        3, E =     -6088.3510462385
 Ga         0.0081641360       -0.0148648921       -0.0074700334
  N        -0.0049095812        1.8590779014        0.6026156817
 Ga        -0.0033074669        1.8666717679        2.6315784016
  N         0.0000117241        0.0003598097        3.2158532913
 Ga         0.0007282583        0.0002637907        5.2107026668
  N        -0.0039762302        1.8740659301        5.8078659347
 Ga        -0.0037582817        1.8738659971        7.8012076093
  N         0.0003277769        0.0007492190        8.4021780827
 Ga         0.0002814560        0.0005395613       10.3921686149
  N        -0.0037794827        1.8735070107       10.9959852097
 Ga        -0.0038825943        1.8737020037       12.9847169901
  N         0.0003796867        0.0006201131       13.5882428546
 Ga         0.0003112220        0.0004814817       15.5776784796
  N        -0.0041415514        1.8733083597       16.1741312527
 Ga        -0.0043695431        1.8730662773       18.2216719696
  N         0.0004162339        0.0005759528       18.7560115802
 Ga        -1.6115862882        2.8309332010       -0.0237973496
  N        -1.6345293407        4.6905091435        0.6056539484
 Ga        -1.6299890621        4.6860366582        2.6314680623
  N        -1.6222381824        2.8118196215        3.2094217553
 Ga        -1.6227079036        2.8118091050        5.2123432587
  N        -1.6267033733        4.6846561682        5.8078945826
 Ga        -1.6266007685        4.6850070251        7.8011533495
  N        -1.6226860288        2.8119200075        8.4021513954
 Ga        -1.6226613118        2.8115749881       10.3921919340
  N        -1.6269793254        4.6847311143       10.9959604231
 Ga        -1.6264284823        4.6849110276       12.9846830188
  N        -1.6227408688        2.8118646277       13.5882793803
 Ga        -1.6226885191        2.8115702975       15.5777089152
  N        -1.6265305528        4.6845044656       16.1740792676
 Ga        -1.6257780239        4.6846759576       18.2216021586
  N        -1.6226831962        2.8117692310       18.7557399718
 Ga        -3.2636021011        5.6377218443       -0.0049769254
  N        -3.2434161475        7.4935016704        0.6286766923
 Ga        -3.2484715472        7.4936564165        2.6311497582
  N        -3.2462499798        5.6210459797        3.2160331188
 Ga        -3.2461506321        5.6237105143        5.2108141435
  N        -3.2500602838        7.4961583796        5.8087701010
 Ga        -3.2496898696        7.4960455519        7.8007008327
  N        -3.2456771956        5.6229255608        8.4021613737
 Ga        -3.2459062601        5.6231046444       10.3921045061
  N        -3.2499867306        7.4959547106       10.9959917136
 Ga        -3.2497479720        7.4961442533       12.9847112533
  N        -3.2457091632        5.6230035235       13.5885527305
 Ga        -3.2459229981        5.6231265148       15.5781266998
  N        -3.2498488860        7.4960470518       16.1741151612
 Ga        -3.2499319551        7.4967524932       18.2216093896
  N        -3.2458631306        5.6230562146       18.7553101729
 Ga         3.2329392430        0.0090457777       -0.0062260214
  N         3.2304683580        1.8676033229        0.6136168865
 Ga         3.2321829954        1.8673224940        2.6315599659
  N         3.2367889160        0.0008345430        3.2195071900
 Ga         3.2359309297        0.0008763157        5.2099706544
  N         3.2316292349        1.8742988656        5.8085921960
 Ga         3.2318555264        1.8736503835        7.8008838390
  N         3.2361049836        0.0006574817        8.4022804356
 Ga         3.2357637615        0.0005268624       10.3921021604
  N         3.2316909214        1.8735662928       10.9959789526
 Ga         3.2320013385        1.8735667279       12.9847016896
  N         3.2360321345        0.0005908000       13.5882733742
 Ga         3.2357206968        0.0005533148       15.5777157246
  N         3.2316903645        1.8732840005       16.1741010288
 Ga         3.2327226986        1.8734242217       18.2216196781
  N         3.2361022328        0.0007726931       18.7556628153
 Ga         1.6086634625        2.8277771045       -0.0153820876
  N         1.6155269993        4.6831618741        0.6116813319
 Ga         1.6099886756        4.6834593780        2.6313485456
  N         1.6113841804        2.8114571642        3.2111933436
 Ga         1.6129074201        2.8113191266        5.2118652095
  N         1.6087912047        4.6847924298        5.8075169912
 Ga         1.6086129328        4.6849872123        7.8012014610
  N         1.6128610871        2.8119792256        8.4021234308
 Ga         1.6127665116        2.8115933389       10.3920726902
  N         1.6088018018        4.6846990292       10.9959489826
 Ga         1.6085641814        4.6851540591       12.9846867667
  N         1.6129171222        2.8118496913       13.5885672482
 Ga         1.6128389891        2.8115413106       15.5780786346
  N         1.6088121075        4.6851128048       16.1741628866
 Ga         1.6082949069        4.6858533792       18.2216941549
  N         1.6129788203        2.8119367613       18.7550991676
 Ga         0.0028876800        5.6199617069       -0.0146952560
  N        -0.0211930474        7.4925412766        0.6148649823
 Ga        -0.0175246501        7.4952436769        2.6314228617
  N        -0.0099954897        5.6208508424        3.2120493211
 Ga        -0.0102220850        5.6234708194        5.2116726561
  N        -0.0140782982        7.4958438088        5.8086953983
 Ga        -0.0142295407        7.4958913129        7.8008514859
  N        -0.0100846714        5.6229795381        8.4022022935
 Ga        -0.0101622695        5.6229434276       10.3920869309
  N        -0.0142640973        7.4960449176       10.9959575027
 Ga        -0.0143563571        7.4956869598       12.9846810238
  N        -0.0101005693        5.6230400799       13.5882201989
 Ga        -0.0102300731        5.6229347262       15.5775872113
  N        -0.0143630097        7.4957170988       16.1741454155
 Ga        -0.0148430884        7.4951838198       18.2216795771
  N        -0.0103580465        5.6230408815       18.7557949876
 Ga         6.4720528794       -0.0059055183       -0.0135888506
  N         6.4670621476        1.8665851328        0.6032658689
 Ga         6.4645842931        1.8687044171        2.6314840764
  N         6.4706989590        0.0004034042        3.2152836656
 Ga         6.4712881653        0.0007601421        5.2108833865
  N         6.4679377450        1.8740462311        5.8083686072
 Ga         6.4675835979        1.8736296152        7.8010756947
  N         6.4716348167        0.0007009765        8.4021969658
 Ga         6.4717691930        0.0005296591       10.3920138551
  N         6.4674526157        1.8734778020       10.9959787150
 Ga         6.4675073113        1.8737601624       12.9846921432
  N         6.4716005048        0.0006257796       13.5885669326
 Ga         6.4717560980        0.0005073489       15.5780700087
  N         6.4671189719        1.8737628446       16.1740873646
 Ga         6.4669929093        1.8745437311       18.2216582020
  N         6.4716518664        0.0004617900       18.7551399648
 Ga         4.8467689340        2.8252544786       -0.0141512831
  N         4.8425134939        4.6774273523        0.6187194165
 Ga         4.8442535033        4.6824681595        2.6316701080
  N         4.8490234254        2.8103389086        3.2144633480
 Ga         4.8486055620        2.8113977454        5.2111826848
  N         4.8443251749        4.6848163432        5.8080527033
 Ga         4.8444826824        4.6849057988        7.8009481141
  N         4.8486110471        2.8118667960        8.4022001078
 Ga         4.8485254365        2.8117341330       10.3921883839
  N         4.8443674263        4.6848243235       10.9959733339
 Ga         4.8443015925        4.6847691191       12.9846916757
  N         4.8485445534        2.8118325560       13.5881898733
 Ga         4.8485317779        2.8117120177       15.5776927594
  N         4.8439985583        4.6846281645       16.1741034021
 Ga         4.8439168672        4.6840847991       18.2216598723
  N         4.8487347865        2.8118451357       18.7560391930
 Ga         3.2355570666        5.6390806212       -0.0035263970
  N         3.2185497963        7.4973467218        0.6200002985
 Ga         3.2209838001        7.4938294863        2.6312113041
  N         3.2253267604        5.6224663384        3.2135896957
 Ga         3.2260002991        5.6237173861        5.2112601797
  N         3.2213229314        7.4962441131        5.8081693055
 Ga         3.2212108682        7.4960484663        7.8009508674
  N         3.2254442541        5.6230490871        8.4021270843
 Ga         3.2255402492        5.6231253742       10.3921115238
  N         3.2213674745        7.4960339350       10.9959801621
 Ga         3.2213969238        7.4959018301       12.9847110693
  N         3.2255360991        5.6230244781       13.5882816446
 Ga         3.2255693153        5.6230808671       15.5776468539
  N         3.2216978407        7.4959995618       16.1741588402
 Ga         3.2223483138        7.4959795783       18.2216807919
  N         3.2253863306        5.6229299825       18.7555066296
     144
 i =        4, E =     -6088.3587063847
 Ga         0.0099986741       -0.0281886230       -0.0058092927
  N        -0.0043114421        1.8501870115        0.5803569957
 Ga        -0.0030904858        1.8617619535        2.6410638160
  N         0.0007028110       -0.0003787424        3.2112751976
 Ga         0.0010709440        0.0005753745        5.2194481553
  N        -0.0039302545        1.8718687838        5.8007012785
 Ga        -0.0035775375        1.8717329470        7.8089400359
  N         0.0006390713        0.0013043410        8.3948441316
 Ga         0.0005265389        0.0009501026       10.3995416505
  N        -0.0036874156        1.8711588666       10.9886575976
 Ga        -0.0035630143        1.8716639604       12.9916281063
  N         0.0007628714        0.0011194642       13.5803657574
 Ga         0.0005092269        0.0008601667       15.5857427559
  N        -0.0040600808        1.8709788507       16.1694168940
 Ga        -0.0038525800        1.8711176978       18.2464143484
  N         0.0007592971        0.0009929232       18.7367466029
 Ga        -1.6039582491        2.8372023337       -0.0293988528
  N        -1.6371458111        4.6921811676        0.5868259972
 Ga        -1.6291737470        4.6817769707        2.6407070178
  N        -1.6202240068        2.8091695801        3.2005564621
 Ga        -1.6207180430        2.8095819348        5.2210332307
  N        -1.6250933621        4.6797228147        5.8005507678
 Ga        -1.6247892687        4.6801527081        7.8089082720
  N        -1.6208284214        2.8098252260        8.3948200035
 Ga        -1.6208481107        2.8092320073       10.3996350367
  N        -1.6252894590        4.6797188196       10.9886094614