 DBCSR| Multiplication driver                                               BLAS
 DBCSR| Multrec recursion limit                                              512
 DBCSR| Multiplication stack size                                           1000
 DBCSR| Maximum elements for images                                    UNLIMITED
 DBCSR| Multiplicative factor virtual images                                   1
 DBCSR| Multiplication size stacks                                             3
 DBCSR| Number of 3D layers                                               SINGLE
 DBCSR| Use MPI memory allocation                                              T
 DBCSR| Use RMA algorithm                                                      F
 DBCSR| Use Communication thread                                               T
 DBCSR| Communication thread load                                             87


  **** **** ******  **  PROGRAM STARTED AT               2019-05-23 21:47:57.941
 ***** ** ***  *** **   PROGRAM STARTED ON        blg8442.int.ets1.calculquebec.
 **    ****   ******    PROGRAM STARTED BY                                   rzk
 ***** **    ** ** **   PROGRAM PROCESS ID                                126479
  **** **  *******  **  PROGRAM STARTED IN /lustre03/project/6004141/rzk/GaN-car
                                           bene/01-Methanol/01-CH3-ads

 CP2K| version string:                    CP2K version 7.0 (Development Version)
 CP2K| source code revision number:                                    svn:18619
 CP2K| cp2kflags: libint fftw3 libxc parallel mpi3 scalapack mkl                
 CP2K| is freely available from                            https://www.cp2k.org/
 CP2K| Program compiled at                          Sun Apr  7 00:48:11 EDT 2019
 CP2K| Program compiled on                      beluga2.int.ets1.calculquebec.ca
 CP2K| Program compiled for                    Beluga-Linux-x86-64-intel-openmpi
 CP2K| Data directory path    /home/rzk/projects/def-rzk/group/cp2k/cp2k-mcgill/
 CP2K| Input file name                                                 start.inp
 
 GLOBAL| Force Environment number                                              1
 GLOBAL| Basis set file name                                        BASIS_MOLOPT
 GLOBAL| Potential file name                                      GTH_POTENTIALS
 GLOBAL| MM Potential file name                                     MM_POTENTIAL
 GLOBAL| Coordinate file name                                      __STD_INPUT__
 GLOBAL| Method name                                                        CP2K
 GLOBAL| Project name                                                       TEST
 GLOBAL| Preferred FFT library                                             FFTW3
 GLOBAL| Preferred diagonalization lib.                                       SL
 GLOBAL| Run type                                                        GEO_OPT
 GLOBAL| All-to-all communication in single precision                          F
 GLOBAL| FFTs using library dependent lengths                                  F
 GLOBAL| Global print level                                               MEDIUM
 GLOBAL| MPI I/O enabled                                                       T
 GLOBAL| Total number of message passing processes                            80
 GLOBAL| Number of threads for this process                                    1
 GLOBAL| This output is from process                                           0
 GLOBAL| CPU model name :  Intel(R) Xeon(R) Gold 6148 CPU @ 2.40GHz

 MEMORY| system memory details [Kb]
 MEMORY|                        rank 0           min           max       average
 MEMORY| MemTotal             97523924      97523924     196614300     147069112
 MEMORY| MemFree              84629216      84628224     109528660      97041951
 MEMORY| Buffers                    76            60            76            68
 MEMORY| Cached                1345196       1345196      63943044      32644120
 MEMORY| Slab                  1338192       1338192       9443220       5390706
 MEMORY| SReclaimable           164360        164360        449960        307160
 MEMORY| MemLikelyFree        86138848      86137856     173921724     129993299


 *** Fundamental physical constants (SI units) ***

 *** Literature: B. J. Mohr and B. N. Taylor,
 ***             CODATA recommended values of the fundamental physical
 ***             constants: 2006, Web Version 5.1
 ***             http://physics.nist.gov/constants

 Speed of light in vacuum [m/s]                             2.99792458000000E+08
 Magnetic constant or permeability of vacuum [N/A**2]       1.25663706143592E-06
 Electric constant or permittivity of vacuum [F/m]          8.85418781762039E-12
 Planck constant (h) [J*s]                                  6.62606896000000E-34
 Planck constant (h-bar) [J*s]                              1.05457162825177E-34
 Elementary charge [C]                                      1.60217648700000E-19
 Electron mass [kg]                                         9.10938215000000E-31
 Electron g factor [ ]                                     -2.00231930436220E+00
 Proton mass [kg]                                           1.67262163700000E-27
 Fine-structure constant                                    7.29735253760000E-03
 Rydberg constant [1/m]                                     1.09737315685270E+07
 Avogadro constant [1/mol]                                  6.02214179000000E+23
 Boltzmann constant [J/K]                                   1.38065040000000E-23
 Atomic mass unit [kg]                                      1.66053878200000E-27
 Bohr radius [m]                                            5.29177208590000E-11

 *** Conversion factors ***

 [u] -> [a.u.]                                              1.82288848426455E+03
 [Angstrom] -> [Bohr] = [a.u.]                              1.88972613288564E+00
 [a.u.] = [Bohr] -> [Angstrom]                              5.29177208590000E-01
 [a.u.] -> [s]                                              2.41888432650478E-17
 [a.u.] -> [fs]                                             2.41888432650478E-02
 [a.u.] -> [J]                                              4.35974393937059E-18
 [a.u.] -> [N]                                              8.23872205491840E-08
 [a.u.] -> [K]                                              3.15774647902944E+05
 [a.u.] -> [kJ/mol]                                         2.62549961709828E+03
 [a.u.] -> [kcal/mol]                                       6.27509468713739E+02
 [a.u.] -> [Pa]                                             2.94210107994716E+13
 [a.u.] -> [bar]                                            2.94210107994716E+08
 [a.u.] -> [atm]                                            2.90362800883016E+08
 [a.u.] -> [eV]                                             2.72113838565563E+01
 [a.u.] -> [Hz]                                             6.57968392072181E+15
 [a.u.] -> [1/cm] (wave numbers)                            2.19474631370540E+05
 [a.u./Bohr**2] -> [1/cm]                                   5.14048714338585E+03
 

 CELL_TOP| Volume [angstrom^3]:                                         2519.385
 CELL_TOP| Vector a [angstrom     9.737     0.000     0.000    |a| =       9.737
 CELL_TOP| Vector b [angstrom    -4.859     8.416     0.000    |b| =       9.718
 CELL_TOP| Vector c [angstrom     0.000     0.000    30.744    |c| =      30.744
 CELL_TOP| Angle (b,c), alpha [degree]:                                   90.000
 CELL_TOP| Angle (a,c), beta  [degree]:                                   90.000
 CELL_TOP| Angle (a,b), gamma [degree]:                                  120.000
 CELL_TOP| Numerically orthorhombic:                                          NO
 
 GENERATE|  Preliminary Number of Bonds generated:                             0
 GENERATE|  Achieved consistency in connectivity generation.

 CELL| Volume [angstrom^3]:                                             2519.385
 CELL| Vector a [angstrom]:       9.737     0.000     0.000    |a| =       9.737
 CELL| Vector b [angstrom]:      -4.859     8.416     0.000    |b| =       9.718
 CELL| Vector c [angstrom]:       0.000     0.000    30.744    |c| =      30.744
 CELL| Angle (b,c), alpha [degree]:                                       90.000
 CELL| Angle (a,c), beta  [degree]:                                       90.000
 CELL| Angle (a,b), gamma [degree]:                                      120.000
 CELL| Numerically orthorhombic:                                              NO

 CELL_REF| Volume [angstrom^3]:                                         2432.344
 CELL_REF| Vector a [angstrom     9.558     0.000     0.000    |a| =       9.558
 CELL_REF| Vector b [angstrom    -4.779     8.277     0.000    |b| =       9.558
 CELL_REF| Vector c [angstrom     0.000     0.000    30.744    |c| =      30.744
 CELL_REF| Angle (b,c), alpha [degree]:                                   90.000
 CELL_REF| Angle (a,c), beta  [degree]:                                   90.000
 CELL_REF| Angle (a,b), gamma [degree]:                                  120.000
 CELL_REF| Numerically orthorhombic:                                          NO

 *******************************************************************************
 *******************************************************************************
 **                                                                           **
 **     #####                         ##              ##                      **
 **    ##   ##            ##          ##              ##                      **
 **   ##     ##                       ##            ######                    **
 **   ##     ##  ##   ##  ##   #####  ##  ##   ####   ##    #####    #####    **
 **   ##     ##  ##   ##  ##  ##      ## ##   ##      ##   ##   ##  ##   ##   **
 **   ##  ## ##  ##   ##  ##  ##      ####     ###    ##   ######   ######    **
 **    ##  ###   ##   ##  ##  ##      ## ##      ##   ##   ##       ##        **
 **     #######   #####   ##   #####  ##  ##  ####    ##    #####   ##        **
 **           ##                                                    ##        **
 **                                                                           **
 **                                                ... make the atoms dance   **
 **                                                                           **
 **            Copyright (C) by CP2K developers group (2000 - 2018)           **
 **                                                                           **
 *******************************************************************************

 DFT| Spin restricted Kohn-Sham (RKS) calculation                            RKS
 DFT| Multiplicity                                                             1
 DFT| Number of spin states                                                    1
 DFT| Charge                                                                   0
 DFT| Self-interaction correction (SIC)                                       NO
 DFT| Cutoffs: density                                              1.000000E-10
 DFT|          gradient                                             1.000000E-10
 DFT|          tau                                                  1.000000E-10
 DFT|          cutoff_smoothing_range                               0.000000E+00
 DFT| XC density smoothing                                                  NONE
 DFT| XC derivatives                                                          PW
 FUNCTIONAL| ROUTINE=NEW
 FUNCTIONAL| PBE:
 FUNCTIONAL| J.P.Perdew, K.Burke, M.Ernzerhof, Phys. Rev. Letter, vol. 77, n 18,
 FUNCTIONAL|  pp. 3865-3868, (1996){spin unpolarized}                           
 vdW POTENTIAL|                                                   Pair Potential
 vdW POTENTIAL|          DFT-D3 (Version 3.1)
 vdW POTENTIAL|          Potential Form: S. Grimme et al, JCP 132: 154104 (2010)
 vdW POTENTIAL|          Zero Damping
 vdW POTENTIAL|          Cutoff Radius [Bohr]:                             18.90
 vdW POTENTIAL|          s6 Scaling Factor:                               1.0000
 vdW POTENTIAL|          sr6 Scaling Factor:                              1.2170
 vdW POTENTIAL|          s8 Scaling Factor:                               0.7220
 vdW POTENTIAL|          Cutoff for CN calculation:                   0.1000E-05

 QS| Method:                                                                 GPW
 QS| Density plane wave grid type                        NON-SPHERICAL FULLSPACE
 QS| Number of grid levels:                                                    5
 QS| Density cutoff [a.u.]:                                                600.0
 QS| Multi grid cutoff [a.u.]: 1) grid level                               600.0
 QS|                           2) grid level                               200.0
 QS|                           3) grid level                                66.7
 QS|                           4) grid level                                22.2
 QS|                           5) grid level                                 7.4
 QS| Grid level progression factor:                                          3.0
 QS| Relative density cutoff [a.u.]:                                        20.0
 QS| Consistent realspace mapping and integration 
 QS| Interaction thresholds: eps_pgf_orb:                                1.0E-07
 QS|                         eps_filter_matrix:                          0.0E+00
 QS|                         eps_core_charge:                            1.0E-16
 QS|                         eps_rho_gspace:                             1.0E-14
 QS|                         eps_rho_rspace:                             1.0E-14
 QS|                         eps_gvg_rspace:                             1.0E-07
 QS|                         eps_ppl:                                    1.0E-02
 QS|                         eps_ppnl:                                   1.0E-09


 ATOMIC KIND INFORMATION

  1. Atomic kind: Ga                                    Number of atoms:      72

     Orbital Basis Set                                    DZVP-MOLOPT-SR-GTH-q13

       Number of orbital shell sets:                                           1
       Number of orbital shells:                                               7
       Number of primitive Cartesian functions:                                6
       Number of Cartesian basis functions:                                   30
       Number of spherical basis functions:                                   25
       Norm type:                                                              2

       Normalised Cartesian orbitals:

                        Set   Shell   Orbital            Exponent    Coefficient

                          1       1    2s                7.066654       0.013136
                                                         3.428369      -0.094392
                                                         1.430064       0.265435
                                                         0.571611       0.056465
                                                         0.232197      -0.192187
                                                         0.076562      -0.044987

                          1       2    3s                7.066654      -0.098564
                                                         3.428369       0.010390
                                                         1.430064       0.351249
                                                         0.571611       0.182615
                                                         0.232197      -0.425358
                                                         0.076562       0.190349

                          1       3    3px               7.066654       0.002364
                                                         3.428369       0.019222
                                                         1.430064       0.250132
                                                         0.571611      -0.058486
                                                         0.232197      -0.159451
                                                         0.076562      -0.020696
                          1       3    3py               7.066654       0.002364
                                                         3.428369       0.019222
                                                         1.430064       0.250132
                                                         0.571611      -0.058486
                                                         0.232197      -0.159451
                                                         0.076562      -0.020696
                          1       3    3pz               7.066654       0.002364
                                                         3.428369       0.019222
                                                         1.430064       0.250132
                                                         0.571611      -0.058486
                                                         0.232197      -0.159451
                                                         0.076562      -0.020696

                          1       4    4px               7.066654       0.492448
                                                         3.428369      -0.614736
                                                         1.430064      -0.191654
                                                         0.571611       0.037801
                                                         0.232197       0.302315
                                                         0.076562      -0.071336
                          1       4    4py               7.066654       0.492448
                                                         3.428369      -0.614736
                                                         1.430064      -0.191654
                                                         0.571611       0.037801
                                                         0.232197       0.302315
                                                         0.076562      -0.071336
                          1       4    4pz               7.066654       0.492448
                                                         3.428369      -0.614736
                                                         1.430064      -0.191654
                                                         0.571611       0.037801
                                                         0.232197       0.302315
                                                         0.076562      -0.071336

                          1       5    4dx2              7.066654     -15.264855
                                                         3.428369      -5.345726
                                                         1.430064      -1.022732
                                                         0.571611      -0.123148
                                                         0.232197      -0.006983
                                                         0.076562      -0.000022
                          1       5    4dxy              7.066654     -26.439504
                                                         3.428369      -9.259069
                                                         1.430064      -1.771423
                                                         0.571611      -0.213299
                                                         0.232197      -0.012094
                                                         0.076562      -0.000037
                          1       5    4dxz              7.066654     -26.439504
                                                         3.428369      -9.259069
                                                         1.430064      -1.771423
                                                         0.571611      -0.213299
                                                         0.232197      -0.012094
                                                         0.076562      -0.000037
                          1       5    4dy2              7.066654     -15.264855
                                                         3.428369      -5.345726
                                                         1.430064      -1.022732
                                                         0.571611      -0.123148
                                                         0.232197      -0.006983
                                                         0.076562      -0.000022
                          1       5    4dyz              7.066654     -26.439504
                                                         3.428369      -9.259069
                                                         1.430064      -1.771423
                                                         0.571611      -0.213299
                                                         0.232197      -0.012094
                                                         0.076562      -0.000037
                          1       5    4dz2              7.066654     -15.264855
                                                         3.428369      -5.345726
                                                         1.430064      -1.022732
                                                         0.571611      -0.123148
                                                         0.232197      -0.006983
                                                         0.076562      -0.000022

                          1       6    5dx2              7.066654      -5.739265
                                                         3.428369      -2.129289
                                                         1.430064      -0.700423
                                                         0.571611       0.161606
                                                         0.232197       0.043513
                                                         0.076562       0.011205
                          1       6    5dxy              7.066654      -9.940698
                                                         3.428369      -3.688037
                                                         1.430064      -1.213168
                                                         0.571611       0.279909
                                                         0.232197       0.075368
                                                         0.076562       0.019407
                          1       6    5dxz              7.066654      -9.940698
                                                         3.428369      -3.688037
                                                         1.430064      -1.213168
                                                         0.571611       0.279909
                                                         0.232197       0.075368
                                                         0.076562       0.019407
                          1       6    5dy2              7.066654      -5.739265
                                                         3.428369      -2.129289
                                                         1.430064      -0.700423
                                                         0.571611       0.161606
                                                         0.232197       0.043513
                                                         0.076562       0.011205
                          1       6    5dyz              7.066654      -9.940698
                                                         3.428369      -3.688037
                                                         1.430064      -1.213168
                                                         0.571611       0.279909
                                                         0.232197       0.075368
                                                         0.076562       0.019407
                          1       6    5dz2              7.066654      -5.739265
                                                         3.428369      -2.129289
                                                         1.430064      -0.700423
                                                         0.571611       0.161606
                                                         0.232197       0.043513
                                                         0.076562       0.011205

                          1       7    5fx3              7.066654       0.705879
                                                         3.428369      -0.273976
                                                         1.430064       0.113667
                                                         0.571611       0.132480
                                                         0.232197       0.012437
                                                         0.076562       0.003241
                          1       7    5fx2y             7.066654       1.578393
                                                         3.428369      -0.612629
                                                         1.430064       0.254167
                                                         0.571611       0.296234
                                                         0.232197       0.027811
                                                         0.076562       0.007246
                          1       7    5fx2z             7.066654       1.578393
                                                         3.428369      -0.612629
                                                         1.430064       0.254167
                                                         0.571611       0.296234
                                                         0.232197       0.027811
                                                         0.076562       0.007246
                          1       7    5fxy2             7.066654       1.578393
                                                         3.428369      -0.612629
                                                         1.430064       0.254167
                                                         0.571611       0.296234
                                                         0.232197       0.027811
                                                         0.076562       0.007246
                          1       7    5fxyz             7.066654       2.733856
                                                         3.428369      -1.061105
                                                         1.430064       0.440230
                                                         0.571611       0.513092
                                                         0.232197       0.048170
                                                         0.076562       0.012551
                          1       7    5fxz2             7.066654       1.578393
                                                         3.428369      -0.612629
                                                         1.430064       0.254167
                                                         0.571611       0.296234
                                                         0.232197       0.027811
                                                         0.076562       0.007246
                          1       7    5fy3              7.066654       0.705879
                                                         3.428369      -0.273976
                                                         1.430064       0.113667
                                                         0.571611       0.132480
                                                         0.232197       0.012437
                                                         0.076562       0.003241
                          1       7    5fy2z             7.066654       1.578393
                                                         3.428369      -0.612629
                                                         1.430064       0.254167
                                                         0.571611       0.296234
                                                         0.232197       0.027811
                                                         0.076562       0.007246
                          1       7    5fyz2             7.066654       1.578393
                                                         3.428369      -0.612629
                                                         1.430064       0.254167
                                                         0.571611       0.296234
                                                         0.232197       0.027811
                                                         0.076562       0.007246
                          1       7    5fz3              7.066654       0.705879
                                                         3.428369      -0.273976
                                                         1.430064       0.113667
                                                         0.571611       0.132480
                                                         0.232197       0.012437
                                                         0.076562       0.003241

     GTH Potential information for                                   GTH-PBE-q13

       Description:                       Goedecker-Teter-Hutter pseudopotential
                                           Goedecker et al., PRB 54, 1703 (1996)
                                          Hartwigsen et al., PRB 58, 3641 (1998)
                                                      Krack, TCA 114, 145 (2005)

       Gaussian exponent of the core charge distribution:               2.082466
       Electronic configuration (s p d ...):                           2   1  10

       Parameters of the local part of the GTH pseudopotential:

                          rloc        C1          C2          C3          C4
                        0.490000

       Parameters of the non-local part of the GTH pseudopotential:

                   l      r(l)      h(i,j,l)

                   0    0.416777   10.475690   -4.921768    0.870706
                                   -4.921768    7.770178   -2.248152
                                    0.870706   -2.248152    1.784415
                   1    0.569627    1.777985    0.195860
                                    0.195860   -0.231744
                   2    0.238126  -16.248680

  2. Atomic kind: N                                     Number of atoms:      72

     Orbital Basis Set                                     DZVP-MOLOPT-SR-GTH-q5

       Number of orbital shell sets:                                           1
       Number of orbital shells:                                               5
       Number of primitive Cartesian functions:                                5
       Number of Cartesian basis functions:                                   14
       Number of spherical basis functions:                                   13
       Norm type:                                                              2

       Normalised Cartesian orbitals:

                        Set   Shell   Orbital            Exponent    Coefficient

                          1       1    2s                7.341988       0.360561
                                                         2.542637       0.139177
                                                         0.888575      -0.289383
                                                         0.333802      -0.182244
                                                         0.112012      -0.019197

                          1       2    3s                7.341988       0.282000
                                                         2.542637       0.177875
                                                         0.888575      -0.278381
                                                         0.333802       0.008577
                                                         0.112012       0.154176

                          1       3    3px               7.341988      -1.188719
                                                         2.542637      -0.973969
                                                         0.888575      -0.501079
                                                         0.333802      -0.144894
                                                         0.112012      -0.013986
                          1       3    3py               7.341988      -1.188719
                                                         2.542637      -0.973969
                                                         0.888575      -0.501079
                                                         0.333802      -0.144894
                                                         0.112012      -0.013986
                          1       3    3pz               7.341988      -1.188719
                                                         2.542637      -0.973969
                                                         0.888575      -0.501079
                                                         0.333802      -0.144894
                                                         0.112012      -0.013986

                          1       4    4px               7.341988      -0.094798
                                                         2.542637       0.050069
                                                         0.888575      -0.114797
                                                         0.333802       0.144793
                                                         0.112012       0.066710
                          1       4    4py               7.341988      -0.094798
                                                         2.542637       0.050069
                                                         0.888575      -0.114797
                                                         0.333802       0.144793
                                                         0.112012       0.066710
                          1       4    4pz               7.341988      -0.094798
                                                         2.542637       0.050069
                                                         0.888575      -0.114797
                                                         0.333802       0.144793
                                                         0.112012       0.066710

                          1       5    4dx2              7.341988       1.354688
                                                         2.542637       0.690378
                                                         0.888575       0.855359
                                                         0.333802       0.091746
                                                         0.112012       0.001253
                          1       5    4dxy              7.341988       2.346389
                                                         2.542637       1.195770
                                                         0.888575       1.481524
                                                         0.333802       0.158910
                                                         0.112012       0.002169
                          1       5    4dxz              7.341988       2.346389
                                                         2.542637       1.195770
                                                         0.888575       1.481524
                                                         0.333802       0.158910
                                                         0.112012       0.002169
                          1       5    4dy2              7.341988       1.354688
                                                         2.542637       0.690378
                                                         0.888575       0.855359
                                                         0.333802       0.091746
                                                         0.112012       0.001253
                          1       5    4dyz              7.341988       2.346389
                                                         2.542637       1.195770
                                                         0.888575       1.481524
                                                         0.333802       0.158910
                                                         0.112012       0.002169
                          1       5    4dz2              7.341988       1.354688
                                                         2.542637       0.690378
                                                         0.888575       0.855359
                                                         0.333802       0.091746
                                                         0.112012       0.001253

     GTH Potential information for                                    GTH-PBE-q5

       Description:                       Goedecker-Teter-Hutter pseudopotential
                                           Goedecker et al., PRB 54, 1703 (1996)
                                          Hartwigsen et al., PRB 58, 3641 (1998)
                                                      Krack, TCA 114, 145 (2005)

       Gaussian exponent of the core charge distribution:               6.208322
       Electronic configuration (s p d ...):                               2   3

       Parameters of the local part of the GTH pseudopotential:

                          rloc        C1          C2          C3          C4
                        0.283791  -12.415226    1.868096

       Parameters of the non-local part of the GTH pseudopotential:

                   l      r(l)      h(i,j,l)

                   0    0.255405   13.630263
                   1    0.245495

  3. Atomic kind: H                                     Number of atoms:       4

     Orbital Basis Set                                     DZVP-MOLOPT-SR-GTH-q1

       Number of orbital shell sets:                                           1
       Number of orbital shells:                                               3
       Number of primitive Cartesian functions:                                5
       Number of Cartesian basis functions:                                    5
       Number of spherical basis functions:                                    5
       Norm type:                                                              2

       Normalised Cartesian orbitals:

                        Set   Shell   Orbital            Exponent    Coefficient

                          1       1    2s               10.068468      -0.133023
                                                         2.680223      -0.177618
                                                         0.791502      -0.258419
                                                         0.239116      -0.107525
                                                         0.082193      -0.014019

                          1       2    3s               10.068468       0.344673
                                                         2.680223       1.819821
                                                         0.791502      -0.999069
                                                         0.239116       0.017430
                                                         0.082193       0.082660

                          1       3    3px              10.068468       0.155326
                                                         2.680223       0.367157
                                                         0.791502       0.311480
                                                         0.239116       0.080105
                                                         0.082193       0.033440
                          1       3    3py              10.068468       0.155326
                                                         2.680223       0.367157
                                                         0.791502       0.311480
                                                         0.239116       0.080105
                                                         0.082193       0.033440
                          1       3    3pz              10.068468       0.155326
                                                         2.680223       0.367157
                                                         0.791502       0.311480
                                                         0.239116       0.080105
                                                         0.082193       0.033440

     GTH Potential information for                                    GTH-PBE-q1

       Description:                       Goedecker-Teter-Hutter pseudopotential
                                           Goedecker et al., PRB 54, 1703 (1996)
                                          Hartwigsen et al., PRB 58, 3641 (1998)
                                                      Krack, TCA 114, 145 (2005)

       Gaussian exponent of the core charge distribution:              12.500000
       Electronic configuration (s p d ...):                                   1

       Parameters of the local part of the GTH pseudopotential:

                          rloc        C1          C2          C3          C4
                        0.200000   -4.178900    0.724463

  4. Atomic kind: C                                     Number of atoms:       1

     Orbital Basis Set                                     DZVP-MOLOPT-SR-GTH-q4

       Number of orbital shell sets:                                           1
       Number of orbital shells:                                               5
       Number of primitive Cartesian functions:                                5
       Number of Cartesian basis functions:                                   14
       Number of spherical basis functions:                                   13
       Norm type:                                                              2

       Normalised Cartesian orbitals:

                        Set   Shell   Orbital            Exponent    Coefficient

                          1       1    2s                5.605331       0.322515
                                                         2.113016       0.213043
                                                         0.769911      -0.209686
                                                         0.348157      -0.219794
                                                         0.128212      -0.022789

                          1       2    3s                5.605331       0.552234
                                                         2.113016       0.082072
                                                         0.769911       0.007843
                                                         0.348157       0.136893
                                                         0.128212       0.074283

                          1       3    3px               5.605331      -0.703879
                                                         2.113016      -0.642521
                                                         0.769911      -0.374851
                                                         0.348157      -0.139743
                                                         0.128212      -0.027849
                          1       3    3py               5.605331      -0.703879
                                                         2.113016      -0.642521
                                                         0.769911      -0.374851
                                                         0.348157      -0.139743
                                                         0.128212      -0.027849
                          1       3    3pz               5.605331      -0.703879
                                                         2.113016      -0.642521
                                                         0.769911      -0.374851
                                                         0.348157      -0.139743
                                                         0.128212      -0.027849

                          1       4    4px               5.605331      -0.480376
                                                         2.113016      -0.552894
                                                         0.769911      -0.316145
                                                         0.348157       0.210505
                                                         0.128212       0.076095
                          1       4    4py               5.605331      -0.480376
                                                         2.113016      -0.552894
                                                         0.769911      -0.316145
                                                         0.348157       0.210505
                                                         0.128212       0.076095
                          1       4    4pz               5.605331      -0.480376
                                                         2.113016      -0.552894
                                                         0.769911      -0.316145
                                                         0.348157       0.210505
                                                         0.128212       0.076095

                          1       5    4dx2              5.605331       0.640026
                                                         2.113016       0.274300
                                                         0.769911       0.446711
                                                         0.348157       0.028674
                                                         0.128212       0.029790
                          1       5    4dxy              5.605331       1.108557
                                                         2.113016       0.475102
                                                         0.769911       0.773726
                                                         0.348157       0.049666
                                                         0.128212       0.051599
                          1       5    4dxz              5.605331       1.108557
                                                         2.113016       0.475102
                                                         0.769911       0.773726
                                                         0.348157       0.049666
                                                         0.128212       0.051599
                          1       5    4dy2              5.605331       0.640026
                                                         2.113016       0.274300
                                                         0.769911       0.446711
                                                         0.348157       0.028674
                                                         0.128212       0.029790
                          1       5    4dyz              5.605331       1.108557
                                                         2.113016       0.475102
                                                         0.769911       0.773726
                                                         0.348157       0.049666
                                                         0.128212       0.051599
                          1       5    4dz2              5.605331       0.640026
                                                         2.113016       0.274300
                                                         0.769911       0.446711
                                                         0.348157       0.028674
                                                         0.128212       0.029790

     GTH Potential information for                                    GTH-PBE-q4

       Description:                       Goedecker-Teter-Hutter pseudopotential
                                           Goedecker et al., PRB 54, 1703 (1996)
                                          Hartwigsen et al., PRB 58, 3641 (1998)
                                                      Krack, TCA 114, 145 (2005)

       Gaussian exponent of the core charge distribution:               4.364419
       Electronic configuration (s p d ...):                               2   2

       Parameters of the local part of the GTH pseudopotential:

                          rloc        C1          C2          C3          C4
                        0.338471   -8.803674    1.339211

       Parameters of the non-local part of the GTH pseudopotential:

                   l      r(l)      h(i,j,l)

                   0    0.302576    9.622487
                   1    0.291507

  5. Atomic kind: O                                     Number of atoms:       1

     Orbital Basis Set                                     DZVP-MOLOPT-SR-GTH-q6

       Number of orbital shell sets:                                           1
       Number of orbital shells:                                               5
       Number of primitive Cartesian functions:                                5
       Number of Cartesian basis functions:                                   14
       Number of spherical basis functions:                                   13
       Norm type:                                                              2

       Normalised Cartesian orbitals:

                        Set   Shell   Orbital            Exponent    Coefficient

                          1       1    2s               10.389228       0.396646
                                                         3.849621       0.208811
                                                         1.388401      -0.301641
                                                         0.496955      -0.274061
                                                         0.162492      -0.033677

                          1       2    3s               10.389228       0.303673
                                                         3.849621       0.240943
                                                         1.388401      -0.313066
                                                         0.496955      -0.043055
                                                         0.162492       0.213991

                          1       3    3px              10.389228      -1.530415
                                                         3.849621      -1.371928
                                                         1.388401      -0.761951
                                                         0.496955      -0.253695
                                                         0.162492      -0.035541
                          1       3    3py              10.389228      -1.530415
                                                         3.849621      -1.371928
                                                         1.388401      -0.761951
                                                         0.496955      -0.253695
                                                         0.162492      -0.035541
                          1       3    3pz              10.389228      -1.530415
                                                         3.849621      -1.371928
                                                         1.388401      -0.761951
                                                         0.496955      -0.253695
                                                         0.162492      -0.035541

                          1       4    4px              10.389228      -0.565392
                                                         3.849621      -0.038231
                                                         1.388401      -0.382373
                                                         0.496955       0.179070
                                                         0.162492       0.122714
                          1       4    4py              10.389228      -0.565392
                                                         3.849621      -0.038231
                                                         1.388401      -0.382373
                                                         0.496955       0.179070
                                                         0.162492       0.122714
                          1       4    4pz              10.389228      -0.565392
                                                         3.849621      -0.038231
                                                         1.388401      -0.382373
                                                         0.496955       0.179070
                                                         0.162492       0.122714

                          1       5    4dx2             10.389228       1.867377
                                                         3.849621       0.670994
                                                         1.388401       1.353441
                                                         0.496955       0.273538
                                                         0.162492       0.006620
                          1       5    4dxy             10.389228       3.234392
                                                         3.849621       1.162195
                                                         1.388401       2.344229
                                                         0.496955       0.473781
                                                         0.162492       0.011466
                          1       5    4dxz             10.389228       3.234392
                                                         3.849621       1.162195
                                                         1.388401       2.344229
                                                         0.496955       0.473781
                                                         0.162492       0.011466
                          1       5    4dy2             10.389228       1.867377
                                                         3.849621       0.670994
                                                         1.388401       1.353441
                                                         0.496955       0.273538
                                                         0.162492       0.006620
                          1       5    4dyz             10.389228       3.234392
                                                         3.849621       1.162195
                                                         1.388401       2.344229
                                                         0.496955       0.473781
                                                         0.162492       0.011466
                          1       5    4dz2             10.389228       1.867377
                                                         3.849621       0.670994
                                                         1.388401       1.353441
                                                         0.496955       0.273538
                                                         0.162492       0.006620

     GTH Potential information for                                    GTH-PBE-q6

       Description:                       Goedecker-Teter-Hutter pseudopotential
                                           Goedecker et al., PRB 54, 1703 (1996)
                                          Hartwigsen et al., PRB 58, 3641 (1998)
                                                      Krack, TCA 114, 145 (2005)

       Gaussian exponent of the core charge distribution:               8.360253
       Electronic configuration (s p d ...):                               2   4

       Parameters of the local part of the GTH pseudopotential:

                          rloc        C1          C2          C3          C4
                        0.244554  -16.667215    2.487311

       Parameters of the non-local part of the GTH pseudopotential:

                   l      r(l)      h(i,j,l)

                   0    0.220956   18.337458
                   1    0.211332


 MOLECULE KIND INFORMATION


 All atoms are their own molecule, skipping detailed information


 TOTAL NUMBERS AND MAXIMUM NUMBERS

  Total number of            - Atomic kinds:                                   5
                             - Atoms:                                        150
                             - Shell sets:                                   150
                             - Shells:                                       886
                             - Primitive Cartesian functions:                822
                             - Cartesian basis functions:                   3216
                             - Spherical basis functions:                   2782

  Maximum angular momentum of- Orbital basis functions:                        3
                             - Local part of the GTH pseudopotential:          2
                             - Non-local part of the GTH pseudopotential:      4


 MODULE QUICKSTEP:  ATOMIC COORDINATES IN angstrom

  Atom  Kind  Element       X           Y           Z          Z(eff)       Mass

       1     1 Ga  31    0.001236   -0.010624   -0.582483     13.00      69.7230
       2     2 N    7    0.004296    1.863273    0.540394      5.00      14.0067
       3     1 Ga  31    0.004565    1.831900    2.573884     13.00      69.7230
       4     2 N    7    0.001637   -0.011975    3.204144      5.00      14.0067
       5     1 Ga  31    0.002894   -0.012894    5.194965     13.00      69.7230
       6     2 N    7    0.005870    1.861906    5.781459      5.00      14.0067
       7     1 Ga  31    0.005940    1.858735    7.780128     13.00      69.7230
       8     2 N    7    0.003100   -0.015383    8.379913      5.00      14.0067
       9     1 Ga  31    0.004243   -0.015911   10.376520     13.00      69.7230
      10     2 N    7    0.006575    1.856061   10.978459      5.00      14.0067
      11     1 Ga  31    0.006467    1.852460   12.971624     13.00      69.7230
      12     2 N    7    0.000781   -0.013742   13.581575      5.00      14.0067
      13     1 Ga  31    0.001749   -0.015538   15.587608     13.00      69.7230
      14     2 N    7    0.011604    1.858074   16.231561      5.00      14.0067
      15     1 Ga  31    0.015147    1.858849   18.350906     13.00      69.7230
      16     2 N    7    0.016521   -0.029395   18.632945      5.00      14.0067
      17     1 Ga  31   -1.619265    2.795310    0.257291     13.00      69.7230
      18     2 N    7   -1.619785    4.665280    0.541436      5.00      14.0067
      19     1 Ga  31   -1.591446    4.679657    2.572359     13.00      69.7230
      20     2 N    7   -1.617666    2.793930    3.163230      5.00      14.0067
      21     1 Ga  31   -1.616844    2.793123    5.173567     13.00      69.7230
      22     2 N    7   -1.616797    4.662837    5.781520      5.00      14.0067
      23     1 Ga  31   -1.615705    4.661021    7.779713     13.00      69.7230
      24     2 N    7   -1.617415    2.790163    8.383571      5.00      14.0067
      25     1 Ga  31   -1.617407    2.789664   10.379178     13.00      69.7230
      26     2 N    7   -1.611337    4.660320   10.985220      5.00      14.0067
      27     1 Ga  31   -1.608088    4.658335   12.981746     13.00      69.7230
      28     2 N    7   -1.610537    2.782773   13.586945      5.00      14.0067
      29     1 Ga  31   -1.613895    2.786377   15.591213     13.00      69.7230
      30     2 N    7   -1.613944    4.659069   16.158726      5.00      14.0067
      31     1 Ga  31   -1.601540    4.653039   18.218753     13.00      69.7230
      32     2 N    7   -1.611932    2.789918   18.673049      5.00      14.0067
      33     1 Ga  31   -3.239388    5.600090    0.256666     13.00      69.7230
      34     2 N    7   -3.233141    7.471386    0.540955      5.00      14.0067
      35     1 Ga  31   -3.259027    7.484329    2.574542     13.00      69.7230
      36     2 N    7   -3.237746    5.599084    3.164220      5.00      14.0067
      37     1 Ga  31   -3.237182    5.598019    5.174766     13.00      69.7230
      38     2 N    7   -3.230858    7.468137    5.781064      5.00      14.0067
      39     1 Ga  31   -3.231754    7.466937    7.779260     13.00      69.7230
      40     2 N    7   -3.235421    5.596877    8.385878      5.00      14.0067
      41     1 Ga  31   -3.233745    5.598314   10.382353     13.00      69.7230
      42     2 N    7   -3.231685    7.471008   10.986578      5.00      14.0067
      43     1 Ga  31   -3.228579    7.475766   12.985499     13.00      69.7230
      44     2 N    7   -3.232246    5.596107   13.563725      5.00      14.0067
      45     1 Ga  31   -3.231409    5.602388   15.559049     13.00      69.7230
      46     2 N    7   -3.221368    7.478721   16.119088      5.00      14.0067
      47     1 Ga  31   -3.229092    7.468325   18.157648     13.00      69.7230
      48     2 N    7   -3.232193    5.590954   18.567958      5.00      14.0067
      49     1 Ga  31    3.247429   -0.009653    0.256864     13.00      69.7230
      50     2 N    7    3.244715    1.859145    0.541310      5.00      14.0067
      51     1 Ga  31    3.274136    1.874111    2.571265     13.00      69.7230
      52     2 N    7    3.247361   -0.011680    3.163036      5.00      14.0067
      53     1 Ga  31    3.248434   -0.012357    5.173468     13.00      69.7230
      54     2 N    7    3.248969    1.857675    5.781076      5.00      14.0067
      55     1 Ga  31    3.249991    1.856561    7.779164     13.00      69.7230
      56     2 N    7    3.248859   -0.014284    8.382925      5.00      14.0067
      57     1 Ga  31    3.249229   -0.013914   10.377941     13.00      69.7230
      58     2 N    7    3.251865    1.857434   10.984861      5.00      14.0067
      59     1 Ga  31    3.251545    1.857564   12.980148     13.00      69.7230
      60     2 N    7    3.259707   -0.009761   13.595462      5.00      14.0067
      61     1 Ga  31    3.270516   -0.013194   15.602599     13.00      69.7230
      62     2 N    7    3.259598    1.877467   16.165281      5.00      14.0067
      63     1 Ga  31    3.250370    1.869680   18.219842     13.00      69.7230
      64     2 N    7    3.236737   -0.004603   18.605944      5.00      14.0067
      65     1 Ga  31    1.627452    2.795946    0.256473     13.00      69.7230
      66     2 N    7    1.633030    4.665911    0.541349      5.00      14.0067
      67     1 Ga  31    1.606047    4.679635    2.572482     13.00      69.7230
      68     2 N    7    1.627481    2.793859    3.163142      5.00      14.0067
      69     1 Ga  31    1.628966    2.792877    5.173554     13.00      69.7230
      70     2 N    7    1.634026    4.662911    5.780960      5.00      14.0067
      71     1 Ga  31    1.632896    4.661258    7.778710     13.00      69.7230
      72     2 N    7    1.629280    2.791153    8.384180      5.00      14.0067
      73     1 Ga  31    1.629566    2.791704   10.379520     13.00      69.7230
      74     2 N    7    1.628848    4.662121   10.989655      5.00      14.0067
      75     1 Ga  31    1.623887    4.661581   12.987789     13.00      69.7230
      76     2 N    7    1.625215    2.784232   13.586635      5.00      14.0067
      77     1 Ga  31    1.626026    2.795475   15.591414     13.00      69.7230
      78     2 N    7    1.633063    4.670137   16.142266      5.00      14.0067
      79     1 Ga  31    1.625193    4.659708   18.182273     13.00      69.7230
      80     2 N    7    1.640766    2.800497   18.656822      5.00      14.0067
      81     1 Ga  31    0.006977    5.601858   -0.605565     13.00      69.7230
      82     2 N    7    0.010346    7.475417    0.541494      5.00      14.0067
      83     1 Ga  31    0.010472    7.442375    2.572269     13.00      69.7230
      84     2 N    7    0.007643    5.598826    3.203858      5.00      14.0067
      85     1 Ga  31    0.008654    5.598170    5.193636     13.00      69.7230
      86     2 N    7    0.011774    7.472571    5.780469      5.00      14.0067
      87     1 Ga  31    0.011694    7.469192    7.778283     13.00      69.7230
      88     2 N    7    0.009007    5.595794    8.380232      5.00      14.0067
      89     1 Ga  31    0.008998    5.595378   10.376389     13.00      69.7230
      90     2 N    7    0.012299    7.467187   10.981835      5.00      14.0067
      91     1 Ga  31    0.012158    7.469367   12.976766     13.00      69.7230
      92     2 N    7    0.004645    5.603425   13.599983      5.00      14.0067
      93     1 Ga  31    0.004674    5.616245   15.609331     13.00      69.7230
      94     2 N    7    0.016406    7.470690   16.264904      5.00      14.0067
      95     1 Ga  31    0.020912    7.477838   18.381640     13.00      69.7230
      96     2 N    7    0.015338    5.584236   18.621781      5.00      14.0067
      97     1 Ga  31    6.491387   -0.009129    0.257283     13.00      69.7230
      98     2 N    7    6.499559    1.859589    0.542446      5.00      14.0067
      99     1 Ga  31    6.471396    1.874173    2.572217     13.00      69.7230
     100     2 N    7    6.492936   -0.011945    3.163049      5.00      14.0067
     101     1 Ga  31    6.494014   -0.012604    5.173337     13.00      69.7230
     102     2 N    7    6.499289    1.857603    5.780144      5.00      14.0067
     103     1 Ga  31    6.498229    1.856229    7.777769     13.00      69.7230
     104     2 N    7    6.493478   -0.014377    8.382211      5.00      14.0067
     105     1 Ga  31    6.493727   -0.013789   10.376884     13.00      69.7230
     106     2 N    7    6.497305    1.855702   10.988131      5.00      14.0067
     107     1 Ga  31    6.499221    1.853976   12.985878     13.00      69.7230
     108     2 N    7    6.486959   -0.018110   13.600987      5.00      14.0067
     109     1 Ga  31    6.479302   -0.018572   15.608508     13.00      69.7230
     110     2 N    7    6.491369    1.866077   16.150882      5.00      14.0067
     111     1 Ga  31    6.513741    1.866491   18.203135     13.00      69.7230
     112     2 N    7    6.518141   -0.002127   18.650003      5.00      14.0067
     113     1 Ga  31    4.873318    2.796535   -0.612532     13.00      69.7230
     114     2 N    7    4.875676    4.671099    0.542306      5.00      14.0067
     115     1 Ga  31    4.875954    4.637659    2.571809     13.00      69.7230
     116     2 N    7    4.872935    2.793947    3.203759      5.00      14.0067
     117     1 Ga  31    4.874167    2.793848    5.193814     13.00      69.7230
     118     2 N    7    4.877010    4.667526    5.783757      5.00      14.0067
     119     1 Ga  31    4.877001    4.664586    7.783333     13.00      69.7230
     120     2 N    7    4.874870    2.789975    8.381543      5.00      14.0067
     121     1 Ga  31    4.875856    2.790372   10.378311     13.00      69.7230
     122     2 N    7    4.877142    4.663290   10.975749      5.00      14.0067
     123     1 Ga  31    4.877960    4.666966   12.968074     13.00      69.7230
     124     2 N    7    4.875281    2.797319   13.577202      5.00      14.0067
     125     1 Ga  31    4.882913    2.807254   15.572381     13.00      69.7230
     126     2 N    7    4.875023    4.687467   16.139704      5.00      14.0067
     127     1 Ga  31    4.884320    4.657664   18.183646     13.00      69.7230
     128     2 N    7    4.881743    2.786626   18.633152      5.00      14.0067
     129     1 Ga  31    3.253666    5.599395    0.256676     13.00      69.7230
     130     2 N    7    3.252900    7.470730    0.540739      5.00      14.0067
     131     1 Ga  31    3.280316    7.484287    2.574156     13.00      69.7230
     132     2 N    7    3.253351    5.599053    3.163896      5.00      14.0067
     133     1 Ga  31    3.255173    5.598096    5.174358     13.00      69.7230
     134     2 N    7    3.254675    7.468077    5.781239      5.00      14.0067
     135     1 Ga  31    3.255641    7.466816    7.779494     13.00      69.7230
     136     2 N    7    3.252936    5.596399    8.385673      5.00      14.0067
     137     1 Ga  31    3.251959    5.597576   10.381967     13.00      69.7230
     138     2 N    7    3.256487    7.470919   10.982627      5.00      14.0067
     139     1 Ga  31    3.253650    7.475762   12.978368     13.00      69.7230
     140     2 N    7    3.252683    5.600115   13.566370      5.00      14.0067
     141     1 Ga  31    3.253219    5.604739   15.559111     13.00      69.7230
     142     2 N    7    3.248869    7.470646   16.166301      5.00      14.0067
     143     1 Ga  31    3.268734    7.471524   18.227569     13.00      69.7230
     144     2 N    7    3.258849    5.581302   18.612475      5.00      14.0067
     145     3 H    1    3.299796    4.937227   20.910363      1.00       1.0079
     146     3 H    1    3.822074    3.248635   20.822339      1.00       1.0079
     147     3 H    1    2.129879    3.642223   21.304439      1.00       1.0079
     148     4 C    6    3.179422    3.944696   21.399552      4.00      12.0107
     149     5 O    8    3.500059    3.961781   22.790790      6.00      15.9994
     150     3 H    1    4.461946    4.081161   22.872819      1.00       1.0079




 SCF PARAMETERS         Density guess:                                    ATOMIC
                        --------------------------------------------------------
                        max_scf:                                             100
                        max_scf_history:                                       0
                        max_diis:                                              4
                        --------------------------------------------------------
                        eps_scf:                                        5.00E-06
                        eps_scf_history:                                0.00E+00
                        eps_diis:                                       1.00E-01
                        eps_eigval:                                     1.00E-05
                        --------------------------------------------------------
                        level_shift [a.u.]:                                 0.00
                        --------------------------------------------------------
                        Outer loop SCF in use 
                        No variables optimised in outer loop
                        eps_scf                                         5.00E-06
                        max_scf                                                4
                        No outer loop optimization
                        step_size                                       5.00E-01

 PW_GRID| Information for grid number                                          1
 PW_GRID| Grid distributed over                                    80 processors
 PW_GRID| Real space group dimensions                                    80    1
 PW_GRID| the grid is blocked:                                                NO
 PW_GRID| Cutoff [a.u.]                                                    600.0
 PW_GRID| spherical cutoff:                                                   NO
 PW_GRID|   Bounds   1           -100      99                Points:         200
 PW_GRID|   Bounds   2           -100      99                Points:         200
 PW_GRID|   Bounds   3           -324     323                Points:         648
 PW_GRID| Volume element (a.u.^3)  0.6333E-03     Volume (a.u.^3)     16414.2734
 PW_GRID| Grid span                                                    FULLSPACE
 PW_GRID|   Distribution                         Average         Max         Min
 PW_GRID|   G-Vectors                           324000.0      324000      324000
 PW_GRID|   G-Rays                                1620.0        1620        1620
 PW_GRID|   Real Space Points                   324000.0      388800      259200

 PW_GRID| Information for grid number                                          2
 PW_GRID| Grid distributed over                                    80 processors
 PW_GRID| Real space group dimensions                                    80    1
 PW_GRID| the grid is blocked:                                                NO
 PW_GRID| Cutoff [a.u.]                                                    200.0
 PW_GRID| spherical cutoff:                                                   NO
 PW_GRID|   Bounds   1            -60      59                Points:         120
 PW_GRID|   Bounds   2            -60      59                Points:         120
 PW_GRID|   Bounds   3           -187     187                Points:         375
 PW_GRID| Volume element (a.u.^3)  0.3040E-02     Volume (a.u.^3)     16414.2734
 PW_GRID| Grid span                                                    FULLSPACE
 PW_GRID|   Distribution                         Average         Max         Min
 PW_GRID|   G-Vectors                            67500.0       68520       66240
 PW_GRID|   G-Rays                                 562.5         571         552
 PW_GRID|   Real Space Points                    67500.0       90000       45000

 PW_GRID| Information for grid number                                          3
 PW_GRID| Grid distributed over                                    80 processors
 PW_GRID| Real space group dimensions                                     8   10
 PW_GRID| the grid is blocked:                                                NO
 PW_GRID| Cutoff [a.u.]                                                     66.7
 PW_GRID| spherical cutoff:                                                   NO
 PW_GRID|   Bounds   1            -36      35                Points:          72
 PW_GRID|   Bounds   2            -36      35                Points:          72
 PW_GRID|   Bounds   3           -108     107                Points:         216
 PW_GRID| Volume element (a.u.^3)  0.1466E-01     Volume (a.u.^3)     16414.2734
 PW_GRID| Grid span                                                    FULLSPACE
 PW_GRID|   Distribution                         Average         Max         Min
 PW_GRID|   G-Vectors                            13996.8       14976       12816
 PW_GRID|   G-Rays                                 194.4         208         178
 PW_GRID|   Real Space Points                    13996.8       15552       13608

 PW_GRID| Information for grid number                                          4
 PW_GRID| Grid distributed over                                    80 processors
 PW_GRID| Real space group dimensions                                     8   10
 PW_GRID| the grid is blocked:                                                NO
 PW_GRID| Cutoff [a.u.]                                                     22.2
 PW_GRID| spherical cutoff:                                                   NO
 PW_GRID|   Bounds   1            -20      19                Points:          40
 PW_GRID|   Bounds   2            -20      19                Points:          40
 PW_GRID|   Bounds   3            -62      62                Points:         125
 PW_GRID| Volume element (a.u.^3)  0.8207E-01     Volume (a.u.^3)     16414.2734
 PW_GRID| Grid span                                                    FULLSPACE
 PW_GRID|   Distribution                         Average         Max         Min
 PW_GRID|   G-Vectors                             2500.0        2960        2040
 PW_GRID|   G-Rays                                  62.5          74          51
 PW_GRID|   Real Space Points                     2500.0        2500        2500

 PW_GRID| Information for grid number                                          5
 PW_GRID| Grid distributed over                                    80 processors
 PW_GRID| Real space group dimensions                                     8   10
 PW_GRID| the grid is blocked:                                                NO
 PW_GRID| Cutoff [a.u.]                                                      7.4
 PW_GRID| spherical cutoff:                                                   NO
 PW_GRID|   Bounds   1            -12      11                Points:          24
 PW_GRID|   Bounds   2            -12      11                Points:          24
 PW_GRID|   Bounds   3            -36      35                Points:          72
 PW_GRID| Volume element (a.u.^3)  0.3958         Volume (a.u.^3)     16414.2734
 PW_GRID| Grid span                                                    FULLSPACE
 PW_GRID|   Distribution                         Average         Max         Min
 PW_GRID|   G-Vectors                              518.4         648         240
 PW_GRID|   G-Rays                                  21.6          27          10
 PW_GRID|   Real Space Points                      518.4         648         432

 POISSON| Solver                                                        PERIODIC
 POISSON| Periodicity                                                        XYZ

 RS_GRID| Information for grid number                                          1
 RS_GRID|   Bounds   1           -100      99                Points:         200
 RS_GRID|   Bounds   2           -100      99                Points:         200
 RS_GRID|   Bounds   3           -324     323                Points:         648
 RS_GRID| Real space distribution over                                 80 groups
 RS_GRID| Real space distribution along direction                              3
 RS_GRID| Border size                                                         73
 RS_GRID|   Distribution                         Average         Max         Min
 RS_GRID|   Planes                                 154.1         155         154

 RS_GRID| Information for grid number                                          2
 RS_GRID|   Bounds   1            -60      59                Points:         120
 RS_GRID|   Bounds   2            -60      59                Points:         120
 RS_GRID|   Bounds   3           -187     187                Points:         375
 RS_GRID| Real space distribution over                                 80 groups
 RS_GRID| Real space distribution along direction                              3
 RS_GRID| Border size                                                         45
 RS_GRID|   Distribution                         Average         Max         Min
 RS_GRID|   Planes                                  94.7          95          94

 RS_GRID| Information for grid number                                          3
 RS_GRID|   Bounds   1            -36      35                Points:          72
 RS_GRID|   Bounds   2            -36      35                Points:          72
 RS_GRID|   Bounds   3           -108     107                Points:         216
 RS_GRID| Real space fully replicated
 RS_GRID| Group size                                                           1

 RS_GRID| Information for grid number                                          4
 RS_GRID|   Bounds   1            -20      19                Points:          40
 RS_GRID|   Bounds   2            -20      19                Points:          40
 RS_GRID|   Bounds   3            -62      62                Points:         125
 RS_GRID| Real space fully replicated
 RS_GRID| Group size                                                           1

 RS_GRID| Information for grid number                                          5
 RS_GRID|   Bounds   1            -12      11                Points:          24
 RS_GRID|   Bounds   2            -12      11                Points:          24
[...]
      98     N        2          5.519436                             -0.519436
      99     Ga       1         12.459297                              0.540703
     100     N        2          5.605811                             -0.605811
     101     Ga       1         12.420172                              0.579828
     102     N        2          5.591679                             -0.591679
     103     Ga       1         12.409031                              0.590969
     104     N        2          5.592469                             -0.592469
     105     Ga       1         12.409906                              0.590094
     106     N        2          5.593110                             -0.593110
     107     Ga       1         12.422935                              0.577065
     108     N        2          5.595288                             -0.595288
     109     Ga       1         12.449975                              0.550025
     110     N        2          5.581147                             -0.581147
     111     Ga       1         12.402091                              0.597909
     112     N        2          5.458246                             -0.458246
     113     Ga       1         12.652201                              0.347799
     114     N        2          5.519419                             -0.519419
     115     Ga       1         12.459471                              0.540529
     116     N        2          5.569737                             -0.569737
     117     Ga       1         12.410833                              0.589167
     118     N        2          5.591840                             -0.591840
     119     Ga       1         12.407512                              0.592488
     120     N        2          5.594027                             -0.594027
     121     Ga       1         12.409868                              0.590132
     122     N        2          5.593134                             -0.593134
     123     Ga       1         12.418307                              0.581693
     124     N        2          5.595100                             -0.595100
     125     Ga       1         12.452217                              0.547783
     126     N        2          5.602642                             -0.602642
     127     Ga       1         12.331286                              0.668714
     128     N        2          5.526100                             -0.526100
     129     Ga       1         12.495348                              0.504652
     130     N        2          5.519747                             -0.519747
     131     Ga       1         12.459936                              0.540064
     132     N        2          5.605680                             -0.605680
     133     Ga       1         12.420084                              0.579916
     134     N        2          5.591793                             -0.591793
     135     Ga       1         12.408539                              0.591461
     136     N        2          5.592466                             -0.592466
     137     Ga       1         12.405551                              0.594449
     138     N        2          5.593812                             -0.593812
     139     Ga       1         12.415753                              0.584247
     140     N        2          5.592931                             -0.592931
     141     Ga       1         12.453071                              0.546929
     142     N        2          5.592615                             -0.592615
     143     Ga       1         12.355563                              0.644437
     144     N        2          5.513163                             -0.513163
     145     H        3          0.889835                              0.110165
     146     H        3          0.935727                              0.064273
     147     H        3          0.928194                              0.071806
     148     C        4          3.854616                              0.145384
     149     O        5          6.221891                             -0.221891
     150     H        3          0.890608                              0.109392
 # Total charge                           1310.000000                  0.000000

 !-----------------------------------------------------------------------------!

 !-----------------------------------------------------------------------------!
                           Hirshfeld Charges

  #Atom  Element  Kind  Ref Charge     Population                    Net charge
      1       Ga     1      13.000         13.617                        -0.617
      2       N      2       5.000          4.155                         0.845
      3       Ga     1      13.000         13.844                        -0.844
      4       N      2       5.000          4.110                         0.890
      5       Ga     1      13.000         13.873                        -0.873
      6       N      2       5.000          4.134                         0.866
      7       Ga     1      13.000         13.866                        -0.866
      8       N      2       5.000          4.134                         0.866
      9       Ga     1      13.000         13.866                        -0.866
     10       N      2       5.000          4.134                         0.866
     11       Ga     1      13.000         13.869                        -0.869
     12       N      2       5.000          4.134                         0.866
     13       Ga     1      13.000         13.880                        -0.880
     14       N      2       5.000          4.142                         0.858
     15       Ga     1      13.000         14.008                        -1.008
     16       N      2       5.000          4.200                         0.800
     17       Ga     1      13.000         13.671                        -0.671
     18       N      2       5.000          4.157                         0.843
     19       Ga     1      13.000         13.844                        -0.844
     20       N      2       5.000          4.146                         0.854
     21       Ga     1      13.000         13.862                        -0.862
     22       N      2       5.000          4.134                         0.866
     23       Ga     1      13.000         13.866                        -0.866
     24       N      2       5.000          4.133                         0.867
     25       Ga     1      13.000         13.867                        -0.867
     26       N      2       5.000          4.133                         0.867
     27       Ga     1      13.000         13.867                        -0.867
     28       N      2       5.000          4.136                         0.864
     29       Ga     1      13.000         13.881                        -0.881
     30       N      2       5.000          4.134                         0.866
     31       Ga     1      13.000         14.056                        -1.056
     32       N      2       5.000          4.212                         0.788
     33       Ga     1      13.000         13.670                        -0.670
     34       N      2       5.000          4.156                         0.844
     35       Ga     1      13.000         13.844                        -0.844
     36       N      2       5.000          4.146                         0.854
     37       Ga     1      13.000         13.862                        -0.862
     38       N      2       5.000          4.134                         0.866
     39       Ga     1      13.000         13.866                        -0.866
     40       N      2       5.000          4.132                         0.868
     41       Ga     1      13.000         13.866                        -0.866
     42       N      2       5.000          4.132                         0.868
     43       Ga     1      13.000         13.872                        -0.872
     44       N      2       5.000          4.128                         0.872
     45       Ga     1      13.000         13.892                        -0.892
     46       N      2       5.000          4.136                         0.864
     47       Ga     1      13.000         14.055                        -1.055
     48       N      2       5.000          4.501                         0.499
     49       Ga     1      13.000         13.670                        -0.670
     50       N      2       5.000          4.157                         0.843
     51       Ga     1      13.000         13.844                        -0.844
     52       N      2       5.000          4.146                         0.854
     53       Ga     1      13.000         13.862                        -0.862
     54       N      2       5.000          4.134                         0.866
     55       Ga     1      13.000         13.867                        -0.867
     56       N      2       5.000          4.132                         0.868
     57       Ga     1      13.000         13.868                        -0.868
     58       N      2       5.000          4.135                         0.865
     59       Ga     1      13.000         13.867                        -0.867
     60       N      2       5.000          4.141                         0.859
     61       Ga     1      13.000         13.874                        -0.874
     62       N      2       5.000          4.136                         0.864
     63       Ga     1      13.000         14.055                        -1.055
     64       N      2       5.000          4.197                         0.803
     65       Ga     1      13.000         13.671                        -0.671
     66       N      2       5.000          4.156                         0.844
     67       Ga     1      13.000         13.844                        -0.844
     68       N      2       5.000          4.146                         0.854
     69       Ga     1      13.000         13.862                        -0.862
     70       N      2       5.000          4.134                         0.866
     71       Ga     1      13.000         13.866                        -0.866
     72       N      2       5.000          4.133                         0.867
     73       Ga     1      13.000         13.866                        -0.866
     74       N      2       5.000          4.133                         0.867
     75       Ga     1      13.000         13.868                        -0.868
     76       N      2       5.000          4.134                         0.866
     77       Ga     1      13.000         13.886                        -0.886
     78       N      2       5.000          4.130                         0.870
     79       Ga     1      13.000         14.061                        -1.061
     80       N      2       5.000          4.199                         0.801
     81       Ga     1      13.000         13.615                        -0.615
     82       N      2       5.000          4.156                         0.844
     83       Ga     1      13.000         13.844                        -0.844
     84       N      2       5.000          4.109                         0.891
     85       Ga     1      13.000         13.873                        -0.873
     86       N      2       5.000          4.134                         0.866
     87       Ga     1      13.000         13.867                        -0.867
     88       N      2       5.000          4.135                         0.865
     89       Ga     1      13.000         13.866                        -0.866
     90       N      2       5.000          4.135                         0.865
     91       Ga     1      13.000         13.869                        -0.869
     92       N      2       5.000          4.137                         0.863
     93       Ga     1      13.000         13.874                        -0.874
     94       N      2       5.000          4.138                         0.862
     95       Ga     1      13.000         14.022                        -1.022
     96       N      2       5.000          4.194                         0.806
     97       Ga     1      13.000         13.671                        -0.671
     98       N      2       5.000          4.156                         0.844
     99       Ga     1      13.000         13.844                        -0.844
    100       N      2       5.000          4.146                         0.854
    101       Ga     1      13.000         13.862                        -0.862
    102       N      2       5.000          4.134                         0.866
    103       Ga     1      13.000         13.866                        -0.866
    104       N      2       5.000          4.133                         0.867
    105       Ga     1      13.000         13.867                        -0.867
    106       N      2       5.000          4.132                         0.868
    107       Ga     1      13.000         13.871                        -0.871
    108       N      2       5.000          4.136                         0.864
    109       Ga     1      13.000         13.886                        -0.886
    110       N      2       5.000          4.148                         0.852
    111       Ga     1      13.000         14.077                        -1.077
    112       N      2       5.000          4.209                         0.791
    113       Ga     1      13.000         13.616                        -0.616
    114       N      2       5.000          4.156                         0.844
    115       Ga     1      13.000         13.844                        -0.844
    116       N      2       5.000          4.109                         0.891
    117       Ga     1      13.000         13.873                        -0.873
    118       N      2       5.000          4.134                         0.866
    119       Ga     1      13.000         13.865                        -0.865
    120       N      2       5.000          4.134                         0.866
    121       Ga     1      13.000         13.868                        -0.868
    122       N      2       5.000          4.130                         0.870
    123       Ga     1      13.000         13.870                        -0.870
    124       N      2       5.000          4.133                         0.867
    125       Ga     1      13.000         13.887                        -0.887
    126       N      2       5.000          4.125                         0.875
    127       Ga     1      13.000         14.146                        -1.146
    128       N      2       5.000          4.294                         0.706
    129       Ga     1      13.000         13.671                        -0.671
    130       N      2       5.000          4.156                         0.844
    131       Ga     1      13.000         13.844                        -0.844
    132       N      2       5.000          4.146                         0.854
    133       Ga     1      13.000         13.862                        -0.862
    134       N      2       5.000          4.134                         0.866
    135       Ga     1      13.000         13.866                        -0.866
    136       N      2       5.000          4.132                         0.868
    137       Ga     1      13.000         13.866                        -0.866
    138       N      2       5.000          4.133                         0.867
    139       Ga     1      13.000         13.864                        -0.864
    140       N      2       5.000          4.126                         0.874
    141       Ga     1      13.000         13.892                        -0.892
    142       N      2       5.000          4.126                         0.874
    143       Ga     1      13.000         14.061                        -1.061
    144       N      2       5.000          4.515                         0.485
    145       H      3       1.000          0.468                         0.532
    146       H      3       1.000          0.514                         0.486
    147       H      3       1.000          0.555                         0.445
    148       C      4       4.000          4.300                        -0.300
    149       O      5       6.000          6.383                        -0.383
    150       H      3       1.000          0.463                         0.537

  Total Charge                                                            0.002
 !-----------------------------------------------------------------------------!

 ENERGY| Total FORCE_EVAL ( QS ) energy (a.u.):            -6112.701358831896869


 --------  Informations at step =   101 ------------
  Optimization Method        =                 BFGS
  Total Energy               =     -6112.7013588319
  Real energy change         =        -0.0000156495
  Predicted change in energy =        -0.0000277848
  Scaling factor             =         0.9771690766
  Step size                  =         0.0119882036
  Trust radius               =         0.4724315332
  Decrease in energy         =                  YES
  Used time                  =               50.609

  Convergence check :
  Max. step size             =         0.0119882036
  Conv. limit for step size  =         0.0030000000
  Convergence in step size   =                   NO
  RMS step size              =         0.0028238559
  Conv. limit for RMS step   =         0.0015000000
  Convergence in RMS step    =                   NO
  Max. gradient              =         0.0021817535
  Conv. limit for gradients  =         0.0004500000
  Conv. for gradients        =                   NO
  RMS gradient               =         0.0002049191
  Conv. limit for RMS grad.  =         0.0003000000
  Conv. in RMS gradients     =                  YES
 ---------------------------------------------------

 --------------------------
 OPTIMIZATION STEP:    102
 --------------------------

 Number of electrons:                                                       1310
 Number of occupied orbitals:                                                655
 Number of molecular orbitals:                                               655

 Number of orbital functions:                                               2782
 Number of independent orbital functions:                                   2782

 Parameters for the always stable predictor-corrector (ASPC) method:

  ASPC order: 3

  B(1) =   3.000000
  B(2) =  -3.428571
  B(3) =   1.928571
  B(4) =  -0.571429
  B(5) =   0.071429

 Extrapolation method: ASPC


 SCF WAVEFUNCTION OPTIMIZATION

  ----------------------------------- OT ---------------------------------------
  Minimizer      : CG                  : conjugate gradient
  Preconditioner : FULL_ALL            : diagonalization, state selective
  Precond_solver : DEFAULT
  Line search    : 2PNT                : 2 energies, one gradient
  stepsize       :    0.15000000                  energy_gap     :    0.08000000
  eps_taylor     :   0.10000E-15                  max_taylor     :             4
  ----------------------------------- OT ---------------------------------------

  Step     Update method      Time    Convergence         Total energy    Change
  ------------------------------------------------------------------------------
     1 OT CG       0.15E+00    8.3     0.00006054     -6112.7005908444 -6.11E+03
     2 OT LS       0.21E+00    2.4                    -6112.7012372054
     3 OT CG       0.21E+00    5.9     0.00004166     -6112.7012967309 -7.06E-04
     4 OT LS       0.49E-01    2.5                    -6112.7005103664
     5 OT CG       0.49E-01    5.5     0.00001189     -6112.7013736281 -7.69E-05
     6 OT LS       0.66E-01    2.5                    -6112.7013815351
