     150
 i =       30, E =     -6112.5414149137
 Ga         0.0012363235       -0.0106242176       -0.5824833288
  N         0.0042963215        1.8632731814        0.5403940410
 Ga         0.0045649731        1.8319002884        2.5738837402
  N         0.0016368649       -0.0119747530        3.2041437981
 Ga         0.0028941852       -0.0128941772        5.1949649778
  N         0.0058704606        1.8619061926        5.7814588102
 Ga         0.0059399633        1.8587350474        7.7801279668
  N         0.0031001678       -0.0153834958        8.3799126425
 Ga         0.0042429506       -0.0159105269       10.3765202655
  N         0.0065753956        1.8560612666       10.9784589929
 Ga         0.0064666834        1.8524598478       12.9716244052
  N         0.0007805335       -0.0137418838       13.5815751802
 Ga         0.0017488557       -0.0155381209       15.5876081450
  N         0.0116037042        1.8580739407       16.2315610971
 Ga         0.0151474295        1.8588490043       18.3509055247
  N         0.0165206919       -0.0293949331       18.6329446446
 Ga        -1.6192648052        2.7953101635        0.2572912090
  N        -1.6197848889        4.6652801126        0.5414357115
 Ga        -1.5914462586        4.6796571395        2.5723587980
  N        -1.6176660415        2.7939304479        3.1632300346
 Ga        -1.6168442019        2.7931226876        5.1735673142
  N        -1.6167969623        4.6628372471        5.7815204296
 Ga        -1.6157054611        4.6610212488        7.7797128512
  N        -1.6174145341        2.7901634240        8.3835710089
 Ga        -1.6174065204        2.7896637543       10.3791776323
  N        -1.6113366589        4.6603196186       10.9852203900
 Ga        -1.6080882883        4.6583347322       12.9817457819
  N        -1.6105373419        2.7827727735       13.5869453616
 Ga        -1.6138954179        2.7863770692       15.5912130298
  N        -1.6139437693        4.6590685025       16.1587264625
 Ga        -1.6015396221        4.6530392418       18.2187526434
  N        -1.6119317542        2.7899178879       18.6730488225
 Ga        -3.2393875347        5.6000896856        0.2566656803
  N        -3.2331414952        7.4713855554        0.5409545358
 Ga        -3.2590274687        7.4843288911        2.5745422894
  N        -3.2377461271        5.5990837519        3.1642201208
 Ga        -3.2371824455        5.5980193528        5.1747660675
  N        -3.2308578119        7.4681372871        5.7810641213
 Ga        -3.2317543046        7.4669369493        7.7792597725
  N        -3.2354211821        5.5968772144        8.3858781258
 Ga        -3.2337448543        5.5983137902       10.3823527229
  N        -3.2316850314        7.4710080650       10.9865775352
 Ga        -3.2285792797        7.4757655773       12.9854989422
  N        -3.2322461951        5.5961074742       13.5637249673
 Ga        -3.2314088877        5.6023882803       15.5590487422
  N        -3.2213678066        7.4787210242       16.1190880334
 Ga        -3.2290920610        7.4683248015       18.1576475141
  N        -3.2321931956        5.5909535046       18.5679575969
 Ga         3.2474288167       -0.0096530049        0.2568641102
  N         3.2447146673        1.8591446382        0.5413096459
 Ga         3.2741357779        1.8741111902        2.5712645929
  N         3.2473613386       -0.0116804208        3.1630357087
 Ga         3.2484336124       -0.0123572756        5.1734676038
  N         3.2489687420        1.8576749641        5.7810759332
 Ga         3.2499914172        1.8565605218        7.7791642195
  N         3.2488588233       -0.0142841894        8.3829252296
 Ga         3.2492288423       -0.0139140934       10.3779412371
  N         3.2518648665        1.8574339082       10.9848612381
 Ga         3.2515453465        1.8575639300       12.9801484258
  N         3.2597069895       -0.0097608142       13.5954620933
 Ga         3.2705159515       -0.0131936765       15.6025985161
  N         3.2595976230        1.8774671804       16.1652807894
 Ga         3.2503699576        1.8696803870       18.2198422469
  N         3.2367373336       -0.0046027030       18.6059442314
 Ga         1.6274521544        2.7959463407        0.2564726183
  N         1.6330300384        4.6659114410        0.5413491816
 Ga         1.6060469168        4.6796354106        2.5724816910
  N         1.6274809928        2.7938591143        3.1631419711
 Ga         1.6289661002        2.7928765586        5.1735543203
  N         1.6340255731        4.6629111243        5.7809599374
 Ga         1.6328956003        4.6612576293        7.7787104902
  N         1.6292797874        2.7911526326        8.3841799285
 Ga         1.6295656797        2.7917044594       10.3795197918
  N         1.6288481596        4.6621213293       10.9896553172
 Ga         1.6238866150        4.6615808581       12.9877893966
  N         1.6252149594        2.7842316623       13.5866348293
 Ga         1.6260256110        2.7954748181       15.5914138411
  N         1.6330626712        4.6701371628       16.1422660858
 Ga         1.6251933769        4.6597076400       18.1822734455
  N         1.6407659197        2.8004972961       18.6568224936
 Ga         0.0069769135        5.6018582282       -0.6055645636
  N         0.0103460315        7.4754167125        0.5414942111
 Ga         0.0104722179        7.4423747456        2.5722686426
  N         0.0076433847        5.5988257843        3.2038580938
 Ga         0.0086540209        5.5981699436        5.1936361835
  N         0.0117738773        7.4725709092        5.7804687386
 Ga         0.0116935060        7.4691919491        7.7782833100
  N         0.0090071715        5.5957937791        8.3802320400
 Ga         0.0089977982        5.5953782253       10.3763886688
  N         0.0122993944        7.4671874187       10.9818352902
 Ga         0.0121582221        7.4693671399       12.9767658869
  N         0.0046448626        5.6034248945       13.5999834723
 Ga         0.0046737247        5.6162452647       15.6093310776
  N         0.0164055258        7.4706904694       16.2649039722
 Ga         0.0209117542        7.4778379813       18.3816398661
  N         0.0153377995        5.5842362732       18.6217813397
 Ga         6.4913870774       -0.0091292869        0.2572833851
  N         6.4995587428        1.8595891127        0.5424456068
 Ga         6.4713960069        1.8741729960        2.5722169731
  N         6.4929358116       -0.0119453882        3.1630492827
 Ga         6.4940144257       -0.0126035250        5.1733370412
  N         6.4992888638        1.8576027061        5.7801439593
 Ga         6.4982294044        1.8562286209        7.7777688607
  N         6.4934781611       -0.0143770809        8.3822108324
 Ga         6.4937273421       -0.0137891258       10.3768840133
  N         6.4973049567        1.8557022164       10.9881308724
 Ga         6.4992208627        1.8539757017       12.9858776384
  N         6.4869589597       -0.0181097777       13.6009872854
 Ga         6.4793023076       -0.0185716145       15.6085083094
  N         6.4913688912        1.8660772357       16.1508821328
 Ga         6.5137414952        1.8664907005       18.2031345024
  N         6.5181406240       -0.0021265373       18.6500028279
 Ga         4.8733178321        2.7965350471       -0.6125322389
  N         4.8756758096        4.6710985991        0.5423064241
 Ga         4.8759542033        4.6376587985        2.5718093645
  N         4.8729346631        2.7939474378        3.2037591257
 Ga         4.8741673170        2.7938479383        5.1938142746
  N         4.8770097645        4.6675260106        5.7837573762
 Ga         4.8770005356        4.6645858619        7.7833328504
  N         4.8748697552        2.7899754747        8.3815425124
 Ga         4.8758558601        2.7903715704       10.3783110154
  N         4.8771418532        4.6632903897       10.9757492086
 Ga         4.8779595337        4.6669655398       12.9680736499
  N         4.8752806389        2.7973191126       13.5772015694
 Ga         4.8829128714        2.8072542977       15.5723809395
  N         4.8750234837        4.6874670312       16.1397037296
 Ga         4.8843204759        4.6576640517       18.1836463806
  N         4.8817431681        2.7866259725       18.6331523262
 Ga         3.2536663063        5.5993954551        0.2566756425
  N         3.2529004986        7.4707295450        0.5407390178
 Ga         3.2803163819        7.4842866655        2.5741557741
  N         3.2533508380        5.5990526290        3.1638957115
 Ga         3.2551733894        5.5980955435        5.1743584710
  N         3.2546747627        7.4680772943        5.7812392075
 Ga         3.2556405915        7.4668155101        7.7794940061
  N         3.2529362970        5.5963991070        8.3856731401
 Ga         3.2519587316        5.5975759048       10.3819674103
  N         3.2564870003        7.4709188574       10.9826268808
 Ga         3.2536499964        7.4757617165       12.9783682026
  N         3.2526828847        5.6001149130       13.5663697212
 Ga         3.2532194191        5.6047390564       15.5591113785
  N         3.2488692438        7.4706463733       16.1663010587
 Ga         3.2687343157        7.4715244878       18.2275694805
  N         3.2588486858        5.5813019896       18.6124745466
  H         3.2997962306        4.9372269638       20.9103629695
  H         3.8220739585        3.2486345229       20.8223388246
  H         2.1298790599        3.6422227525       21.3044394170
  C         3.1794218721        3.9446957765       21.3995522785
  O         3.5000590966        3.9617812114       22.7907900641
  H         4.4619456867        4.0811605956       22.8728189266
