     150
 i =        1, E =     -6112.5403234436
 Ga         0.0012600937       -0.0107831002       -0.5845964315
  N         0.0043473258        1.8632550807        0.5406649241
 Ga         0.0045508527        1.8319446843        2.5738304932
  N         0.0016452740       -0.0120021428        3.2041972388
 Ga         0.0028599049       -0.0128760002        5.1950338372
  N         0.0057805035        1.8618802470        5.7815560373
 Ga         0.0059841103        1.8589555766        7.7803500959
  N         0.0031373274       -0.0152515724        8.3797865150
 Ga         0.0043900857       -0.0153372932       10.3765881152
  N         0.0063379789        1.8562229341       10.9792551274
 Ga         0.0077811085        1.8537613601       12.9730355716
  N         0.0017902716       -0.0130243302       13.5820941842
 Ga        -0.0000076287       -0.0094708505       15.5887829365
  N         0.0167357102        1.8592704435       16.2326042392
 Ga         0.0108410162        1.8617735414       18.3459506021
  N         0.0166072442       -0.0266115719       18.6311594464
 Ga        -1.6191105729        2.7949812696        0.2576222366
  N        -1.6199773920        4.6649896301        0.5413739462
 Ga        -1.5914343587        4.6795505112        2.5722558022
  N        -1.6179303731        2.7938623239        3.1632329661
 Ga        -1.6169255808        2.7931099609        5.1737351729
  N        -1.6168263546        4.6628578389        5.7816205587
 Ga        -1.6157837890        4.6611370468        7.7798914072
  N        -1.6174448506        2.7902823383        8.3834251775
 Ga        -1.6171482793        2.7897249785       10.3789495625
  N        -1.6116181626        4.6603313421       10.9855464815
 Ga        -1.6079433176        4.6591880202       12.9823474382
  N        -1.6099286696        2.7833969419       13.5864045603
 Ga        -1.6104194515        2.7824408553       15.5917084933
  N        -1.6167487173        4.6545660617       16.1600572032
 Ga        -1.6076358239        4.6540824493       18.2215882673
  N        -1.6157035304        2.7895285005       18.6737013727
 Ga        -3.2394670476        5.6001025326        0.2570100487
  N        -3.2329663117        7.4711932327        0.5412704334
 Ga        -3.2589388097        7.4842005410        2.5745513425
  N        -3.2378643754        5.5987540382        3.1641480768
 Ga        -3.2372163023        5.5979849656        5.1748207220
  N        -3.2309149800        7.4681503743        5.7811073427
 Ga        -3.2317600476        7.4669864699        7.7794129819
  N        -3.2354258330        5.5970107745        8.3857753212
 Ga        -3.2338152046        5.5982294258       10.3822844407
  N        -3.2314299850        7.4710679252       10.9852188842
 Ga        -3.2296553198        7.4749837391       12.9832262516
  N        -3.2326369310        5.5967834233       13.5626700570
 Ga        -3.2324057648        5.5940802663       15.5576584744
  N        -3.2250171279        7.4704780527       16.1179025938
 Ga        -3.2311325399        7.4724163914       18.1603066285
  N        -3.2294541671        5.6010876014       18.5882778314
 Ga         3.2472831706       -0.0097623824        0.2572644561
  N         3.2449985678        1.8591106381        0.5413912393
 Ga         3.2743852325        1.8741764027        2.5712285718
  N         3.2475307032       -0.0115444522        3.1630117648
 Ga         3.2484255281       -0.0123379837        5.1735582156
  N         3.2489267913        1.8576410620        5.7811906162
 Ga         3.2498637658        1.8567139379        7.7793388313
  N         3.2487755569       -0.0141713235        8.3826600052
 Ga         3.2490176282       -0.0132429414       10.3774569518
  N         3.2519135769        1.8574136031       10.9851229617
 Ga         3.2499404007        1.8590423403       12.9808166742
  N         3.2571489932       -0.0094231708       13.5995274619
 Ga         3.2699642729       -0.0083016712       15.6089377909
  N         3.2593997449        1.8812190429       16.1636862106
 Ga         3.2505408181        1.8685331174       18.2155574537
  N         3.2367669379       -0.0051866239       18.6121985236
 Ga         1.6274499183        2.7955963068        0.2568512911
  N         1.6333683412        4.6656354221        0.5412021203
 Ga         1.6060836771        4.6795855514        2.5723098772
  N         1.6277300126        2.7938143695        3.1631138050
 Ga         1.6289369370        2.7928841383        5.1737092701
  N         1.6339750400        4.6629810882        5.7810620645
 Ga         1.6329104828        4.6612193078        7.7789717295
  N         1.6292292265        2.7912224128        8.3843352843
 Ga         1.6295445316        2.7915170757       10.3799503512
  N         1.6288426066        4.6622074611       10.9885267516
 Ga         1.6241037990        4.6619943592       12.9862648427
  N         1.6253497609        2.7867952153       13.5860897215
 Ga         1.6259666574        2.7939931866       15.5899190412
  N         1.6322780413        4.6728267404       16.1482082169
 Ga         1.6253241091        4.6604797967       18.1910085155
  N         1.6407299529        2.7970750866       18.6529907689
 Ga         0.0069830559        5.6017093150       -0.6043047480
  N         0.0104192841        7.4756100932        0.5414088649
 Ga         0.0104834635        7.4423115723        2.5721211090
  N         0.0076508771        5.5987969987        3.2037813209
 Ga         0.0085901255        5.5981640868        5.1937605448
  N         0.0117861159        7.4725752589        5.7806498234
 Ga         0.0115408867        7.4693066863        7.7785388658
  N         0.0090006863        5.5959285728        8.3803710043
 Ga         0.0089231062        5.5952240811       10.3766586789
  N         0.0118870592        7.4674728196       10.9813524145
 Ga         0.0106139387        7.4695592357       12.9762293174
  N         0.0054957731        5.6045566002       13.6006735198
 Ga         0.0036555352        5.6104084021       15.6098698077
  N         0.0184926404        7.4691418850       16.2587593142
 Ga         0.0175785047        7.4794488136       18.3789576665
  N         0.0127904310        5.5845019622       18.6164790176
 Ga         6.4917029814       -0.0092587312        0.2576672616
  N         6.4994580438        1.8595330793        0.5424905531
 Ga         6.4712074733        1.8742377024        2.5721059539
  N         6.4927518962       -0.0118019848        3.1629513794
 Ga         6.4939031042       -0.0125313031        5.1732878518
  N         6.4992147149        1.8575619506        5.7802716646
 Ga         6.4981219990        1.8565072161        7.7779628800
  N         6.4934872924       -0.0142393335        8.3823238077
 Ga         6.4937375413       -0.0131589525       10.3771822340
  N         6.4973846883        1.8564089958       10.9887578579
 Ga         6.4994040201        1.8537915877       12.9869879106
  N         6.4869022657       -0.0194529330       13.6001327132
 Ga         6.4829742809       -0.0144227088       15.6078716420
  N         6.4920309965        1.8693342273       16.1476043595
 Ga         6.5089657460        1.8665825016       18.1985581841
  N         6.5176543812       -0.0030548168       18.6402297665
 Ga         4.8733793091        2.7964577846       -0.6109663222
  N         4.8757225643        4.6707941432        0.5424172608
 Ga         4.8759381988        4.6373434397        2.5717600977
  N         4.8729793882        2.7938815276        3.2038579918
 Ga         4.8741176274        2.7938059700        5.1939452121
  N         4.8770349980        4.6674715998        5.7838837797
 Ga         4.8770364335        4.6646405986        7.7835230024
  N         4.8747358133        2.7900592951        8.3815437441
 Ga         4.8755905367        2.7904642977       10.3785018036
  N         4.8775135615        4.6633222599       10.9763347542
 Ga         4.8769551654        4.6670733852       12.9690983603
  N         4.8748320270        2.7963713107       13.5714103370
 Ga         4.8824110842        2.8006916106       15.5639426734
  N         4.8791299344        4.6734818757       16.1360145040
 Ga         4.8947762155        4.6617366129       18.1786565404
  N         4.8792419067        2.7885541810       18.6382049060
 Ga         3.2538767902        5.5994530165        0.2569786267
  N         3.2528996001        7.4705336814        0.5410809064
 Ga         3.2802316009        7.4841459500        2.5741885165
  N         3.2534935681        5.5987541232        3.1638772524
 Ga         3.2551857070        5.5980067783        5.1744591503
  N         3.2545557944        7.4680995220        5.7812874359
 Ga         3.2557399638        7.4668443208        7.7796956589
  N         3.2529489970        5.5965177373        8.3857414893
 Ga         3.2522897468        5.5972847558       10.3822078300
  N         3.2566166833        7.4710363650       10.9821384475
 Ga         3.2546214442        7.4751588726       12.9781748705
  N         3.2517760722        5.6003243581       13.5684686579
 Ga         3.2583903596        5.5988690792       15.5625836200
  N         3.2484787395        7.4690085368       16.1664697211
 Ga         3.2699012141        7.4716244280       18.2285864601
  N         3.2654290319        5.5805044697       18.6074556629
  H         3.2976917093        4.9375167844       20.9109347347
  H         3.8227266368        3.2498875508       20.8230517384
  H         2.1301126782        3.6417686392       21.3053457917
  C         3.1786936905        3.9456502217       21.3999646076
  O         3.5021302038        3.9611162318       22.7904213988
  H         4.4630125784        4.0827198598       22.8707592889
     150
 i =        2, E =     -6112.5407891615
 Ga         0.0013567062       -0.0110967407       -0.5880372626
  N         0.0044645015        1.8631279017        0.5413250716
 Ga         0.0045743162        1.8316539706        2.5740803181
  N         0.0016702621       -0.0120937736        3.2045805451
 Ga         0.0027560156       -0.0127865643        5.1951563248
  N         0.0056996562        1.8619044243        5.7814639663
 Ga         0.0058544178        1.8592965637        7.7803432619
  N         0.0030733596       -0.0148859683        8.3798445455
 Ga         0.0043021726       -0.0149202015       10.3769045360
  N         0.0064770597        1.8565662358       10.9786378841
 Ga         0.0090986189        1.8551157980       12.9723381692
  N         0.0019351809       -0.0109807679       13.5820867839
 Ga         0.0012763677       -0.0077703534       15.5887541721
  N         0.0212106873        1.8572014511       16.2311576046
 Ga         0.0046581963        1.8664652985       18.3403091378
  N         0.0150728756       -0.0225609952       18.6271244743
 Ga        -1.6187424739        2.7946245655        0.2574378293
  N        -1.6198804681        4.6647169177        0.5417560966
 Ga        -1.5914890648        4.6793442324        2.5726796395
  N        -1.6179364738        2.7937218846        3.1633390633
 Ga        -1.6170137108        2.7931020753        5.1739868400
  N        -1.6168103690        4.6629094257        5.7816145387
 Ga        -1.6158268148        4.6612485548        7.7800047734
  N        -1.6174617426        2.7905017663        8.3838893096
 Ga        -1.6168863173        2.7901345916       10.3793538472
  N        -1.6114324298        4.6607605126       10.9854377685
 Ga        -1.6078420794        4.6595258574       12.9819384235
  N        -1.6085845689        2.7837202627       13.5858801134
 Ga        -1.6084486396        2.7806959283       15.5927058261
  N        -1.6187127783        4.6521382855       16.1632052344
 Ga        -1.6144384735        4.6575272095       18.2273993617
  N        -1.6215891617        2.7905759598       18.6732613878
 Ga        -3.2393452786        5.6000994115        0.2569879693
  N        -3.2327252622        7.4709067674        0.5419416551
 Ga        -3.2590836182        7.4841480229        2.5747547153
  N        -3.2378477310        5.5986077485        3.1642105155
 Ga        -3.2372563032        5.5978787549        5.1749586073
  N        -3.2310671322        7.4681430814        5.7809416595
 Ga        -3.2318733645        7.4671236819        7.7794692165
  N        -3.2354661377        5.5970891961        8.3858345142
 Ga        -3.2336950894        5.5982808066       10.3825154271
  N        -3.2314574216        7.4712146148       10.9861243019
 Ga        -3.2309200090        7.4750218504       12.9840354306
  N        -3.2331592521        5.5966807096       13.5591334943
 Ga        -3.2307382336        5.5867542429       15.5527845006
  N        -3.2282145913        7.4595437779       16.1224211787
 Ga        -3.2338740944        7.4762813511       18.1682497536
  N        -3.2278963245        5.6111933954       18.6160287161
 Ga         3.2472290867       -0.0101534756        0.2572225856
  N         3.2453735573        1.8589977559        0.5419544472
 Ga         3.2744180746        1.8740444410        2.5719483958
  N         3.2475620325       -0.0116967706        3.1631305413
 Ga         3.2483798495       -0.0122831358        5.1737576129
  N         3.2487399812        1.8576737325        5.7811627681
 Ga         3.2497767387        1.8571029051        7.7793715132
  N         3.2487119406       -0.0138787820        8.3825164785
 Ga         3.2488111959       -0.0130617634       10.3772715239
  N         3.2512515027        1.8574553959       10.9837099316
 Ga         3.2472473906        1.8592095561       12.9792604425
  N         3.2542266143       -0.0083541814       13.6027945076
 Ga         3.2683914789       -0.0092457519       15.6126007380
  N         3.2604636343        1.8786584024       16.1610981697
 Ga         3.2499596137        1.8713053569       18.2118022162
  N         3.2377784908       -0.0032560100       18.6147302883
 Ga         1.6273727564        2.7952225511        0.2567893193
  N         1.6335047118        4.6654040923        0.5414938331
 Ga         1.6061965148        4.6794316082        2.5726843511
  N         1.6277513606        2.7937231856        3.1631549016
 Ga         1.6288374644        2.7929505743        5.1738372249
  N         1.6338851733        4.6629727484        5.7812112207
 Ga         1.6328978643        4.6613874576        7.7792920010
  N         1.6290278981        2.7913820429        8.3841543166
 Ga         1.6293225141        2.7919565559       10.3797475273
  N         1.6289224388        4.6627450572       10.9880253600
 Ga         1.6242812102        4.6646649159       12.9856002235
  N         1.6253652067        2.7904979216       13.5857509814
 Ga         1.6269831334        2.7927345758       15.5903106290
  N         1.6305788945        4.6766298249       16.1540820998
 Ga         1.6267555476        4.6622720924       18.1985749023
  N         1.6388904266        2.7955007501       18.6485571137
 Ga         0.0070185994        5.6013975171       -0.6030040691
  N         0.0105564522        7.4753579818        0.5417486782
 Ga         0.0104837158        7.4422402008        2.5724842354
  N         0.0076604433        5.5986986892        3.2037478620
 Ga         0.0086084670        5.5981250580        5.1939318737
  N         0.0117151209        7.4725291061        5.7808158728
 Ga         0.0116076750        7.4694987500        7.7789170940
  N         0.0089179757        5.5960925752        8.3806167951
 Ga         0.0089414051        5.5958910321       10.3769553124
  N         0.0112665556        7.4679424372       10.9836933835
 Ga         0.0090312198        7.4698065252       12.9791956838
  N         0.0048479242        5.6050053601       13.6022540790
 Ga         0.0043769741        5.6075074377       15.6113102780
  N         0.0178987016        7.4692764024       16.2544801008
 Ga         0.0126099174        7.4803058416       18.3741852813
  N         0.0121983994        5.5844650148       18.6115581626
 Ga         6.4920379596       -0.0096607594        0.2576207893
  N         6.4993987986        1.8594045727        0.5429540862
 Ga         6.4712121412        1.8741508741        2.5726863909
  N         6.4926987998       -0.0119340140        3.1630447605
 Ga         6.4937965972       -0.0125092238        5.1734742454
  N         6.4991331868        1.8575442067        5.7804485063
 Ga         6.4980402197        1.8568063285        7.7783212611
  N         6.4934798906       -0.0138892363        8.3831696303
 Ga         6.4937450589       -0.0132168362       10.3782522636
  N         6.4978084069        1.8566965736       10.9874167670
 Ga         6.5007633531        1.8531759424       12.9851754472
  N         6.4873454498       -0.0195195907       13.5988022149
 Ga         6.4864924487       -0.0180438175       15.6056887179
  N         6.4932406297        1.8658972292       16.1414892320
 Ga         6.5033427502        1.8659042828       18.1925968970
  N         6.5158016515       -0.0052558286       18.6248318567
 Ga         4.8734887406        2.7962430003       -0.6092544067
  N         4.8758240404        4.6703204221        0.5429693343
 Ga         4.8759585353        4.6371970623        2.5724269349
  N         4.8730068503        2.7937487087        3.2040586034
 Ga         4.8740325932        2.7937710908        5.1942605392
  N         4.8769924772        4.6674706844        5.7839135951
 Ga         4.8770217664        4.6646222054        7.7836211493
  N         4.8746211794        2.7902007637        8.3821477524
 Ga         4.8755297616        2.7905788276       10.3794515000
  N         4.8773156961        4.6639170435       10.9753930818
 Ga         4.8761768579        4.6667943891       12.9679622705
  N         4.8740335717        2.7938621009       13.5636129283
 Ga         4.8830131672        2.7943766537       15.5542941918
  N         4.8858851065        4.6609566104       16.1325013122
 Ga         4.9056742676        4.6653266748       18.1745047973
  N         4.8781267076        2.7897120520       18.6453033766
 Ga         3.2540008118        5.5994552935        0.2568175021
  N         3.2529364668        7.4702292331        0.5418109080
 Ga         3.2804229676        7.4840311224        2.5745049869
  N         3.2535373298        5.5985749815        3.1640347695
 Ga         3.2550628377        5.5978855801        5.1747057053
  N         3.2544991880        7.4680796893        5.7813459000
 Ga         3.2556293471        7.4670676099        7.7800343405
  N         3.2530464145        5.5967127176        8.3855299526
 Ga         3.2523617609        5.5976657275       10.3818396017
  N         3.2569602720        7.4709727059       10.9832393824
 Ga         3.2551009883        7.4742757355       12.9796850902
  N         3.2526568782        5.5998069683       13.5719265510
 Ga         3.2623369428        5.5934811807       15.5680833920
  N         3.2506622324        7.4684474027       16.1661505560
 Ga         3.2704914865        7.4720385227       18.2273509132
  N         3.2725207610        5.5810623197       18.6014376018
  H         3.2948147861        4.9382060529       20.9126960926
  H         3.8235041390        3.2522495240       20.8214399111
  H         2.1307819997        3.6403273339       21.3082973482
  C         3.1788166142        3.9460826712       21.4007825447
  O         3.5045316168        3.9613859810       22.7904864606
  H         4.4649081345        4.0858648764       22.8664228643
     150
 i =        3, E =     -6112.5409965718
 Ga         0.0014812108       -0.0114645241       -0.5910732432
  N         0.0046159484        1.8631100024        0.5416322979
 Ga         0.0045611773        1.8313946731        2.5737994743
  N         0.0016615622       -0.0122263024        3.2049457926
 Ga         0.0026329378       -0.0128292568        5.1952406153
  N         0.0055558021        1.8618658937        5.7817221799
 Ga         0.0057633780        1.8593993821        7.7804453137
  N         0.0029771204       -0.0147284592        8.3801551850
 Ga         0.0042048928       -0.0147024335       10.3771167618
  N         0.0068491085        1.8570041205       10.9782609362
 Ga         0.0098553577        1.8563820219       12.9718441073
  N         0.0025680353       -0.0095679199       13.5825190782
 Ga         0.0054931624       -0.0104060866       15.5893849842
  N         0.0238389090        1.8542782040       16.2278932102
 Ga         0.0009164269        1.8725041446       18.3342156337
  N         0.0111592839       -0.0168391457       18.6227464711
 Ga        -1.6183608347        2.7942729372        0.2578519325
  N        -1.6197627657        4.6644118377        0.5419103619
 Ga        -1.5915197966        4.6791094254        2.5727720484
  N        -1.6179486405        2.7935473514        3.1637263335
 Ga        -1.6171276962        2.7930770501        5.1742463291
  N        -1.6168125592        4.6629559328        5.7819409901
 Ga        -1.6157788094        4.6616832926        7.7801904105
  N        -1.6173967901        2.7909373998        8.3835315245
 Ga        -1.6163873097        2.7904162895       10.3785335198
  N        -1.6111655796        4.6610537556       10.9845107145
 Ga        -1.6067203749        4.6595498641       12.9801268649
  N        -1.6080958699        2.7843115789       13.5856132735
 Ga        -1.6079080243        2.7801904831       15.5931829734
  N        -1.6197362828        4.6510563559       16.1664950683
 Ga        -1.6197182641        4.6609417202       18.2334861791
  N        -1.6268732094        2.7916162177       18.6710081324
 Ga        -3.2391596972        5.6000290443        0.2574947281
  N        -3.2323352403        7.4704935859        0.5423360785
 Ga        -3.2591564092        7.4840429736        2.5745273958
  N        -3.2378235303        5.5984475077        3.1645703088
 Ga        -3.2372869610        5.5979156244        5.1751602664
  N        -3.2312194687        7.4681710058        5.7812336036
 Ga        -3.2320174075        7.4673425697        7.7795658325
  N        -3.2354065954        5.5973724871        8.3859131638
 Ga        -3.2336803686        5.5987977063       10.3824025150
  N        -3.2316941208        7.4714896483       10.9867335543
 Ga        -3.2317623613        7.4748474831       12.9843591248
  N        -3.2330502470        5.5951566605       13.5569116568
 Ga        -3.2290414519        5.5820825084       15.5489737620
  N        -3.2286306880        7.4496268218       16.1322936463
 Ga        -3.2380932665        7.4791264386       18.1812728399
  N        -3.2279429465        5.6158366157       18.6377215572
 Ga         3.2472321257       -0.0105958208        0.2577139346
  N         3.2455979538        1.8587571078        0.5422435913
 Ga         3.2744150686        1.8738251614        2.5722783441
  N         3.2475803952       -0.0118764158        3.1635785110
 Ga         3.2483089934       -0.0123857620        5.1740520880
  N         3.2486241764        1.8576680083        5.7815151925
 Ga         3.2496627189        1.8571669679        7.7796843868
  N         3.2486648500       -0.0139522520        8.3826572621
 Ga         3.2484481753       -0.0132437238       10.3770923794
  N         3.2500831496        1.8573252144       10.9821028851
 Ga         3.2452984975        1.8586950830       12.9771584015
  N         3.2516323198       -0.0079915782       13.6047155314
 Ga         3.2665230935       -0.0128844914       15.6145064802
  N         3.2614578423        1.8753589498       16.1571413203
 Ga         3.2491853002        1.8755567464       18.2071110443
  N         3.2383872194        0.0000104727       18.6127821681
 Ga         1.6273214268        2.7948635696        0.2572709979
  N         1.6336446720        4.6651211674        0.5415640949
 Ga         1.6063193532        4.6792705892        2.5727103042
  N         1.6277458691        2.7935942108        3.1634894409
 Ga         1.6286856119        2.7929947804        5.1740527149
  N         1.6337698363        4.6630598733        5.7814349316
 Ga         1.6326946832        4.6618340502        7.7793307922
  N         1.6288288003        2.7918737687        8.3835568992
 Ga         1.6290415668        2.7928706887       10.3787669596
  N         1.6290825982        4.6638388833       10.9882497718
 Ga         1.6244458229        4.6665956938       12.9856881529
  N         1.6256082171        2.7932240295       13.5854798894
 Ga         1.6276675264        2.7918456678       15.5905215943
  N         1.6304642593        4.6792336359       16.1571367767
 Ga         1.6286661659        4.6651466819       18.2019574773
  N         1.6377451432        2.7970252871       18.6456273964
 Ga         0.0071047800        5.6010173364       -0.6012069654
  N         0.0106940699        7.4750516303        0.5419076944
 Ga         0.0105227755        7.4421556416        2.5726062391
  N         0.0076919051        5.5985493136        3.2039184665
 Ga         0.0085530733        5.5982131910        5.1940694422
  N         0.0117101722        7.4725496134        5.7812096980
 Ga         0.0115844743        7.4697780656        7.7790675044
  N         0.0089033730        5.5966037633        8.3810110729
 Ga         0.0089507409        5.5969607252       10.3769956790
  N         0.0106394696        7.4684858047       10.9857054301
 Ga         0.0074316797        7.4702082040       12.9813847405
  N         0.0042186774        5.6054267483       13.6057234583
 Ga         0.0055786356        5.6055415156       15.6147551345
  N         0.0165121892        7.4694178072       16.2520742434
 Ga         0.0082205909        7.4797718825       18.3699198054
  N         0.0124435530        5.5832696494       18.6099638914
 Ga         6.4923406225       -0.0101268616        0.2581534166
  N         6.4994984503        1.8591531809        0.5431491488
 Ga         6.4712922074        1.8739382900        2.5728845798
  N         6.4927103988       -0.0120952857        3.1634813598
 Ga         6.4937259273       -0.0125469738        5.1737135579
  N         6.4990625287        1.8574572086        5.7811986545
 Ga         6.4979582930        1.8567544062        7.7791534968
  N         6.4933631787       -0.0140685254        8.3841007738
 Ga         6.4936707231       -0.0136280384       10.3790884739
  N         6.4985647277        1.8567859909       10.9857704033
 Ga         6.5021330918        1.8515910313       12.9827278870
  N         6.4880404222       -0.0206519410       13.5984330251
 Ga         6.4882581759       -0.0226894054       15.6049071644
  N         6.4941378721        1.8622088946       16.1367052976
 Ga         6.4984330731        1.8659892161       18.1881161762
  N         6.5134156837       -0.0072538683       18.6106362757
 Ga         4.8736200726        2.7959586759       -0.6068801419
  N         4.8759467347        4.6699871589        0.5432508844
 Ga         4.8759611325        4.6371017135        2.5727312197
  N         4.8730645987        2.7935795925        3.2044089921
 Ga         4.8740293005        2.7937072284        5.1945635786
  N         4.8769537484        4.6674439074        5.7842761086
 Ga         4.8770836548        4.6648340774        7.7838777792
  N         4.8744591422        2.7904420899        8.3822691301
 Ga         4.8752667104        2.7904049503       10.3796904372
  N         4.8769305378        4.6643980649       10.9742508350
 Ga         4.8751447850        4.6660237032       12.9663848300
  N         4.8736822204        2.7911079861       13.5569498227
 Ga         4.8838979369        2.7911748135       15.5457903488
  N         4.8916700230        4.6531304256       16.1293575996
 Ga         4.9131407327        4.6678352301       18.1692655203
  N         4.8775249560        2.7913012208       18.6504420221
 Ga         3.2540854467        5.5993844818        0.2572541481
  N         3.2528564831        7.4697990790        0.5422238754
 Ga         3.2805206971        7.4838707383        2.5743206955
  N         3.2535636286        5.5984255064        3.1645363050
 Ga         3.2549774113        5.5979674150        5.1750593399
  N         3.2543763419        7.4681684772        5.7817383815
 Ga         3.2555430301        7.4674669599        7.7802225883
  N         3.2529518662        5.5970876422        8.3850170709
 Ga         3.2524276794        5.5982972449       10.3806861421
  N         3.2572322570        7.4707642499       10.9842973147
 Ga         3.2562754973        7.4737523302       12.9806848822
  N         3.2534301298        5.5994605157       13.5755889226
 Ga         3.2660092699        5.5888127418       15.5731442207
  N         3.2543722277        7.4670774804       16.1663903138
 Ga         3.2702760576        7.4715037913       18.2271862997
  N         3.2771999208        5.5807641370       18.5974034531
  H         3.2921698886        4.9397342637       20.9144562798
  H         3.8241142097        3.2552142798       20.8199021718
  H         2.1303741586        3.6375082379       21.3113804096
  C         3.1777488443        3.9466200749       21.4007013602
  O         3.5086045139        3.9617270019       22.7890960950
  H         4.4685905980        4.0900637575       22.8634399116
     150
 i =        4, E =     -6112.5410915582
 Ga         0.0016264787       -0.0118189966       -0.5935695551
  N         0.0047434901        1.8631067367        0.5420248999
 Ga         0.0045622463        1.8311743377        2.5737377545
  N         0.0016573577       -0.0123784305        3.2051395778
 Ga         0.0025599124       -0.0128518910        5.1951680844
  N         0.0054808321        1.8617979809        5.7817896834
 Ga         0.0057214151        1.8594949163        7.7802277865
  N         0.0028729778       -0.0145518731        8.3806165142