     212
 i =        1, E =     -8504.7172065514
  N        -0.0023419481        2.0426351831        2.5052600620
 Ga        -0.0198218336        0.0899988824        2.8377127188
  N        -0.0024209404        0.0475299942        5.0205282445
 Ga        -0.0025908086        1.8775739404        5.7948980603
  N        -0.0028675916        1.8908368494        7.7981695983
 Ga        -0.0045642267        0.0469389016        8.4439991715
  N        -0.0030847833        0.0443139447       10.4190084733
 Ga        -0.0030112333        1.8844350283       11.0697134298
  N        -0.0028421100        1.8640851658       13.0641911692
 Ga        -0.0025997929        0.0436532603       13.8681311875
  N        -0.0023572171        0.0429262486       16.0697173530
 Ga         0.0012905298        2.0837895097       16.4829529898
 Ga        -0.0326288053        3.7332223162        1.3243816291
  N        -1.4839978002        4.6307016271        2.5026366897
 Ga        -1.6765399284        2.7846762099        3.2692055900
  N        -1.6127930077        2.8336169735        5.2517306426
 Ga        -1.6399034886        4.6968331877        5.8058950321
  N        -1.6208670477        4.6956953631        7.8010650635
 Ga        -1.6011257188        2.8343073644        8.4345908882
  N        -1.6002692362        2.8365907844       10.4305406977
 Ga        -1.6264243786        4.6941384252       11.0726935937
  N        -1.6429233918        4.7044646399       13.0657281569
 Ga        -1.5998668976        2.8353193814       13.6229155317
  N        -1.6266447719        2.8185069784       15.5854849476
 Ga        -1.4458530224        4.5916664200       16.4834606858
  N        -0.0015450819        3.7518887671       17.6185394067
  N        -3.2115776173        7.5952707084        2.5174898076
 Ga        -3.1906732486        5.5872687141        2.8508262061
  N        -3.2179673259        5.6176448481        5.0183633891
 Ga        -3.2254104874        7.4356858621        5.8085945770
  N        -3.2174251257        7.4628944664        7.7987177195
 Ga        -3.2187523922        5.6151652997        8.4503096212
  N        -3.2190953454        5.6163485414       10.4219801240
 Ga        -3.2202443936        7.4548016476       11.0750488480
  N        -3.2191182495        7.4349932474       13.0668667580
 Ga        -3.2192518846        5.6140916092       13.8707451229
  N        -3.2182259648        5.6133913636       16.0700802497
 Ga        -3.2150921427        7.6562721882       16.4842574652
 Ga        -3.2472600820        9.3487221909        1.4920970608
  N        -4.7273990601       10.2011376909        2.5230147167
 Ga        -4.9390263783        8.3460403027        3.2883628640
  N        -4.8256498448        8.4016646962        5.2496283635
 Ga        -4.8591216708       10.2777743427        5.8016171416
  N        -4.8362618977       10.2631031488        7.7980362266
 Ga        -4.8194346442        8.4078825453        8.4392556369
  N        -4.8154575562        8.4067395876       10.4316250736
 Ga        -4.8425082924       10.2663310444       11.0708966577
  N        -4.8584662370       10.2747996211       13.0641239598
 Ga        -4.8165929613        8.4065685925       13.6240648796
  N        -4.8438397255        8.3890399198       15.5857359241
 Ga        -4.6604781632       10.1616479784       16.4844379749
  N        -3.2179614857        9.3229052693       17.6169151826
  N         3.2005633417        1.9128716047        2.6123954983
 Ga         3.2020290920        0.1748316881        3.2913441862
  N         3.2142916115        0.0448830131        5.2526954115
 Ga         3.2036237386        1.9108822675        5.8745333907
  N         3.2135066377        1.9010263176        7.8508410259
 Ga         3.2111822108        0.0358599401        8.4410330172
  N         3.2137212300        0.0315846718       10.4329180681
 Ga         3.2130940198        1.9017317870       11.0279029537
  N         3.2140503924        1.9006470030       12.9986337510
 Ga         3.2130578778        0.0317935256       13.6228634822
  N         3.2152527348        0.0635200384       15.5830754105
 Ga         3.2141396611        1.9005140260       15.8654158101
  N         1.4709519337        4.6131025531        2.4841867622
 Ga         1.6682958377        2.7977750291        3.2678782531
  N         1.6039763668        2.8333071281        5.2529335996
 Ga         1.6475609740        4.7029974347        5.7999266516
  N         1.6112936285        4.6931050999        7.8011386012
 Ga         1.5941598162        2.8356984270        8.4377918735
  N         1.5945887944        2.8359796379       10.4327935501
 Ga         1.6213943283        4.6946856289       11.0718004439
  N         1.6376602333        4.7046670029       13.0656864101
 Ga         1.5947508080        2.8352257376       13.6209562590
  N         1.6242961589        2.8192580881       15.5811946967
 Ga         1.4441072748        4.5891253973       16.4842779730
  N         0.0024066959        7.4631655168        2.6952789874
 Ga         0.0146607540        5.5998662161        3.3249443079
  N        -0.0038419300        5.6295849368        5.2633841226
 Ga         0.0061231312        7.4666052913        5.9062668024
  N        -0.0025384037        7.4746162296        7.8644195766
 Ga        -0.0020488891        5.6004084808        8.4473853664
  N        -0.0033414170        5.6029725989       10.4372843112
 Ga        -0.0022265658        7.4719575931       11.0316225854
  N        -0.0020806582        7.4717405107       13.0010667609
 Ga        -0.0026031403        5.6016202352       13.6230249167
  N        -0.0005142913        5.6330128141       15.5838251247
 Ga        -0.0015411227        7.4705169803       15.8657388925
  N        -1.7140787053       10.1912166078        2.5208478860
 Ga        -1.5815862542        8.3823567461        3.3361237559
  N        -1.5973451772        8.3949802286        5.2605292980
 Ga        -1.5849640070       10.2823455248        5.8128622479
  N        -1.6015293578       10.2615489579        7.8016920485
 Ga        -1.6224680468        8.4078404128        8.4504135814
  N        -1.6224423780        8.4072475209       10.4376710273
 Ga        -1.5962939771       10.2673184418       11.0746205262
  N        -1.5787236609       10.2754464889       13.0665429467
 Ga        -1.6215365725        8.4064513302       13.6230759053
  N        -1.5906941699        8.3893419775       15.5821909791
 Ga        -1.7736237114       10.1592875421       16.4852677709
  N         6.4247826201        2.0284777511        2.5397893429
 Ga         6.4413314106        0.0519718877        2.8727668669
  N         6.4262161011        0.0467704607        5.0262931604
 Ga         6.4281247452        1.8773307029        5.8072078804
  N         6.4289620340        1.8905233093        7.8017389795
 Ga         6.4306050146        0.0461650844        8.4500124800
  N         6.4295003338        0.0443834164       10.4216188764
 Ga         6.4302150291        1.8855017574       11.0710762772
  N         6.4298301708        1.8647341996       13.0647152674
 Ga         6.4302568751        0.0446654087       13.8698871003
  N         6.4282720826        0.0416780959       16.0703197675
 Ga         6.4335448770        2.0825118110       16.4813902952
 Ga         6.4415658491        3.7528258600        1.5260176608
  N         4.9313928771        4.6274458759        2.5176218301
 Ga         4.7052056066        2.7782999135        3.3031610908
  N         4.8211329529        2.8326191064        5.2617023277
 Ga         4.7828375886        4.7101000237        5.8040735158
  N         4.8148182058        4.6920321293        7.8029756401
 Ga         4.8297431654        2.8364976576        8.4405832884
  N         4.8325319432        2.8359082531       10.4335607286
 Ga         4.8070412183        4.6960430559       11.0696044306
  N         4.7907019413        4.7044585300       13.0638832396
 Ga         4.8322388868        2.8357856822       13.6227680144
  N         4.8069066467        2.8196832619       15.5855476195
 Ga         4.9853936281        4.5925529306       16.4817821820
  N         6.4311341294        3.7524493654       17.6194908324
  N         3.2138873413        7.5955711108        2.4905813586
  N         3.2157397369        5.6169827190        5.0322388353
 Ga         3.2195644600        7.4262104022        5.8002650231
  N         3.2117952856        7.4672288634        7.7983838146
 Ga         3.2127936547        5.6167166400        8.4415931089
  N         3.2134340615        5.6165564725       10.4181250605
 Ga         3.2153557745        7.4550042138       11.0723630283
  N         3.2139636304        7.4357139415       13.0657306786
 Ga         3.2147233853        5.6144555611       13.8687370431
  N         3.2118990973        5.6123524909       16.0707501720
 Ga         3.2177211233        7.6522235325       16.4817236836
 Ga         3.2425688706        9.3643730880        1.3548708248
  N         1.6984628189       10.1924554915        2.5138067890
 Ga         1.6087302756        8.3878767551        3.3124313364
  N         1.5959628396        8.3978222225        5.2498652688
 Ga         1.5812064731       10.2796799115        5.8051761559
  N         1.5945574552       10.2619376477        7.7981472295
 Ga         1.6190971123        8.4089736573        8.4486078658
  N         1.6166474436        8.4078845203       10.4372187504
 Ga         1.5917845805       10.2676761554       11.0729830113
  N         1.5742279010       10.2752710220       13.0655605989
 Ga         1.6166907398        8.4066367053       13.6242525661
  N         1.5914346259        8.3902374357       15.5869999397
 Ga         1.7684904253       10.1638467389       16.4818211072
  N         3.2153132273        9.3230943516       17.6220035190
  N         9.6554032086        1.9050221088        2.6272180704
 Ga         9.6506667152        0.1467678590        3.2645842194
  N         9.6424080319        0.0422684344        5.2424085325
 Ga         9.6526210403        1.9005241441        5.8665762955
  N         9.6449620169        1.9008606684        7.8461168370
 Ga         9.6475091661        0.0347875261        8.4351670347
  N         9.6455672644        0.0318253646       10.4297285259
 Ga         9.6460760122        1.9012984697       11.0258657084
  N         9.6460302238        1.9004898447       12.9976900630
 Ga         9.6464724700        0.0318122873       13.6222540808
  N         9.6480350559        0.0606672446       15.5837901238
 Ga         9.6457186233        1.8996230828       15.8628725968
  N         7.9308612892        4.6290433015        2.5360005924
 Ga         8.1492600844        2.7696792688        3.3004636090
  N         8.0370176541        2.8308743159        5.2597975087
 Ga         8.0629176481        4.7029716666        5.8026665425
  N         8.0483078573        4.6948873656        7.7985453907
 Ga         8.0298593475        2.8359042792        8.4366639452
  N         8.0270641630        2.8367058896       10.4308651530
 Ga         8.0518049000        4.6950686477       11.0714031468
  N         8.0692267759        4.7045575636       13.0645581726
 Ga         8.0275269238        2.8357704428       13.6209864243
  N         8.0556023921        2.8198953012       15.5814833682
 Ga         7.8789594592        4.5909047553       16.4818462102
  N         6.4218831446        7.4734043211        2.6027813266
 Ga         6.4254261679        5.7386844753        3.3020956096
  N         6.4284343710        5.6162243486        5.2597311186
 Ga         6.4205366412        7.4763142017        5.8715686702
  N         6.4292672830        7.4744023362        7.8466479857
 Ga         6.4294431908        5.6058357124        8.4383692456
  N         6.4305676873        5.6037165533       10.4316339694
 Ga         6.4293359086        7.4725028961       11.0271778677
  N         6.4299582155        7.4716018565       12.9980617473
 Ga         6.4299259577        5.6025125406       13.6221918287
  N         6.4314802466        5.6317806704       15.5834929797
 Ga         6.4292046303        7.4702544384       15.8637969437
  N         4.7219632872       10.2011004939        2.5122122416
 Ga         4.9030271915        8.3566913320        3.2663805453
  N         4.8156090008        8.4040230532        5.2424717453
 Ga         4.8477453866       10.2754423049        5.7928814979
  N         4.8308830579       10.2633604926        7.7939312608
 Ga         4.8116922236        8.4091681263        8.4370213374
  N         4.8110522236        8.4074060071       10.4308994100
 Ga         4.8361040531       10.2661181476       11.0700224249
  N         4.8530454870       10.2749419998       13.0636646640
 Ga         4.8117070699        8.4067605287       13.6215055708
  N         4.8388795943        8.3909059420       15.5821704481
 Ga         4.6638365466       10.1619555325       16.4818882162
  O        -0.0201779747        3.7454749007       -0.4919937764
  H        -0.0016995192        7.4533508422        1.6689859604
  C         0.6096296782        2.6227384237       -1.1247385241
  H         1.6777044663        2.5327710824       -0.8617074458
  H         0.1239185215        1.6673051071       -0.8659208345
  H         0.5324703696        2.7674018592       -2.2120904455
 Ga         3.2025996035        5.6036090277        2.5909245691
  O         3.1746201495        5.6010990405        0.1881539215
  H         3.2441487875        4.6839545951       -0.1355126337
  C         4.1912539205        6.3807640234       -0.4931199328
  H         3.7678638006        7.3939032330       -0.6172746527
  H         5.1116778357        6.4683174273        0.0993878004
  H         4.3849588046        5.9839531947       -1.4974955140
     212
 i =        2, E =     -8504.7182069597
  N        -0.0038173611        2.0421190822        2.5042436294
 Ga        -0.0175549920        0.0919219933        2.8409962110
  N        -0.0030469740        0.0475858308        5.0199071166
 Ga        -0.0016692811        1.8794534942        5.7957182370
  N        -0.0031151284        1.8904204171        7.7974478507
 Ga        -0.0042031948        0.0470790291        8.4452667776
  N        -0.0029089805        0.0444116565       10.4187652167
 Ga        -0.0030252033        1.8846247535       11.0705500805
  N        -0.0025484612        1.8638986163       13.0635470438
 Ga        -0.0029265658        0.0440136340       13.8704488443
  N        -0.0016324409        0.0432028773       16.0685277610
 Ga         0.0015007191        2.0860191296       16.4844078502
 Ga        -0.0341445153        3.7339476780        1.3254588376
  N        -1.4844440757        4.6296890254        2.5019846750
 Ga        -1.6772096131        2.7845811605        3.2698110446
  N        -1.6130536451        2.8333445301        5.2505650470
 Ga        -1.6373225450        4.6971259082        5.8060183837
  N        -1.6210381101        4.6956072354        7.8000554468
 Ga        -1.6010727600        2.8343930709        8.4355441871
  N        -1.6003290856        2.8366202255       10.4299945564
 Ga        -1.6262128566        4.6941412079       11.0737427581
  N        -1.6429094972        4.7046410078       13.0655798475
 Ga        -1.5994767295        2.8352291686       13.6234622157
  N        -1.6271912189        2.8175482309       15.5846729199
 Ga        -1.4447809758        4.5912597683       16.4849113844
  N        -0.0045457532        3.7521029174       17.6170577700
  N        -3.2116161219        7.5952697209        2.5170051748
 Ga        -3.1889125701        5.5873231345        2.8545481195
  N        -3.2177497469        5.6173024426        5.0189458492
 Ga        -3.2256454627        7.4362727108        5.8090560017
  N        -3.2175824671        7.4628604282        7.7978072083
 Ga        -3.2184475880        5.6151431230        8.4512915176
  N        -3.2188418692        5.6162421384       10.4216696637
 Ga        -3.2203866535        7.4547350598       11.0756874153
  N        -3.2188241931        7.4347209243       13.0663245407
 Ga        -3.2192539515        5.6139655434       13.8727118250
  N        -3.2174361368        5.6134862859       16.0689420942
 Ga        -3.2147284390        7.6576276224       16.4853568187
 Ga        -3.2467870271        9.3485538749        1.4921959753
  N        -4.7275344851       10.2012149092        2.5222973261
 Ga        -4.9396373750        8.3451877004        3.2866476880
  N        -4.8265440774        8.4011341868        5.2465164370
 Ga        -4.8582959046       10.2771120664        5.8014710971
  N        -4.8363285320       10.2631129828        7.7965422743
 Ga        -4.8195467779        8.4078685381        8.4399437024
  N        -4.8156800526        8.4067936597       10.4309608455
 Ga        -4.8425090485       10.2662485877       11.0720710498
  N        -4.8586297104       10.2751602198       13.0641975653
 Ga        -4.8161544128        8.4066008357       13.6246211372
  N        -4.8439023936        8.3882203442       15.5852393646
 Ga        -4.6604108274       10.1618372950       16.4853608751
  N        -3.2209478774        9.3232557573       17.6154284723
  N         3.2015415177        1.9159269896        2.6090672766
 Ga         3.2022009815        0.1768473932        3.2896121011
  N         3.2141901220        0.0456477770        5.2497061191
 Ga         3.2036331430        1.9110088205        5.8763690578
  N         3.2133709986        1.9013372284        7.8509432600
 Ga         3.2111343799        0.0361061657        8.4417802978
  N         3.2134822097        0.0315780253       10.4322118152
 Ga         3.2128991490        1.9019678640       11.0280832989
  N         3.2143475313        1.9007075743       12.9972460302
 Ga         3.2135104377        0.0321353382       13.6235271174
  N         3.2167059481        0.0641526302       15.5824502853
 Ga         3.2153016410        1.9007182887       15.8655375939
  N         1.4664471234        4.6084857529        2.4786224560
 Ga         1.6676887906        2.7976245937        3.2684319393
  N         1.6053008373        2.8334597565        5.2502962473
 Ga         1.6512351467        4.7045052186        5.8005255808
  N         1.6113681291        4.6930359722        7.8022566868
 Ga         1.5937464916        2.8363437744        8.4385233022
  N         1.5943015356        2.8359439912       10.4321251046
 Ga         1.6215577259        4.6949054345       11.0714819318
  N         1.6379881954        4.7047275190       13.0639737991
 Ga         1.5952655510        2.8354060738       13.6213131861
  N         1.6258735568        2.8192033171       15.5798337642
 Ga         1.4412029226        4.5874543383       16.4861171971
  N         0.0040600917        7.4621671506        2.6944499574
 Ga         0.0155843902        5.5989036455        3.3242620942
  N        -0.0016791351        5.6302623208        5.2603232626
 Ga         0.0059374033        7.4660944357        5.9068844468
  N        -0.0021163807        7.4743686048        7.8636031190
 Ga        -0.0016368437        5.5998473803        8.4478190995
  N        -0.0035531893        5.6028238396       10.4364277566
 Ga        -0.0023015665        7.4717193151       11.0317906898
  N        -0.0018810461        7.4718092745       12.9995727497
 Ga        -0.0019382807        5.6017514476       13.6233985736
  N         0.0007759651        5.6341467554       15.5827143881
 Ga        -0.0004302575        7.4707683986       15.8662432686
  N        -1.7138392876       10.1910512908        2.5206507903
 Ga        -1.5808761358        8.3813722417        3.3357389634
  N        -1.5971824236        8.3947847560        5.2588717116
 Ga        -1.5858256434       10.2819600619        5.8131312285
  N        -1.6014826332       10.2617535496        7.8006366125
 Ga        -1.6221570461        8.4076483813        8.4505851985
  N        -1.6225825207        8.4072128460       10.4365926382
 Ga        -1.5963945671       10.2673233059       11.0750146460
  N        -1.5784975809       10.2754800759       13.0655398581
 Ga        -1.6209042009        8.4063760927       13.6235728121
  N        -1.5894938558        8.3895707772       15.5811256740
 Ga        -1.7756512103       10.1579936244       16.4866818659
  N         6.4262105087        2.0269241193        2.5401786691
 Ga         6.4396443291        0.0522744260        2.8763199491
  N         6.4269721615        0.0465760533        5.0260075161
 Ga         6.4271724312        1.8790632692        5.8075685282
  N         6.4292465684        1.8900790540        7.8007904967
 Ga         6.4304951905        0.0461979085        8.4512436212
  N         6.4297308203        0.0444282367       10.4215126077
 Ga         6.4299251931        1.8856754679       11.0717870233
  N         6.4300281083        1.8645302799       13.0641653321
 Ga         6.4299723038        0.0446484422       13.8713737737
  N         6.4285984747        0.0416954795       16.0692975783
 Ga         6.4337608514        2.0822911611       16.4820968262
 Ga         6.4482831962        3.7493532824        1.5244988138
  N         4.9331977266        4.6260175310        2.5091933968
 Ga         4.7064186604        2.7804545174        3.3025434116
  N         4.8198786459        2.8325441802        5.2586078418
 Ga         4.7800878848        4.7120211323        5.8030680547
  N         4.8149784888        4.6919440420        7.8031485319
 Ga         4.8300422259        2.8368712321        8.4414830794
  N         4.8325591535        2.8358753102       10.4331064836
 Ga         4.8067180210        4.6961191309       11.0697492423
  N         4.7903820758        4.7046979843       13.0632558258
 Ga         4.8324040547        2.8358032057       13.6229749464
  N         4.8084810065        2.8197550940       15.5853411157
 Ga         4.9840201222        4.5933735150       16.4823308162
  N         6.4280088036        3.7525631673       17.6224071545
  N         3.2138719451        7.6015127500        2.4837447127
  N         3.2153476227        5.6173386617        5.0378231773
 Ga         3.2203122291        7.4222824559        5.8004808102
  N         3.2119411117        7.4674334566        7.7990274749
 Ga         3.2127649017        5.6165267592        8.4423536434
  N         3.2135027000        5.6164667572       10.4180155696
 Ga         3.2151068436        7.4545477035       11.0722529926
  N         3.2141239038        7.4353392019       13.0645663524
 Ga         3.2141074195        5.6143771432       13.8699564898
  N         3.2121494126        5.6122250130       16.0695239197
 Ga         3.2177807839        7.6524239904       16.4827840889
 Ga         3.2401064425        9.3709116416        1.3698629313
  N         1.6989712036       10.1932459260        2.5138439637
 Ga         1.6082910968        8.3853282255        3.3133711211
  N         1.5961577394        8.3962201825        5.2473787550
 Ga         1.5819639595       10.2774745108        5.8059680337
  N         1.5944778137       10.2622960144        7.7972130377
 Ga         1.6194692606        8.4088318934        8.4494503674
  N         1.6165094090        8.4080349392       10.4366393605
 Ga         1.5917712132       10.2673668616       11.0740991070
  N         1.5742031462       10.2754090339       13.0655551838
 Ga         1.6169465136        8.4063043535       13.6245667532
  N         1.5926652248        8.3903172999       15.5866722068
 Ga         1.7676544415       10.1643550978       16.4827666736
  N         3.2121931348        9.3233548697       17.6243783070
  N         9.6551381160        1.9057511676        2.6233018898
 Ga         9.6509678471        0.1508798206        3.2676881529
  N         9.6425235713        0.0423603106        5.2419501611
 Ga         9.6529622982        1.9010543607        5.8677628350
  N         9.6450753467        1.9006876548        7.8452462806
 Ga         9.6474290299        0.0349588507        8.4365240746
  N         9.6454193374        0.0317626828       10.4293545932
 Ga         9.6459719490        1.9014643932       11.0261841717
  N         9.6459714374        1.9004505921       12.9967069571
 Ga         9.6470065223        0.0318168275       13.6227459228
  N         9.6489928554        0.0601175981       15.5834010628
 Ga         9.6461330989        1.8994571447       15.8622457585
  N         7.9329004287        4.6294243285        2.5368356104
 Ga         8.1502397531        2.7696508984        3.3017697739
  N         8.0376638245        2.8305230972        5.2591271598
 Ga         8.0616756574        4.7029532202        5.8037680447
  N         8.0488607645        4.6947922496        7.7981714575
 Ga         8.0299237426        2.8357911707        8.4374896186
  N         8.0268493354        2.8367252107       10.4301859942
 Ga         8.0517795938        4.6952674183       11.0717202435
  N         8.0696368504        4.7046332601       13.0634838242
 Ga         8.0277861498        2.8359209412       13.6212233530
  N         8.0553754355        2.8205462746       15.5807799151
 Ga         7.8786622886        4.5905605318       16.4823715411
  N         6.4209494653        7.4713136046        2.5980550872
 Ga         6.4242319588        5.7364766473        3.3016036951
  N         6.4286588158        5.6174125225        5.2566949671
 Ga         6.4208166212        7.4760810142        5.8734874723
  N         6.4288178903        7.4743695423        7.8466503080
 Ga         6.4292469938        5.6051681225        8.4391982388
  N         6.4305240613        5.6036964529       10.4311889322
 Ga         6.4291871022        7.4723455947       11.0277096892
  N         6.4299878033        7.4715261111       12.9975067230
 Ga         6.4302368263        5.6021534109       13.6223067009
  N         6.4326245313        5.6309399399       15.5830430178
 Ga         6.4296746796        7.4700341350       15.8628235722
  N         4.7225307209       10.2023074998        2.5122950367
 Ga         4.9038515112        8.3545057169        3.2675090633
  N         4.8165342104        8.4038328790        5.2395501777
 Ga         4.8472390290       10.2742484121        5.7947348031
  N         4.8310861772       10.2638719126        7.7935510396
 Ga         4.8110545959        8.4092606886        8.4382649579
  N         4.8110014655        8.4075278126       10.4306415422
 Ga         4.8362120724       10.2661859690       11.0706017897
  N         4.8534663339       10.2751132203       13.0626859365
 Ga         4.8116846825        8.4068903198       13.6217131000
  N         4.8388982691        8.3914485393       15.5813857795
 Ga         4.6631035871       10.1615687474       16.4827348016
  O        -0.0186887419        3.7441724666       -0.4935571171
  H        -0.0015389398        7.4523413225        1.6682472745
  C         0.6103076733        2.6224512611       -1.1244160089
  H         1.6790363471        2.5308896945       -0.8620508852
  H         0.1242353619        1.6669043477       -0.8661596243
  H         0.5327305521        2.7671713495       -2.2120898243
 Ga         3.1845344760        5.6009287174        2.5935449714
  O         3.1779791453        5.6068754142        0.1777653769
  H         3.2292039880        4.6786354456       -0.1137457487
  C         4.1916041983        6.3911595180       -0.4990800040
  H         3.7655387767        7.4000605516       -0.6162030449
  H         5.1156118033        6.4592137802        0.0957613782
  H         4.3945151125        5.9779947292       -1.4934180094
     212
 i =        3, E =     -8504.7188073509
  N        -0.0063366249        2.0409773444        2.5044865482
 Ga        -0.0148413635        0.0931596592        2.8444611895
  N        -0.0034812347        0.0478843031        5.0182938693
 Ga        -0.0007549100        1.8813524049        5.7961792840
  N        -0.0030868985        1.8905562567        7.7959271645
 Ga        -0.0036305835        0.0472845402        8.4457892718
  N        -0.0026679791        0.0445753873       10.4176192856
 Ga        -0.0029931551        1.8847543128       11.0721006978
  N        -0.0020084608        1.8637909253       13.0630355882
 Ga        -0.0028181312        0.0445589435       13.8744876454
  N        -0.0002891266        0.0432990681       16.0674810929
 Ga         0.0002490645        2.0888636480       16.4859492829
 Ga        -0.0364724486        3.7333500637        1.3263308427
  N        -1.4862286476        4.6275838321        2.5008592935
 Ga        -1.6783435718        2.7841384535        3.2708061224
  N        -1.6131116286        2.8332336154        5.2494048709
 Ga        -1.6346265049        4.6973646861        5.8058701305
  N        -1.6204176799        4.6955519329        7.7981776994
 Ga        -1.6009196456        2.8346468569        8.4364750282
  N        -1.6002596137        2.8367853271       10.4289246993
 Ga        -1.6260140984        4.6942997010       11.0754512680
  N        -1.6426654226        4.7049516242       13.0654152914
 Ga        -1.5989243204        2.8352808100       13.6238280031
  N        -1.6282797836        2.8165644171       15.5824330302
 Ga        -1.4434276014        4.5898428580       16.4866707465
  N        -0.0065879220        3.7524410673       17.6148782408
  N        -3.2108794258        7.5954528295        2.5170101570
 Ga        -3.1884088958        5.5875132583        2.8587215031
  N        -3.2166699201        5.6170738023        5.0190196495
 Ga        -3.2260153416        7.4367966053        5.8086513419
  N        -3.2177704574        7.4629548110        7.7958342177
 Ga        -3.2178834175        5.6150950918        8.4514394111
  N        -3.2184618011        5.6161461844       10.4203967850
 Ga        -3.2204078391        7.4545977289       11.0767703006
  N        -3.2182830149        7.4344312636       13.0657248184