     212
 i =        1, E =     -8504.6567315996
  N         0.0711313094        1.9736058268        2.4686082650
 Ga         0.0794648627        0.0046650957        2.8390446087
  N         0.0808624525       -0.0259041205        5.0175752407
 Ga         0.0824217770        1.7961079934        5.8008741743
  N         0.0763664745        1.8157358483        7.7970438642
 Ga         0.0764930278       -0.0308959445        8.4422676657
  N         0.0783170753       -0.0310339653       10.4155749563
 Ga         0.0786454822        1.8082291353       11.0736195802
  N         0.0794575763        1.7899592351       13.0654763726
 Ga         0.0793219491       -0.0299091928       13.8807021260
  N         0.0795781018       -0.0299789760       16.0701287314
 Ga         0.0795912268        2.0144188323       16.4940669317
 Ga         0.0661306892        3.7124751892        1.3533093966
  N        -1.4181527762        4.5386786326        2.5243435518
 Ga        -1.5534993232        2.7275675021        3.2999985214
  N        -1.5475338245        2.7420838570        5.2560824490
 Ga        -1.5588133128        4.6211934660        5.8088847495
  N        -1.5400659027        4.6136691869        7.7999596466
 Ga        -1.5172907728        2.7577170062        8.4440155947
  N        -1.5184651812        2.7601442342       10.4317791033
 Ga        -1.5434989086        4.6182720646       11.0718840623
  N        -1.5593584568        4.6301240600       13.0612472649
 Ga        -1.5179159954        2.7618402736       13.6247975274
  N        -1.5477691340        2.7492738922       15.5825844255
 Ga        -1.3543270497        4.5124745525       16.4948910074
  N         0.0794436324        3.6735590776       17.6345454482
  N        -3.1391451086        7.5239565911        2.5297790408
 Ga        -3.1036393466        5.5326346721        2.8534511525
  N        -3.1378748738        5.5384307063        5.0216685476
 Ga        -3.1440948088        7.3614910498        5.8057473327
  N        -3.1393090102        7.3867011581        7.7951008737
 Ga        -3.1378155593        5.5388088522        8.4483617994
  N        -3.1376816559        5.5400514963       10.4187546147
 Ga        -3.1383521649        7.3806011155       11.0729470659
  N        -3.1364007568        7.3616173597       13.0618864164
 Ga        -3.1282627005        5.5449168448       13.8658456077
  N        -3.1348394028        5.5413968746       16.0664629555
 Ga        -3.1355456519        7.5978158452       16.4957280131
 Ga        -3.1364256673        9.2483281641        1.4610459453
  N        -4.6371042159       10.1143538020        2.4995719007
 Ga        -4.8200239568        8.2930130458        3.2943370671
  N        -4.7621981864        8.3168297677        5.2429081360
 Ga        -4.7763773799       10.2013258275        5.7982976944
  N        -4.7556097910       10.1855040404        7.7924304954
 Ga        -4.7359041459        8.3340883623        8.4432295978
  N        -4.7346650931        8.3321612157       10.4308464272
 Ga        -4.7612076942       10.1915538067       11.0743312369
  N        -4.7763587544       10.2007742446       13.0659498635
 Ga        -4.7334691557        8.3315963683       13.6260253977
  N        -4.7594049094        8.3120264749       15.5835970900
 Ga        -4.5818912376       10.0887706210       16.4949645984
  N        -3.1451278321        9.2589691947       17.6356454905
  N         3.2858962339        1.8303251704        2.6213398848
 Ga         3.2857786709        0.0868241392        3.2883407245
  N         3.2951142888       -0.0343254846        5.2514011841
 Ga         3.2871515821        1.8283107844        5.8750593446
  N         3.2954900912        1.8253085795        7.8501675056
 Ga         3.2924787193       -0.0415361175        8.4406664516
  N         3.2943926159       -0.0429895765       10.4310706185
 Ga         3.2953966382        1.8266477064       11.0287782952
  N         3.2967740791        1.8272583049       12.9983044396
 Ga         3.2964553576       -0.0429266338       13.6262746918
  N         3.3003858258       -0.0097671172       15.5839911384
 Ga         3.2922343691        1.8251052374       15.8658493175
  N         1.5667431885        4.5432212882        2.5300087757
 Ga         1.7543505880        2.7164425432        3.2659419055
  N         1.6852010488        2.7531748488        5.2497910774
 Ga         1.7212567994        4.6196421303        5.8089036153
  N         1.6968006815        4.6159410632        7.8034605940
 Ga         1.6760239212        2.7573828680        8.4410115116
  N         1.6761314339        2.7598228446       10.4322717584
 Ga         1.7023880525        4.6192413667       11.0712425350
  N         1.7188075054        4.6305223197       13.0614573104
 Ga         1.6766137596        2.7623544941       13.6253946797
  N         1.7073361816        2.7492366857       15.5831799225
 Ga         1.5140526736        4.5124288786       16.4952903557
  N         0.0832757027        7.3836382053        2.6841494033
 Ga         0.0871731665        5.5474771678        3.3274462938
  N         0.0785698698        5.5490169210        5.2684769935
 Ga         0.0871118461        7.3940508309        5.9034322331
  N         0.0800029337        7.3979132440        7.8623766339
 Ga         0.0790846355        5.5244961416        8.4455396373
  N         0.0785014180        5.5270912214       10.4331710667
 Ga         0.0802147368        7.3972294883       11.0300087917
  N         0.0798065562        7.3975244249       12.9981014074
 Ga         0.0797234716        5.5275626444       13.6248673281
  N         0.0799339357        5.5591635160       15.5823129439
 Ga         0.0802869847        7.3976287036       15.8606988323
  N        -1.6448304304       10.1061061705        2.5257519921
 Ga        -1.4844582880        8.2942120815        3.3309354467
  N        -1.5194543669        8.3184846463        5.2616500920
 Ga        -1.5022672618       10.2042455555        5.8112267051
  N        -1.5199970400       10.1866620838        7.8005180236
 Ga        -1.5412551605        8.3322057723        8.4470304170
  N        -1.5407080679        8.3316664948       10.4330882016
 Ga        -1.5145171287       10.1918378458       11.0719354811
  N        -1.4970062570       10.2002854406       13.0616233191
 Ga        -1.5394573053        8.3322495807       13.6254706959
  N        -1.5121296684        8.3166928298       15.5828344205
 Ga        -1.7016213066       10.0819034884       16.4960791446
  N         6.5183586587        1.9468684643        2.5179663259
 Ga         6.5123526228       -0.0433454382        2.8668814388
  N         6.5096741382       -0.0293643914        5.0272894909
 Ga         6.5089833580        1.7944738711        5.8065558203
  N         6.5143372907        1.8174604113        7.7988711496
 Ga         6.5143935175       -0.0308029320        8.4452992585
  N         6.5126831096       -0.0301304129       10.4171275518
 Ga         6.5128623057        1.8092385426       11.0704137173
  N         6.5122901689        1.7875540280       13.0656041635
 Ga         6.5125884188       -0.0393655011       13.8661553035
  N         6.5120467294       -0.0315119257       16.0669162670
 Ga         6.5122195395        1.9801991959       16.4477129211
 Ga         6.5016046271        3.6906667216        1.4844155129
  N         5.0077771910        4.5600678105        2.5258320391
 Ga         4.7969872510        2.7023824596        3.2936171091
  N         4.9039115908        2.7552142065        5.2569259761
 Ga         4.8738494569        4.6288521788        5.8040520757
  N         4.8983129664        4.6176169056        7.7986509430
 Ga         4.9125739672        2.7593206178        8.4410499098
  N         4.9156142668        2.7616269821       10.4331389436
 Ga         4.8890763487        4.6213006630       11.0708279950
  N         4.8701625244        4.6320956622       13.0661286810
 Ga         4.9141873236        2.7611489284       13.6134397940
  N         4.8898079883        2.7471941524       15.5827034401
 Ga         5.0366670144        4.5357898210       16.4476934729
  N         6.5119035630        3.6837496858       17.5772417986
  N         3.2950556437        7.5030806911        2.5076824931
  N         3.2970276428        5.5375509960        5.0280286341
 Ga         3.2985548193        7.3620236886        5.7923000094
  N         3.2969389822        7.3904202254        7.7889341224
 Ga         3.2964561867        5.5422235825        8.4453888926
  N         3.2965298448        5.5414492102       10.4183176685
 Ga         3.2979133680        7.3816650280       11.0717304158
  N         3.2959672778        7.3620359743       13.0612580083
 Ga         3.2877723697        5.5456560960       13.8659687521
  N         3.2944337886        5.5414419905       16.0668458640
 Ga         3.2953607132        7.5982926263       16.4966384300
 Ga         3.3356489634        9.2395987421        1.2698100852
  N         1.7890808880       10.1262823439        2.4885729448
 Ga         1.6803026784        8.3124808589        3.2829341056
  N         1.6772186392        8.3201876709        5.2366632949
 Ga         1.6598543820       10.1984458890        5.7978491373
  N         1.6814231301       10.1869142313        7.7910900285
 Ga         1.7013128753        8.3337601125        8.4446860296
  N         1.6999229322        8.3328890801       10.4318491302
 Ga         1.6753199045       10.1924224425       11.0712142137
  N         1.6571492294       10.2003614621       13.0607437824
 Ga         1.6991533508        8.3323741259       13.6251739871
  N         1.6723302361        8.3168761868       15.5824580134
 Ga         1.8617044573       10.0816748610       16.4965548527
  N         3.3043941369        9.2592139650       17.6369674813
  N         9.7379659537        1.8104095099        2.6645382498
 Ga         9.7317437261       -0.0090812745        3.2870846297
  N         9.7247130643       -0.0146736368        5.2462007666
 Ga         9.7331631291        1.8188997608        5.9131826265
  N         9.7271462567        1.8247555815        7.8689007625
 Ga         9.7304171419       -0.0451679806        8.4387721795
  N         9.7289829071       -0.0424590002       10.4277784849
 Ga         9.7285803244        1.8256746695       11.0267511490
  N         9.7270793991        1.8269152744       12.9958071569
 Ga         9.7277575182       -0.0425887671       13.6258589318
  N         9.7237694558       -0.0098262381       15.5834133772
 Ga         9.7320975514        1.8248741647       15.8658124719
  N         8.0250596317        4.5508360891        2.5208706087
 Ga         8.1818909869        2.7172556568        3.3130368030
  N         8.1380532206        2.7435747166        5.2573599008
 Ga         8.1448164009        4.6286605669        5.8008276690
  N         8.1269612910        4.6153728662        7.7933981811
 Ga         8.1100292628        2.7601674737        8.4439056583
  N         8.1096169560        2.7617686368       10.4326491580
 Ga         8.1345305374        4.6200212705       11.0716094509
  N         8.1537959748        4.6316728508       13.0659219772
 Ga         8.1104430292        2.7608515171       13.6130904507
  N         8.1345391701        2.7471160565       15.5823092989
 Ga         7.9872337067        4.5354797670       16.4475370013
  N         6.5041899797        7.4169802350        2.5909992963
 Ga         6.5081863307        5.6328110152        3.2914699223
  N         6.5114632116        5.5604122630        5.2422215305
 Ga         6.5042977110        7.4018435203        5.9058328517
  N         6.5108261146        7.3976893275        7.8632909504
 Ga         6.5122374007        5.5284197699        8.4442823317
  N         6.5127735935        5.5283404688       10.4332522618
 Ga         6.5112413886        7.3984652408       11.0276183051
  N         6.5116148581        7.3967028380       12.9966236462
 Ga         6.5121144704        5.5294539094       13.6136214473
  N         6.5121028330        5.5575476931       15.5827414292
 Ga         6.5119984221        7.4021322905       15.8664218838
  N         4.8146207868       10.1412832483        2.4903304251
 Ga         4.9365246388        8.3086485174        3.2630437693
  N         4.9174724913        8.3177687038        5.2308913022
 Ga         4.9331039020       10.1989548285        5.7826364652
  N         4.9108878896       10.1868008643        7.7817041231
 Ga         4.8921352988        8.3361253074        8.4392583657
  N         4.8938060167        8.3331334778       10.4284825950
 Ga         4.9182312031       10.1914417646       11.0732965154
  N         4.9353220412       10.2007822109       13.0648379743
 Ga         4.8925441738        8.3320868478       13.6262547341
  N         4.9190803468        8.3121701289       15.5836400003
 Ga         4.7406816316       10.0885217014       16.4956642453
  O        -0.0020201318        4.0453782725       -0.4449903945
  H        -0.1900435876        5.9105606189       -0.3479780932
  C         1.1333247131        3.6266597026       -1.2247651049
  H         2.0952949944        3.9440862485       -0.7892514436
  H         1.1226245634        2.5320219530       -1.3300067421
  H         1.0263291777        4.0865244295       -2.2178928756
 Ga         3.2533161944        5.5316639371        2.8530400241
  O        -0.1852805703        6.8838238507       -0.1410936341
  H         0.0272340541        7.2973713162        1.6364485878
  C         6.3636490294        7.3647664967        1.0298408220
  H         6.4072483947        8.3368731380        0.4998505207
  H         9.7444356243        1.7908910489        1.6438936058
  H         5.5538132277        6.6944768898        0.7181458128
     212
 i =        2, E =     -8504.6941355262
  N         0.0668082296        1.9789127324        2.4657079088
 Ga         0.0838126690        0.0083774985        2.8483614421
  N         0.0853586104       -0.0247358314        5.0175581672
 Ga         0.0861956410        1.7943902507        5.8093026514
  N         0.0748277496        1.8161596619        7.7961863294
 Ga         0.0779443200       -0.0313873789        8.4442773017
  N         0.0778764160       -0.0317443811       10.4115994232
 Ga         0.0810327911        1.8066993016       11.0788532191
  N         0.0794096706        1.7894285506       13.0646728680
 Ga         0.0797362459       -0.0299668823       13.8832618234
  N         0.0795300224       -0.0301138068       16.0698545440
 Ga         0.0796510919        2.0153869885       16.4934495426
 Ga         0.0876822218        3.7449555493        1.3313287204
  N        -1.4194602856        4.5254585422        2.5306958879
 Ga        -1.5033807968        2.7513084830        3.3248928375
  N        -1.5547977612        2.7359206426        5.2517287234
 Ga        -1.5594589608        4.6258893527        5.8108144934
  N        -1.5400778639        4.6123827721        7.7951687433
 Ga        -1.5132943962        2.7612205613        8.4583123815
  N        -1.5159261187        2.7613145134       10.4360382221
 Ga        -1.5438599133        4.6209636641       11.0777274530
  N        -1.5612687056        4.6310026999       13.0621209913
 Ga        -1.5185278644        2.7615008648       13.6272006554
  N        -1.5445809069        2.7464185841       15.5817542673
 Ga        -1.3607435128        4.5128965149       16.4926818450
  N         0.0793388499        3.6771324108       17.6337526281
  N        -3.1609610162        7.5211849918        2.5293327497
 Ga        -3.0959358791        5.5363045187        2.8536052385
  N        -3.1372579792        5.5400769454        5.0192393097
 Ga        -3.1428678992        7.3611684132        5.8051535031
  N        -3.1431046917        7.3884529079        7.7892982538
 Ga        -3.1383457524        5.5393913029        8.4474710049
  N        -3.1375405145        5.5405455752       10.4123587975
 Ga        -3.1368858811        7.3796751475       11.0782221112
  N        -3.1365179815        7.3595612020       13.0621600391
 Ga        -3.1337290321        5.5419777151       13.8769568761
  N        -3.1427777737        5.5368106861       16.0645735905
 Ga        -3.1384577122        7.5922389170       16.4934591229
 Ga        -3.1035784771        9.2490369746        1.4036730383
  N        -4.6413028572       10.1051700622        2.4812296282
 Ga        -4.7911832761        8.3195006849        3.2873841174
  N        -4.7796818694        8.3076350492        5.2182505955
 Ga        -4.7746594130       10.2012505529        5.8021794022
  N        -4.7556265353       10.1813360757        7.7892647307
 Ga        -4.7326408682        8.3350184663        8.4575294278
  N        -4.7330147665        8.3333936359       10.4341034425
 Ga        -4.7610915962       10.1933363066       11.0791031487
  N        -4.7767113754       10.2009730505       13.0645912923
 Ga        -4.7340632550        8.3311993997       13.6280117298
  N        -4.7602865445        8.3162474120       15.5824080125
 Ga        -4.5809023238       10.0882211930       16.4943902565
  N        -3.1420110815        9.2570681002       17.6347253453
  N         3.2901588412        1.8294861712        2.6275753018
 Ga         3.2903442145        0.0762965587        3.2771167307
  N         3.2918801336       -0.0356417141        5.2438312889
 Ga         3.2897870086        1.8290245910        5.8726701277
  N         3.2952834829        1.8258561532        7.8448397324
 Ga         3.2935898821       -0.0407676960        8.4436952937
  N         3.2936800269       -0.0442896311       10.4279592997
 Ga         3.2943597838        1.8257994688       11.0298090855
  N         3.2947047360        1.8259748302       12.9919623848
 Ga         3.2968009479       -0.0419957540       13.6277414442
  N         3.2962169552       -0.0112043681       15.5825349555
 Ga         3.2932808421        1.8256177005       15.8664395108
  N         1.5644291317        4.5399005150        2.5407037071
 Ga         1.7575557883        2.7165037784        3.2653188384
  N         1.6824033793        2.7508194827        5.2471773107
 Ga         1.7173736954        4.6185636728        5.8098294701
  N         1.6972341211        4.6166251976        7.7997045552
 Ga         1.6775417825        2.7595317355        8.4443687095
  N         1.6749925263        2.7602233291       10.4291846603
 Ga         1.7031549822        4.6195319750       11.0744554398
  N         1.7203960025        4.6312804969       13.0606932870
 Ga         1.6777527214        2.7619667693       13.6271657911
  N         1.7040609940        2.7464445128       15.5820709583
 Ga         1.5203514820        4.5128202283       16.4928280875
  N         0.0790962247        7.3861702791        2.6574533345
 Ga         0.0868368419        5.5655064717        3.3176506941
  N         0.0757072377        5.5469595227        5.2624483068
 Ga         0.0870240503        7.3951120226        5.8992031901
  N         0.0797329154        7.3968439314        7.8572024561
 Ga         0.0807128193        5.5247496006        8.4485479133
  N         0.0784269090        5.5270099439       10.4311032543
 Ga         0.0800426363        7.3973976658       11.0325714351
  N         0.0799982534        7.3977526862       12.9975778236
 Ga         0.0799344443        5.5267296173       13.6271647950
  N         0.0798795152        5.5582298560       15.5830369724
 Ga         0.0802114088        7.3975883625       15.8623012620
  N        -1.6410760591       10.1101427537        2.5286736028
 Ga        -1.4827945830        8.2934625779        3.3141646954
  N        -1.5233822187        8.3169412467        5.2520648049
 Ga        -1.5044740237       10.2015388958        5.8125480995
  N        -1.5205641250       10.1863663535        7.7989986993
 Ga        -1.5405519815        8.3319965678        8.4489156552
  N        -1.5411243826        8.3313993889       10.4304847998
 Ga        -1.5145999345       10.1919801201       11.0749825056
  N        -1.4954372980       10.2012364665       13.0606056617
 Ga        -1.5402376264        8.3329598646       13.6276379084
  N        -1.5128636855        8.3169999319       15.5834350714
 Ga        -1.6982535643       10.0871454309       16.4935469715
  N         6.5276135167        1.9555511684        2.5060593540
 Ga         6.5136004883       -0.0480988786        2.8601464833
  N         6.5077772428       -0.0293672329        5.0269469140
 Ga         6.5059692241        1.7892619060        5.8094092568
  N         6.5159915118        1.8186961971        7.7946834910
 Ga         6.5129634216       -0.0307634859        8.4482133736
  N         6.5129969347       -0.0308655481       10.4142806895
 Ga         6.5106096057        1.8078520650       11.0745141601
  N         6.5124193631        1.7888342577       13.0596491979
 Ga         6.5122718898       -0.0330232459       13.8757542861
  N         6.5122645482       -0.0223739174       16.0648523096
 Ga         6.5122121574        2.0101181606       16.4724380863
 Ga         6.4841578431        3.6909432159        1.3903562109
  N         5.0136545050        4.5742937918        2.5140981812
 Ga         4.8050263268        2.7095739412        3.2823122896
  N         4.9104373891        2.7587992943        5.2468333727
 Ga         4.8707660550        4.6291637011        5.8017702324
  N         4.9014727493        4.6204548272        7.7892016006
 Ga         4.9121699557        2.7610704527        8.4424240651
  N         4.9150312607        2.7617377491       10.4280715841
 Ga         4.8870079211        4.6206949773       11.0746801696
  N         4.8714270589        4.6313318739       13.0599446467
 Ga         4.9126483967        2.7600965708       13.6175836433
  N         4.8826263579        2.7430805154       15.5726750363
 Ga         5.0626921457        4.5209015917       16.4725535524
  N         6.5122061446        3.6839884270       17.5986162290
  N         3.3022991009        7.4982543809        2.5267347655
  N         3.2960364509        5.5337866284        5.0343203740
 Ga         3.2932520797        7.3571820311        5.7883159814
  N         3.3008348860        7.3912715549        7.7800993433
 Ga         3.2970287571        5.5419015655        8.4452872599
  N         3.2963886477        5.5424786774       10.4128943393
 Ga         3.2963966782        7.3803076178       11.0773043645
  N         3.2961197264        7.3604999727       13.0616789886
 Ga         3.2933166868        5.5422633942       13.8758033279
  N         3.3025798399        5.5369625266       16.0650171545
 Ga         3.2980355249        7.5924524194       16.4938386583
 Ga         3.3407264835        9.1903514372        1.1693368663
  N         1.8064375076       10.1264849685        2.4773628993
 Ga         1.6708451160        8.3071551937        3.2636600121
  N         1.6806584515        8.3240912674        5.2259685793
 Ga         1.6518200035       10.1970259898        5.8039233769
  N         1.6823325784       10.1875299450        7.7908481937
 Ga         1.7014449923        8.3316053595        8.4454178012
  N         1.7005141067        8.3324475475       10.4281767638
 Ga         1.6732493340       10.1910828647       11.0764693216
  N         1.6558080239       10.2013680256       13.0610352635
 Ga         1.7000010513        8.3329773437       13.6276206277
  N         1.6729882180        8.3172606419       15.5832148120
 Ga         1.8579435163       10.0869341961       16.4938127895
  N         3.3015504485        9.2575131038       17.6351185958
  N         9.7349322661        1.8069126277        2.6989105876
 Ga         9.7300297522       -0.0754309984        3.3052827680
  N         9.7262114921       -0.0096459377        5.2394353780
 Ga         9.7317268083        1.8186712202        5.9329380676
  N         9.7274845849        1.8257042366        7.8731332754
 Ga         9.7294953471       -0.0497925829        8.4507898495
  N         9.7299007817       -0.0455186325       10.4304061388
 Ga         9.7295999431        1.8249911280       11.0310208665
  N         9.7292532479        1.8253046769       12.9917443786
 Ga         9.7274346807       -0.0421321994       13.6283880715
  N         9.7277999605       -0.0111794289       15.5826422381
 Ga         9.7311251025        1.8254429143       15.8672992299
  N         8.0204914201        4.5525891089        2.5101299458
 Ga         8.1254163655        2.7477133651        3.3272470230
  N         8.1443173568        2.7424987551        5.2478184894
 Ga         8.1532401228        4.6341332137        5.8004768842
  N         8.1235769510        4.6160849577        7.7833001592
 Ga         8.1050525095        2.7632641782        8.4561306472
  N         8.1089056434        2.7626907184       10.4346864128
 Ga         8.1362553185        4.6217242020       11.0779869246
  N         8.1529661859        4.6310719906       13.0613277599
 Ga         8.1116077212        2.7598915638       13.6179127835
  N         8.1419784932        2.7430849312       15.5727343760
 Ga         7.9617349706        4.5208921584       16.4726049857
  N         6.4855408851        7.4032830145        2.5421083187
 Ga         6.5041839062        5.5751135145        3.3065863380
  N         6.5156159861        5.5739189594        5.2307255177
 Ga         6.5060173672        7.4002311305        5.9316260243
  N         6.5109288064        7.3971410002        7.8689710146
 Ga         6.5107351595        5.5238538045        8.4571216531
  N         6.5129103166        5.5281258770       10.4346511775
 Ga         6.5114761999        7.3998390147       11.0315872171
  N         6.5114418904        7.3992653139       12.9918504969
 Ga         6.5119554605        5.5310272535       13.6182359367
  N         6.5123100097        5.5659838518       15.5729586624
 Ga         6.5121173425        7.4010008721       15.8676693120
  N         4.8142914062       10.1429177081        2.4923018117
 Ga         4.8819978221        8.3396126285        3.2854632046
  N         4.9322058503        8.3139519477        5.2226246988
 Ga         4.9420846945       10.2047456452        5.7882320426
  N         4.9108201578       10.1835323685        7.7770763841
 Ga         4.8880191844        8.3353184027        8.4524253643
  N         4.8919728261        8.3345065378       10.4305788281
 Ga         4.9203652723       10.1918893952       11.0809184603
  N         4.9355705266       10.2009782331       13.0652102807
 Ga         4.8931166840        8.3315059186       13.6287404310
  N         4.9199441037        8.3163269022       15.5829497873
 Ga         4.7402451290       10.0882651528       16.4947301711
  O        -0.0213461912        3.9972533259       -0.4612811467
  H        -0.1964013854        5.9851133089       -0.3442297223
  C         1.1278019232        3.6057362975       -1.2333779174
  H         2.0817656710        3.9441139266       -0.7904007618
  H         1.1590580041        2.5148525771       -1.3541341148
  H         1.0323422936        4.0862802161       -2.2172411936
 Ga         3.2444409404        5.5307253761        2.8655621182
  O        -0.1694995409        6.9301731204       -0.0165469725
  H         0.0193621521        7.2731897851        1.5896595638
  C         6.2463482690        7.4256389709        1.1635047497
  H         6.4975305144        8.3415306046        0.5488388636
  H         9.7380420886        1.8175595667        1.6475095932
  H         5.5853989492        6.6313167658        0.6897459012
     212
 i =        3, E =     -8504.7121658094
  N         0.0712011073        1.9823630265        2.4724565961
 Ga         0.0821290708        0.0158681142        2.8555064124
  N         0.0886337366       -0.0232201289        5.0207392699
 Ga         0.0906096813        1.7947858116        5.8156913077
  N         0.0762014701        1.8153633433        7.7994164789
 Ga         0.0795217636       -0.0318349870        8.4465343975
  N         0.0781591357       -0.0322044248       10.4117530582
 Ga         0.0821034258        1.8070475606       11.0809291982
  N         0.0799439152        1.7881970440       13.0642648816
 Ga         0.0801290679       -0.0298950893       13.8868850317
  N         0.0796515123       -0.0301685794       16.0700597753
 Ga         0.0797228337        2.0174959445       16.4927096006
 Ga         0.0914251241        3.7570255216        1.3238830361
  N        -1.4155275865        4.5295412374        2.5318842779
 Ga        -1.4908550640        2.7569311487        3.3346520745
  N        -1.5471100952        2.7392020691        5.2571856078
 Ga        -1.5571595262        4.6289362471        5.8147173286
  N        -1.5394958553        4.6141708108        7.7964948443
 Ga        -1.5130617685        2.7623192866        8.4600148598
  N        -1.5150751030        2.7626012452       10.4360326628
 Ga        -1.5439827367        4.6228340191       11.0812016189
  N        -1.5619654849        4.6318248823       13.0638805716
 Ga        -1.5181084578        2.7612031199       13.6276414275
  N        -1.5441094594        2.7454869063       15.5808130676
 Ga        -1.3605202898        4.5132104373       16.4912374390
  N         0.0794185111        3.6783856900       17.6349009733
  N        -3.1748502623        7.5140985717        2.5250006818
 Ga        -3.0937730861        5.5300424184        2.8607893777
  N        -3.1346003244        5.5402588535        5.0225273442
 Ga        -3.1394510980        7.3599127966        5.8026340524
  N        -3.1440145040        7.3900524335        7.7851991164
 Ga        -3.1375157613        5.5410912121        8.4472295658
  N        -3.1377570554        5.5409531807       10.4101145534
 Ga        -3.1355148815        7.3787166801       11.0820423432
  N        -3.1363894621        7.3587887949       13.0638483181