     156
 i =        1, E =     -6135.7929416890
 Ga        -0.0031984878       -0.0157165016       -0.5329995674
  N        -0.0002944862        1.8585939033        0.6061472929
 Ga        -0.0003478425        1.8277924940        2.6379181375
  N        -0.0034370676       -0.0156365248        3.2694331349
 Ga        -0.0022045337       -0.0150495051        5.2602326135
  N         0.0008025756        1.8595556243        5.8482769341
 Ga         0.0021946593        1.8581596478        7.8481720829
  N         0.0007833003       -0.0150986140        8.4504118459
 Ga         0.0039424058       -0.0151497708       10.4496853370
  N         0.0041049570        1.8599227997       11.0449814572
 Ga         0.0091814008        1.8631800895       13.0371626084
  N         0.0160273106       -0.0106433680       13.6271979029
 Ga         0.0281372302       -0.0052093121       15.6171408092
  N         0.0114118805        1.8566426402       16.2263932340
 Ga         0.0441480914        1.8427611523       18.2894811812
  N         0.0529512560       -0.0342547565       18.7088591178
 Ga        -1.6232575129        2.7902151650        0.3243581191
  N        -1.6246576948        4.6598377372        0.6070298549
 Ga        -1.5957697444        4.6757300840        2.6367729397
  N        -1.6228683907        2.7898946408        3.2282020077
 Ga        -1.6217246212        2.7906118718        5.2398380070
  N        -1.6212947184        4.6609314609        5.8465858168
 Ga        -1.6191589468        4.6613511474        7.8452025914
  N        -1.6203703225        2.7917865874        8.4509160658
 Ga        -1.6188884928        2.7951702101       10.4470121250
  N        -1.6173585487        4.6667935615       11.0552788754
 Ga        -1.6177907391        4.6712998986       13.0522440107
  N        -1.6101226329        2.8010972196       13.6529301539
 Ga        -1.5935449542        2.8145455711       15.6549859505
  N        -1.5865972595        4.6815086958       16.3072753828
 Ga        -1.5132720011        4.6787967778       18.3833306178
  N        -1.4632729398        2.8271215803       19.0172612122
 Ga        -3.2435490540        5.5952062772        0.3242915940
  N        -3.2373157868        7.4660969865        0.6063508076
 Ga        -3.2644412541        7.4808519066        2.6380165828
  N        -3.2426884425        5.5953760875        3.2285271892
 Ga        -3.2418934377        5.5960236427        5.2399929922
  N        -3.2358621575        7.4662944548        5.8470253483
 Ga        -3.2359121016        7.4670496156        7.8460961173
  N        -3.2399021742        5.5961530414        8.4492244629
 Ga        -3.2386009100        5.5972097095       10.4445168571
  N        -3.2307638802        7.4657296262       11.0552750528
 Ga        -3.2221218392        7.4628824912       13.0528595880
  N        -3.2325554658        5.5993279245       13.6955874562
 Ga        -3.2216192857        5.5932467905       15.7314045312
  N        -3.2156517124        7.4821931767       16.2599127715
 Ga        -3.1803483028        7.4516337798       18.3192317549
  N        -3.1604362381        5.5894017217       18.8545558897
 Ga         3.2429247167       -0.0154065445        0.3246233485
  N         3.2410239954        1.8545787340        0.6064102871
 Ga         3.2694796814        1.8704055763        2.6370749790
  N         3.2425225119       -0.0154914782        3.2281755931
 Ga         3.2439666254       -0.0146818710        5.2398582500
  N         3.2445690843        1.8554790943        5.8475353496
 Ga         3.2469376634        1.8562122113        7.8469313547
  N         3.2449197201       -0.0147966915        8.4495436468
 Ga         3.2477630447       -0.0140505941       10.4449671542
  N         3.2511629166        1.8568017823       11.0509764146
 Ga         3.2575250352        1.8537325990       13.0479983985
  N         3.2564948929       -0.0169524963       13.6607526708
 Ga         3.2751428637       -0.0169620291       15.6663949465
  N         3.2808428945        1.8625468990       16.2190437411
 Ga         3.3153541274        1.8599932205       18.2441665796
  N         3.3142931097       -0.0294373505       18.7005956830
 Ga         1.6222943738        2.7909148650        0.3242556283
  N         1.6291119678        4.6604793777        0.6073043652
 Ga         1.6011691753        4.6758512515        2.6370837840
  N         1.6226091124        2.7900516937        3.2289381031
 Ga         1.6241735980        2.7909339548        5.2408278818
  N         1.6297005450        4.6611667383        5.8484628696
 Ga         1.6300161969        4.6614121585        7.8482104043
  N         1.6259937737        2.7902651915        8.4493548933
 Ga         1.6290307265        2.7914402563       10.4448281748
  N         1.6275795329        4.6622837050       11.0484266290
 Ga         1.6288290559        4.6628338764       13.0428545159
  N         1.6329569588        2.7879317782       13.6460854021
 Ga         1.6429151414        2.7769727708       15.6406216462
  N         1.6338095307        4.6647518758       16.1836598428
 Ga         1.6766717291        4.6405094874       18.1835845990
  N         1.6835800021        2.7770120491       18.6481662626
 Ga         0.0030970468        5.5957611399       -0.5479296687
  N         0.0059356755        7.4705898617        0.6069981406
 Ga         0.0060407028        7.4383476635        2.6368661503
  N         0.0029930050        5.5951907729        3.2695197788
 Ga         0.0046572659        5.5961867761        5.2596970319
  N         0.0074421343        7.4706943181        5.8477537436
 Ga         0.0087906373        7.4692817229        7.8471393821
  N         0.0049181042        5.5957439279        8.4470318962
 Ga         0.0063691644        5.5971395523       10.4440209439
  N         0.0116750668        7.4691736473       11.0461903921
 Ga         0.0138936274        7.4711214735       13.0388322227
  N         0.0068976189        5.6016914565       13.6478672484
 Ga         0.0034132473        5.6025730619       15.6429658992
  N         0.0338346131        7.4600825955       16.2782613776
 Ga         0.0839547936        7.4279914840       18.3619493231
  N         0.1402825210        5.5762059904       18.9086604864
 Ga         6.4869007549       -0.0149700604        0.3238506498
  N         6.4937356514        1.8550308543        0.6060519066
 Ga         6.4661739136        1.8702248648        2.6368546586
  N         6.4882805949       -0.0154398316        3.2287502923
 Ga         6.4897324211       -0.0147054801        5.2406822296
  N         6.4945119174        1.8558339604        5.8479553985
 Ga         6.4945417006        1.8569391238        7.8474822805
  N         6.4909302430       -0.0136888033        8.4509866719
 Ga         6.4942880131       -0.0113088682       10.4473650848
  N         6.4968210445        1.8609202794       11.0528366772
 Ga         6.5000139938        1.8660721009       13.0498219750
  N         6.4898897421       -0.0079871408       13.6404307896
 Ga         6.5036008624        0.0012132380       15.6436424822
  N         6.5234426927        1.8783876239       16.2344460333
 Ga         6.6565283204        1.9249164373       18.2959957808
  N         6.5634376655       -0.0011225875       18.6479882433
 Ga         4.8675497910        2.7916346055       -0.5418937760
  N         4.8709563110        4.6648683069        0.6069365331
 Ga         4.8707942978        4.6334045236        2.6373206310
  N         4.8682731356        2.7899437114        3.2691389274
 Ga         4.8695365668        2.7911058412        5.2594361493
  N         4.8721297292        4.6652256685        5.8481212080
 Ga         4.8728409259        4.6639388202        7.8477140697
  N         4.8708827507        2.7913804257        8.4503059674
 Ga         4.8736972999        2.7952084910       10.4497237120
  N         4.8797720664        4.6661547777       11.0584869105
 Ga         4.8836497861        4.6702962917       13.0610554136
  N         4.8745307527        2.7952286755       13.6513120238
 Ga         4.8857827408        2.8003181867       15.6636542192
  N         4.8668461515        4.6723165024       16.1754840597
 Ga         4.9287605924        4.6591229273       19.0947411401
  N         4.9544547127        2.7695777512       18.7384495055
 Ga         3.2486704632        5.5947093165        0.3238193758
  N         3.2479311887        7.4655041638        0.6058049539
 Ga         3.2756711626        7.4807161895        2.6375345678
  N         3.2485722199        5.5956175533        3.2289209926
 Ga         3.2499388545        5.5963782463        5.2405413770
  N         3.2504604376        7.4661617950        5.8493776943
 Ga         3.2531841529        7.4666942806        7.8496058462
  N         3.2513970553        5.5959669825        8.4547035839
 Ga         3.2549232757        5.5974398292       10.4535321377
  N         3.2566432146        7.4713013047       11.0517514506
 Ga         3.2586982005        7.4717060999       13.0488604164
  N         3.2487279730        5.5955947982       13.6327701367
 Ga         3.2608243778        5.6062776985       15.6390838859
  N         3.2811451338        7.4901874506       16.1552408949
 Ga         3.3270215723        7.4961460802       18.1708636917
  N         3.3564288528        5.5737743097       18.4713681573
  O         1.5524962342        5.0317523770       21.2541953990
  H         0.9929289820        5.3934452046       20.4865760287
  C         0.7597065694        3.9396854907       21.7965726072
  H         0.0322527945        3.5236188965       21.0075860204
  H         1.5321626894        3.2341103601       22.1792780037
  H         0.3368004231        4.3638852046       22.7401180542
  O         4.2312451176        4.7164075112       21.0756944833
  H         3.2214933952        4.8673548692       21.0753056227
  C         4.5516993071        3.5969037720       21.9428135891
  H         4.1180068537        2.6626065934       21.5597871450
  H         5.6437608036        3.5041412414       21.9649001128
  H         4.1788047966        3.8120617960       22.9522825685
     156
 i =        2, E =     -6136.1993152277
 Ga        -0.0031896330       -0.0156889608       -0.5336535775
  N        -0.0002780567        1.8586776942        0.6066287916
 Ga        -0.0003095952        1.8278055971        2.6379477402
  N        -0.0034180277       -0.0155985433        3.2695011034
 Ga        -0.0021660973       -0.0150544646        5.2600533933
  N         0.0008336390        1.8595994547        5.8483900498
 Ga         0.0021212699        1.8582160209        7.8482870974
  N         0.0008734248       -0.0151504237        8.4511195763
 Ga         0.0040128394       -0.0150906743       10.4506411691
  N         0.0041219740        1.8600614043       11.0448803841
 Ga         0.0096826124        1.8627446253       13.0367769529
  N         0.0161780314       -0.0103193527       13.6255446381
 Ga         0.0277730708       -0.0046827388       15.6154564833
  N         0.0113142765        1.8571509363       16.2374363929
 Ga         0.0675060188        1.8425787794       18.3032084278
  N         0.0511558911       -0.0391004181       18.7006286280
 Ga        -1.6231314852        2.7902245096        0.3238358501
  N        -1.6247771363        4.6597428757        0.6073557496
 Ga        -1.5958218757        4.6756984118        2.6368129672
  N        -1.6228631475        2.7897695544        3.2282231792
 Ga        -1.6217443839        2.7906073675        5.2396285354
  N        -1.6212954971        4.6608933938        5.8465415917
 Ga        -1.6191989448        4.6613991664        7.8450979485
  N        -1.6204264167        2.7919250475        8.4517563756
 Ga        -1.6187743367        2.7954276748       10.4478998323
  N        -1.6176026557        4.6670771562       11.0552958737
 Ga        -1.6166745781        4.6711614222       13.0516032401
  N        -1.6102032323        2.8007451569       13.6477062062
 Ga        -1.5874505981        2.8170849534       15.6459123501
  N        -1.5878936118        4.6780664092       16.3115577488
 Ga        -1.5034609229        4.6955949208       18.3831748819
  N        -1.3100067014        2.9029652678       19.2672612122
 Ga        -3.2434466815        5.5952696071        0.3237964773
  N        -3.2372090504        7.4660522970        0.6068517529
 Ga        -3.2644248259        7.4808200022        2.6381267557
  N        -3.2427650006        5.5953848050        3.2286286127
 Ga        -3.2419208746        5.5960281910        5.2398775354
  N        -3.2358059477        7.4663443919        5.8469946959
 Ga        -3.2358438733        7.4669618323        7.8459823181
  N        -3.2399061191        5.5961320620        8.4494215666
 Ga        -3.2383387262        5.5971003726       10.4443129072
  N        -3.2307095876        7.4651341102       11.0551994436
 Ga        -3.2222294820        7.4634767012       13.0529225794
  N        -3.2329097075        5.5976972227       13.6917481677
 Ga        -3.2175488127        5.5940970320       15.7275190604
  N        -3.2165788647        7.4821497938       16.2626082254
 Ga        -3.1770639567        7.4508022088       18.3191239608
  N        -3.1646476942        5.5865605104       18.8433707021
 Ga         3.2429315932       -0.0154862108        0.3240991822
  N         3.2409831778        1.8545645849        0.6066189696
 Ga         3.2694892304        1.8704137915        2.6371202253
  N         3.2424674221       -0.0154038166        3.2281829213
 Ga         3.2439735189       -0.0146252834        5.2396069321
  N         3.2445765871        1.8554985423        5.8474712212
 Ga         3.2471145502        1.8562480188        7.8467407580
  N         3.2448848350       -0.0147098174        8.4501887662
 Ga         3.2478347432       -0.0142563830       10.4458206158
  N         3.2518308279        1.8571230842       11.0508247525
 Ga         3.2577181472        1.8538954817       13.0480360646
  N         3.2561951446       -0.0164132593       13.6601469534
 Ga         3.2756907303       -0.0200191895       15.6671335262
  N         3.2761790645        1.8614202579       16.2207390590
 Ga         3.3380316178        1.8544951497       18.2466864081
  N         3.3121152034       -0.0284313091       18.7103635967
 Ga         1.6221971196        2.7909326695        0.3237740245
  N         1.6292468705        4.6603857179        0.6076246354
 Ga         1.6012594275        4.6757811069        2.6370839774
  N         1.6226491478        2.7899455590        3.2289639131
 Ga         1.6242273605        2.7908955755        5.2405683170
  N         1.6297719428        4.6611381398        5.8483473511
 Ga         1.6301072559        4.6615672063        7.8480841886
  N         1.6261452190        2.7903327920        8.4500936244
 Ga         1.6289829097        2.7916829801       10.4458138830
  N         1.6273924285        4.6627143970       11.0489453656
 Ga         1.6295926164        4.6631529982       13.0440631804
  N         1.6332225653        2.7878228777       13.6436076918
 Ga         1.6390674028        2.7801624059       15.6378555325
  N         1.6304578003        4.6640899151       16.1877997597
 Ga         1.6764151785        4.6446800517       18.1863766010
  N         1.7067293991        2.7810594523       18.6362820225
 Ga         0.0031535212        5.5957393886       -0.5487179078
  N         0.0059430254        7.4707343997        0.6073591730
 Ga         0.0060573388        7.4384233611        2.6369452031
  N         0.0030374419        5.5951762484        3.2695218216
 Ga         0.0046469314        5.5962049994        5.2595049939
  N         0.0074251046        7.4707564804        5.8477194677
 Ga         0.0088313372        7.4692942740        7.8471277228
  N         0.0048935717        5.5956738156        8.4474629063
 Ga         0.0060782844        5.5970986364       10.4445292671
  N         0.0119167354        7.4690244306       11.0461931567
 Ga         0.0140560394        7.4710767077       13.0393868657
  N         0.0063479867        5.6012383503       13.6455937463
 Ga         0.0014836526        5.6007565245       15.6412999615
  N         0.0366872200        7.4568939345       16.2811982831
 Ga         0.0895879758        7.4450811010       18.3640951723
  N         0.1467104684        5.5920769321       18.9010005278
 Ga         6.4869187067       -0.0150542604        0.3233439253
  N         6.4937834129        1.8550181032        0.6062496077
 Ga         6.4661776626        1.8702145208        2.6369009758
  N         6.4883664721       -0.0153702963        3.2288346506
 Ga         6.4897562387       -0.0146188661        5.2405555398
  N         6.4945554074        1.8558971370        5.8479989039
 Ga         6.4945506638        1.8569946546        7.8474524434
  N         6.4909528647       -0.0136032932        8.4512305207
 Ga         6.4941433936       -0.0111793939       10.4475442993
  N         6.4966066855        1.8610683460       11.0515500589
 Ga         6.5008247319        1.8654594809       13.0477720084
  N         6.4899389080       -0.0064864593       13.6429630940
 Ga         6.5035075973        0.0074997222       15.6500117634
  N         6.5389502831        1.8865799769       16.2680182926
 Ga         6.7737273875        1.9916583220       18.3594728212
  N         6.5724207857        0.0280201151       18.6444994170
 Ga         4.8675624716        2.7915751786       -0.5412372491
  N         4.8709742215        4.6648774453        0.6071515436
 Ga         4.8708046964        4.6334141289        2.6374064065
  N         4.8682773749        2.7899373478        3.2691547275
 Ga         4.8695781871        2.7911238946        5.2593073014
  N         4.8721537064        4.6652090760        5.8480801860
 Ga         4.8729104291        4.6639464280        7.8475320848
  N         4.8709171519        2.7914689614        8.4503120581
 Ga         4.8740071224        2.7953120102       10.4491765907
  N         4.8803325608        4.6658450786       11.0576374696
 Ga         4.8817967945        4.6707787202       13.0596718165
  N         4.8768720773        2.7957621964       13.6565229421
 Ga         4.8929237253        2.7962829959       15.6742816963
  N         4.8701083306        4.6740598695       16.1705110322
 Ga         4.9277524618        4.6568992022       19.1010248495
  N         4.9864351862        2.7693964752       18.7288984480
 Ga         3.2485956413        5.5947541271        0.3233357922
  N         3.2478454503        7.4654526187        0.6063248023
 Ga         3.2756878962        7.4806932677        2.6376559051
  N         3.2486541629        5.5956111738        3.2289801186
 Ga         3.2500611533        5.5963754087        5.2403500938
  N         3.2504954615        7.4661538159        5.8493507719
 Ga         3.2531503581        7.4666602069        7.8495630484
  N         3.2515551721        5.5959171168        8.4554580818
 Ga         3.2550319102        5.5974610077       10.4545647355
  N         3.2562794153        7.4715209505       11.0514953953
 Ga         3.2590328764        7.4718719872       13.0492052248
  N         3.2495177257        5.5964448519       13.6342732274
 Ga         3.2568921129        5.6071786475       15.6414939911
  N         3.2817064003        7.4909002461       16.1540278507
 Ga         3.3224224488        7.4942272856       18.1678993582
  N         3.3584734692        5.5727595856       18.4766587953
  O         1.5319986593        5.0153709622       21.2193788563
  H         0.9854947580        5.4156105589       20.4708062927
  C         0.6949848560        3.9029463614       21.7009985938
  H        -0.1307973507        3.4377094973       20.9571341823
  H         1.4489839260        3.1916349412       22.1103851063
  H         0.2629850824        4.3041467656       22.6499719395
  O         4.2287049351        4.7186354479       21.0754647490
  H         3.2181496802        4.8597336909       21.0790989381
  C         4.5511431273        3.5986130374       21.9421245698
  H         4.1178276429        2.6636950470       21.5604258259
  H         5.6429912752        3.5039406693       21.9649423825
  H         4.1787122397        3.8108942539       22.9521631808
     156
 i =        3, E =     -6136.4346249931
 Ga        -0.0031797549       -0.0156660799       -0.5302043987
  N        -0.0002740189        1.8587981003        0.6061435601
 Ga        -0.0002905923        1.8275846908        2.6377007510
  N        -0.0033824804       -0.0156992318        3.2696172622
 Ga        -0.0021381447       -0.0148525410        5.2600391877
  N         0.0008805338        1.8595219141        5.8488873441
 Ga         0.0022609933        1.8583645368        7.8483793747
  N         0.0008436085       -0.0148213334        8.4506244146
 Ga         0.0036416522       -0.0144654451       10.4490797380
  N         0.0042352486        1.8600929703       11.0431224097
 Ga         0.0110090850        1.8632203034       13.0329402238
  N         0.0165418182       -0.0076389136       13.6278690102
 Ga         0.0201964380        0.0013524519       15.6197261353
  N         0.0064065848        1.8648975869       16.2495942360
 Ga         0.0911476218        1.8575429399       18.3295036872
  N         0.0526712401       -0.0343051665       18.7049582653
 Ga        -1.6233267707        2.7905839996        0.3235236803
  N        -1.6245114182        4.6598739833        0.6078137333
 Ga        -1.5957889836        4.6756817334        2.6367346968
  N        -1.6224976460        2.7898228616        3.2285664854
 Ga        -1.6214753327        2.7905944654        5.2397837323
  N        -1.6212398999        4.6609985320        5.8470494096
 Ga        -1.6186652865        4.6610415673        7.8454274291
  N        -1.6200741758        2.7917632324        8.4509856274
 Ga        -1.6180552458        2.7947296856       10.4457050321
  N        -1.6166307162        4.6653683361       11.0523962215
 Ga        -1.6158556225        4.6716543595       13.0474013915
  N        -1.6107754264        2.7990525829       13.6409304861
 Ga        -1.5816459858        2.8195588348       15.6315986583
  N        -1.5872405755        4.6682917681       16.3273000078
 Ga        -1.4865744699        4.6784667529       18.4068077966
  N        -1.2166056188        2.9277430289       19.5172612122
 Ga        -3.2431958664        5.5948634853        0.3234884033
  N        -3.2370498575        7.4659213004        0.6062318696
 Ga        -3.2645768695        7.4809102937        2.6376803388
  N        -3.2425839118        5.5956829396        3.2287246216
 Ga        -3.2416042654        5.5962146313        5.2396210985
  N        -3.2358781517        7.4663786633        5.8474764828
 Ga        -3.2358827964        7.4675514388        7.8462712725
  N        -3.2395953352        5.5963045719        8.4499927410
 Ga        -3.2377817998        5.5972102557       10.4452688896
  N        -3.2311125658        7.4665550355       11.0541114250
 Ga        -3.2225942368        7.4629650007       13.0520572401
  N        -3.2300648611        5.5967633060       13.6950550643
 Ga        -3.2152136071        5.5917923720       15.7333898822
  N        -3.2235096320        7.4878213880       16.2543579078
 Ga        -3.1717086125        7.4592817420       18.3144023570
  N        -3.1564733844        5.5869537823       18.8254776769
 Ga         3.2433884515       -0.0155163144        0.3238058300
  N         3.2406456071        1.8543261430        0.6069412797
 Ga         3.2692516509        1.8702566857        2.6370957771
  N         3.2422776670       -0.0157576338        3.2284433905
 Ga         3.2440196551       -0.0147197030        5.2396312827
  N         3.2445808821        1.8554929816        5.8478598683
 Ga         3.2465848563        1.8562211559        7.8470088676
  N         3.2451951111       -0.0147584981        8.4499261303
 Ga         3.2481514536       -0.0139644212       10.4448033734
  N         3.2511094572        1.8571706904       11.0505025790
 Ga         3.2602119825        1.8562185154       13.0473791724
  N         3.2560254791       -0.0151716824       13.6616824312
 Ga         3.2793037719       -0.0267242737       15.6705030101
  N         3.2698863637        1.8584146200       16.2187409750
 Ga         3.3679668384        1.8459295221       18.2493053379
  N         3.3212534115       -0.0284436975       18.7115250669
 Ga         1.6224267683        2.7912687298        0.3234453323
  N         1.6290406570        4.6604949932        0.6081027656
 Ga         1.6013062567        4.6757742730        2.6370340156
  N         1.6223397719        2.7899889146        3.2293118842
 Ga         1.6240418975        2.7909109302        5.2407578048
  N         1.6297907414        4.6612493666        5.8489454977
 Ga         1.6298115539        4.6612241973        7.8485485806
  N         1.6259465956        2.7902102059        8.4499564278
 Ga         1.6287740047        2.7915900271       10.4447511272
  N         1.6270221338        4.6616540162       11.0490470509
 Ga         1.6299131190        4.6630190434       13.0450490700
  N         1.6335500951        2.7859207264       13.6437699800
 Ga         1.6339503284        2.7862109498       15.6404278207
  N         1.6296990769        4.6675338143       16.1902889412
 Ga         1.6778681802        4.6463148175       18.1906200575
  N         1.7466584736        2.7865670974       18.6409546775
 Ga         0.0031906860        5.5957497602       -0.5502182256
  N         0.0059758928        7.4704506798        0.6078862670
 Ga         0.0061097857        7.4384325129        2.6369524652
  N         0.0030560146        5.5951483030        3.2696065735
 Ga         0.0047101839        5.5962644437        5.2593241776
  N         0.0074885659        7.4707441231        5.8479546069
 Ga         0.0088308113        7.4692980747        7.8469714711
  N         0.0049438934        5.5960717131        8.4476718236
 Ga         0.0065596167        5.5973013373       10.4444986572
  N         0.0117950378        7.4694994218       11.0474217585
 Ga         0.0162615171        7.4719631751       13.0419001951
  N         0.0048469126        5.6013070866       13.6461630434
 Ga         0.0000968558        5.6042121838       15.6450821330
  N         0.0417014810        7.4585653666       16.2841714487
 Ga         0.1046031970        7.4776181731       18.3574356846
  N         0.1550789182        5.6246259666       18.8727839983
 Ga         6.4865184709       -0.0150747090        0.3230553267
  N         6.4941624819        1.8547822849        0.6065567244
 Ga         6.4665044991        1.8700496981        2.6368487541
  N         6.4886035766       -0.0156775323        3.2290848155
 Ga         6.4898111683       -0.0147197604        5.2405262818
  N         6.4946634609        1.8558487350        5.8483943894
 Ga         6.4951343722        1.8569347690        7.8477423844
  N         6.4907064512       -0.0137179991        8.4510694426
 Ga         6.4941394039       -0.0111346295       10.4468826869
  N         6.4980362453        1.8611426267       11.0495504352
 Ga         6.4987040558        1.8646797775       13.0441716368
  N         6.4887500712       -0.0017878799       13.6555843058
 Ga         6.5057894824        0.0199802264       15.6679716124
  N         6.5667209125        1.8989875451       16.3179758511
 Ga         6.8300508676        2.0256819005       18.4339249277
  N         6.5984957554        0.0439062716       18.6381891927
 Ga         4.8676126197        2.7915730615       -0.5435646043
  N         4.8710083956        4.6652672276        0.6074283438
 Ga         4.8708359314        4.6336925956        2.6372674858
  N         4.8683387947        2.7899767599        3.2691357207
 Ga         4.8696457188        2.7909743511        5.2591251129
  N         4.8722247931        4.6653978347        5.8482049567
 Ga         4.8728770439        4.6639604040        7.8476506453
  N         4.8709785781        2.7911654072        8.4502855337
 Ga         4.8742168006        2.7941537805       10.4490703069
  N         4.8800769621        4.6649495523       11.0597924315
 Ga         4.8814148288        4.6662599084       13.0648621619
  N         4.8801452152        2.7890789956       13.6754926549
 Ga         4.9102295167        2.7897389361       15.7012244469
  N         4.8692497072        4.6738302850       16.1828300465
 Ga         4.9288536349        4.6674859066       19.1062566867
  N         5.0128231174        2.7866254782       18.7230353574
 Ga         3.2484075104        5.5943354375        0.3230497257
  N         3.2477315844        7.4653114276        0.6057562771
 Ga         3.2758753039        7.4808032349        2.6372599534
  N         3.2485713652        5.5959267533        3.2291401286
 Ga         3.2498248225        5.5965574661        5.2401914079
  N         3.2506303108        7.4661962992        5.8498108373
 Ga         3.2532665402        7.4671024245        7.8498125594
  N         3.2514140754        5.5961395505        8.4558339382
 Ga         3.2542677962        5.5979919307       10.4553822244
  N         3.2564980530        7.4727685538       11.0530833157
 Ga         3.2566496775        7.4734811147       13.0523399688
  N         3.2500043664        5.5976291629       13.6351424273
 Ga         3.2557116615        5.6085562742       15.6440052168
  N         3.2789456752        7.4901949101       16.1550417502
 Ga         3.3319713921        7.4927661386       18.1641747591
  N         3.3604719455        5.5750763102       18.4731293485
  O         1.4755269972        4.9471926878       21.1681888592
  H         0.9697444302        5.4473551643       20.4406432755
  C         0.6161748553        3.8476672823       21.6586115654