     206
 i =        1, E =     -8480.5345750988
  N         0.0761182416        1.9591370330        2.4933341254
 Ga         0.0685394038       -0.0146047264        2.8287870690
  N         0.0808361039       -0.0255511195        5.0134901146
 Ga         0.0814936803        1.7964045548        5.8027691020
  N         0.0796484346        1.8149663727        7.8009116474
 Ga         0.0775921377       -0.0308791452        8.4448916154
  N         0.0786385307       -0.0303274248       10.4188499922
 Ga         0.0790134363        1.8083836827       11.0729351535
  N         0.0795071209        1.7904289706       13.0654322012
 Ga         0.0780445351       -0.0289447880       13.8789964528
  N         0.0771724880       -0.0281719367       16.0711758253
 Ga         0.0778621917        2.0199515546       16.4946412487
 Ga         0.0577300010        3.6908283628        1.3960583423
  N        -1.4165251472        4.5485918004        2.5341435811
 Ga        -1.6096667633        2.6974921528        3.2780787400
  N        -1.5261313793        2.7543445647        5.2526719985
 Ga        -1.5619281915        4.6195357849        5.8143290448
  N        -1.5399883093        4.6162760341        7.8064635788
 Ga        -1.5197580881        2.7562355629        8.4385701126
  N        -1.5177854509        2.7601832367       10.4317995771
 Ga        -1.5431415794        4.6184408050       11.0707859905
  N        -1.5587226408        4.6297523909       13.0614218323
 Ga        -1.5179661793        2.7614575395       13.6228756500
  N        -1.5480727005        2.7468212341       15.5788356942
 Ga        -1.3534484719        4.5075557843       16.4951249971
  N         0.0811119552        3.6783022530       17.6417346043
  N        -3.1353191930        7.5278088744        2.5387381104
 Ga        -3.1196525273        5.5327710128        2.8539080456
  N        -3.1367989915        5.5382569862        5.0215298770
 Ga        -3.1461422775        7.3618777669        5.8084698360
  N        -3.1378581403        7.3848952201        7.8000966895
 Ga        -3.1381786976        5.5392768974        8.4507814405
  N        -3.1370508646        5.5399082149       10.4220466485
 Ga        -3.1382213829        7.3804575253       11.0715547393
  N        -3.1362362055        7.3615292375       13.0635045137
 Ga        -3.1287512862        5.5429650211       13.8635102205
  N        -3.1349408440        5.5390186686       16.0672200456
 Ga        -3.1364046195        7.5907350703       16.4916339378
 Ga        -3.1363721327        9.2503365615        1.5031784194
  N        -4.6346788766       10.1192953077        2.5118435720
 Ga        -4.8573755533        8.2713824593        3.2911175752
  N        -4.7465724362        8.3262037882        5.2515044912
 Ga        -4.7747508625       10.1996269701        5.7984606750
  N        -4.7554339039       10.1883113438        7.7953562426
 Ga        -4.7383120010        8.3326687432        8.4369572709
  N        -4.7345570800        8.3325453415       10.4302358819
 Ga        -4.7613438362       10.1917780835       11.0733451018
  N        -4.7764409336       10.2011411149       13.0674562996
 Ga        -4.7331394472        8.3320453132       13.6261168277
  N        -4.7600762839        8.3128145507       15.5870572085
 Ga        -4.5872910112       10.0919583674       16.4907192990
  N        -3.1436345185        9.2581703705       17.6177307910
  N         3.2883705869        1.8292967385        2.6141525268
 Ga         3.2868774233        0.0911045259        3.2899715127
  N         3.2944537155       -0.0313396025        5.2513405351
 Ga         3.2876612035        1.8283811249        5.8725355017
  N         3.2948345499        1.8259081761        7.8485707319
 Ga         3.2925181977       -0.0407347469        8.4396612335
  N         3.2946200336       -0.0422240022       10.4322969824
 Ga         3.2954108323        1.8271877796       11.0281841595
  N         3.2966492902        1.8266162779       12.9993152639
 Ga         3.2963531412       -0.0431074142       13.6265098467
  N         3.2994480288       -0.0095924396       15.5873977673
 Ga         3.2934030191        1.8267308652       15.8634693441
  N         1.5744463866        4.5514009379        2.5318689179
 Ga         1.7636361744        2.7100334464        3.2634910077
  N         1.6847791749        2.7547426493        5.2451155497
 Ga         1.7230724611        4.6181938874        5.8138476634
  N         1.6981420652        4.6155808608        7.8071915342
 Ga         1.6771663878        2.7572780767        8.4419422199
  N         1.6764005366        2.7601854152       10.4337990076
 Ga         1.7024987404        4.6192721643       11.0705238788
  N         1.7185610917        4.6303051452       13.0615175755
 Ga         1.6763116631        2.7622014062       13.6239042630
  N         1.7061619466        2.7454840777       15.5811476819
 Ga         1.5137037804        4.5097659241       16.4955238249
  N         0.0825671265        7.3852739789        2.7112712369
 Ga         0.0858627562        5.5836711527        3.3288152699
  N         0.0800384139        5.5330075506        5.2756563303
 Ga         0.0865323580        7.3950968438        5.8771892664
  N         0.0806356365        7.3972908075        7.8471200228
 Ga         0.0795979001        5.5271211300        8.4438470904
  N         0.0792548184        5.5267440739       10.4335983184
 Ga         0.0804385108        7.3969561381       11.0288502460
  N         0.0792910795        7.3977403674       12.9985140273
 Ga         0.0797607890        5.5274087606       13.6243405179
  N         0.0781104241        5.5588314930       15.5831327688
 Ga         0.0812111920        7.3971803674       15.8612586801
  N        -1.6405110327       10.1117115081        2.5362323260
 Ga        -1.4621200342        8.2837292391        3.3342518543
  N        -1.5308753791        8.3250100343        5.2711409731
 Ga        -1.5044244834       10.2052102258        5.8097167466
  N        -1.5194809582       10.1881389691        7.8013368055
 Ga        -1.5392471880        8.3310164570        8.4431953209
  N        -1.5402150406        8.3319697987       10.4329982321
 Ga        -1.5145103572       10.1918405497       11.0713790072
  N        -1.4969224780       10.2004204845       13.0634716783
 Ga        -1.5394647623        8.3323418342       13.6259847488
  N        -1.5125976114        8.3170772743       15.5873273584
 Ga        -1.6959565605       10.0862538922       16.4920083481
  N         6.5105877220        1.9452014834        2.5382961457
 Ga         6.5230529403       -0.0417337669        2.8541745139
  N         6.5090940419       -0.0292864641        5.0206886214
 Ga         6.5095848060        1.7988229932        5.8048568714
  N         6.5110885650        1.8150399942        7.8007079728
 Ga         6.5133222436       -0.0304452457        8.4479728983
  N         6.5124513089       -0.0301784703       10.4204161574
 Ga         6.5125226415        1.8095335099       11.0692553265
  N         6.5122363001        1.7883396749       13.0652736200
 Ga         6.5137790280       -0.0377990654       13.8640855333
  N         6.5137439229       -0.0300875221       16.0676544898
 Ga         6.5151305048        1.9844153740       16.4477630442
 Ga         6.5130628844        3.6795605938        1.5359586641
  N         5.0078612248        4.5486020688        2.5307558728
 Ga         4.7936041757        2.6967683409        3.2975616862
  N         4.9003164778        2.7545429021        5.2578654086
 Ga         4.8769422865        4.6269517713        5.8047640660
  N         4.8944983559        4.6169159785        7.8010437987
 Ga         4.9118289783        2.7596263473        8.4399497355
  N         4.9150385773        2.7615410857       10.4337735891
 Ga         4.8888169542        4.6212865494       11.0691493908
  N         4.8704568282        4.6315741735       13.0655830789
 Ga         4.9143122754        2.7609829156       13.6120132194
  N         4.8931690686        2.7459493530       15.5808943324
 Ga         5.0378374053        4.5350223764       16.4473105186
  N         6.5081516663        3.6859027600       17.5959254280
  N         3.2949479273        7.5192199680        2.5145347554
  N         3.2950401010        5.5367682688        5.0251438497
 Ga         3.3025883306        7.3643287891        5.7983448807
  N         3.2952506295        7.3864442112        7.7953542339
 Ga         3.2968232930        5.5414889555        8.4482177255
  N         3.2958894071        5.5409254311       10.4208072582
 Ga         3.2977948154        7.3813005677       11.0702299834
  N         3.2957550593        7.3620397177       13.0613649511
 Ga         3.2881840380        5.5451678780       13.8637670059
  N         3.2939482936        5.5413841929       16.0659823809
 Ga         3.2973791579        7.5990160298       16.4965085555
 Ga         3.3147621495        9.2629524821        1.3546837217
  N         1.7922574865       10.1181512246        2.5131343589
 Ga         1.6499538488        8.2976963110        3.2919229460
  N         1.6905749983        8.3251543484        5.2484618988
 Ga         1.6642170581       10.2002036399        5.7994257301
  N         1.6776538554       10.1867127250        7.7956046979
 Ga         1.6996630707        8.3319981872        8.4423295835
  N         1.6998565189        8.3327285698       10.4322649053
 Ga         1.6752034759       10.1920624045       11.0705005592
  N         1.6574281660       10.2001993084       13.0613725156
 Ga         1.6991849111        8.3324439671       13.6246298061
  N         1.6719556017        8.3188750483       15.5835437009
 Ga         1.8655570825       10.0837891137       16.4965253565
  N         3.3011269266        9.2554471642       17.6426376543
  N         9.7333435912        1.8244592913        2.6215980017
 Ga         9.7311519160        0.0650960789        3.2605629940
  N         9.7265574074       -0.0346128444        5.2391768944
 Ga         9.7326229254        1.8197407901        5.8667634440
  N         9.7276439603        1.8246279325        7.8453176303
 Ga         9.7304124427       -0.0423684859        8.4333331095
  N         9.7286972956       -0.0425608676       10.4282434410
 Ga         9.7284324714        1.8259769978       11.0256077826
  N         9.7272562311        1.8268667547       12.9966911105
 Ga         9.7279935705       -0.0423001249       13.6239325435
  N         9.7256684033       -0.0087891306       15.5800132562
 Ga         9.7310842385        1.8253489960       15.8602413563
  N         8.0148237943        4.5488537618        2.5370896374
 Ga         8.2284206283        2.6899640220        3.3006830217
  N         8.1199233371        2.7538243165        5.2601171702
 Ga         8.1423570683        4.6262808576        5.8030447611
  N         8.1293356073        4.6176091494        7.7991586977
 Ga         8.1119226506        2.7592105279        8.4368337977
  N         8.1091415146        2.7614175409       10.4317778205
 Ga         8.1343176305        4.6201093451       11.0695526107
  N         8.1531649265        4.6310831526       13.0653589792
 Ga         8.1107932910        2.7605535245       13.6106102024
  N         8.1337190676        2.7474660007       15.5770001347
 Ga         7.9850780252        4.5307750290       16.4475563163
  N         6.5070475193        7.3984169711        2.6088052912
 Ga         6.5055622860        5.6626267435        3.2956681622
  N         6.5100820808        5.5424595726        5.2559271006
 Ga         6.5043399635        7.4017947723        5.8696193863
  N         6.5104299595        7.3976222580        7.8447560801
 Ga         6.5117077662        5.5307801510        8.4378404426
  N         6.5120479574        5.5278460476       10.4320422445
 Ga         6.5109001136        7.3981339194       11.0258395737
  N         6.5121930211        7.3970914132       12.9977847417
 Ga         6.5121786403        5.5290825754       13.6119806517
  N         6.5147622772        5.5553252264       15.5809709148
 Ga         6.5110574678        7.4004201311       15.8641289431
  N         4.8020841800       10.1252722529        2.5028274529
 Ga         4.9850525968        8.2788710320        3.2579155699
  N         4.9019713569        8.3260327089        5.2365806328
 Ga         4.9295489836       10.1964715310        5.7870958230
  N         4.9140331809       10.1882166415        7.7895008333
 Ga         4.8942973535        8.3340827629        8.4335323769
  N         4.8931920691        8.3329794614       10.4279043200
 Ga         4.9185053203       10.1912551364       11.0718725809
  N         4.9350921311       10.2009045980       13.0648401378
 Ga         4.8923275949        8.3325547429       13.6245771599
  N         4.9213756124        8.3152739109       15.5819522999
 Ga         4.7359038190       10.0877987296       16.4959484592
 Ga         3.2753600904        5.5453415109        2.8498087386
  O         0.0116442081        7.3767705740        0.1901364202
  H         0.1193497497        7.3473580182        1.2334804398
  C         1.1789776166        6.7438246094       -0.3158991360
  H         2.1400333038        7.2291433460       -0.0479342663
  H         1.2926649996        5.6750331337       -0.0287292238
  H         1.1071774083        6.7528000115       -1.4132616708
     206
 i =        2, E =     -8480.5399242478
  N         0.0766051130        1.9481466533        2.4987552708
 Ga         0.0747103057       -0.0291782270        2.8322033080
  N         0.0795739122       -0.0269602262        5.0108926863
 Ga         0.0810095449        1.7963534323        5.8034405767
  N         0.0795587365        1.8149644072        7.7984013019
 Ga         0.0779025427       -0.0312390405        8.4470673257
  N         0.0789452890       -0.0306281079       10.4186722452
 Ga         0.0791810228        1.8078688421       11.0746663766
  N         0.0796650170        1.7900057148       13.0643736575
 Ga         0.0770417233       -0.0284101046       13.8797443643
  N         0.0767112716       -0.0280210934       16.0725936211
 Ga         0.0773668697        2.0208342959       16.4947885463
 Ga         0.0709527563        3.6990866781        1.4327048668
  N        -1.4227888081        4.5527297015        2.5344312303
 Ga        -1.6171237008        2.6957757235        3.2769052386
  N        -1.5258036412        2.7541837002        5.2466511555
 Ga        -1.5598237896        4.6199392692        5.8157036783
  N        -1.5409921260        4.6150647765        7.8052404379
 Ga        -1.5197394004        2.7566255009        8.4415109225
  N        -1.5173820311        2.7599580539       10.4316065339
 Ga        -1.5429449070        4.6191124643       11.0720132456
  N        -1.5597389536        4.6302248433       13.0612662512
 Ga        -1.5177240436        2.7613285596       13.6237470479
  N        -1.5444952968        2.7446761476       15.5782192453
 Ga        -1.3586811497        4.5076837033       16.4942103757
  N         0.0827740737        3.6832491466       17.6408827530
  N        -3.1355024470        7.5275775457        2.5420385988
 Ga        -3.1297129745        5.5432192159        2.8559521450
  N        -3.1352932814        5.5385450014        5.0209068149
 Ga        -3.1442166329        7.3656412179        5.8092051553
  N        -3.1394077463        7.3840234938        7.8002100213
 Ga        -3.1385020825        5.5396018186        8.4527959152
  N        -3.1370022651        5.5403675982       10.4218482802
 Ga        -3.1377730683        7.3810068682       11.0730949482
  N        -3.1363970508        7.3602876565       13.0650902906
 Ga        -3.1328212717        5.5396513306       13.8683790956
  N        -3.1412291015        5.5347196768       16.0662666442
 Ga        -3.1386598943        7.5805237805       16.4839734985
 Ga        -3.1225699050        9.2455239476        1.5109779204
  N        -4.6327566848       10.1183016278        2.5082674895
 Ga        -4.8533885120        8.2707198970        3.2900844703
  N        -4.7484405974        8.3256836543        5.2500849199
 Ga        -4.7727395616       10.1981968661        5.7996032717
  N        -4.7557980790       10.1885458608        7.7947346454
 Ga        -4.7380359026        8.3323720378        8.4387416935
  N        -4.7344787306        8.3330651885       10.4298741421
 Ga        -4.7611103284       10.1916456633       11.0755038778
  N        -4.7768960113       10.2013344726       13.0684261126
 Ga        -4.7334777745        8.3319018537       13.6271150863
  N        -4.7622616229        8.3156636024       15.5891466966
 Ga        -4.5917905393       10.0946220021       16.4842241365
  N        -3.1407551347        9.2565201986       17.5984241746
  N         3.2903392394        1.8270882750        2.6108950011
 Ga         3.2896053064        0.0883773675        3.2903344995
  N         3.2934980439       -0.0292599338        5.2507984569
 Ga         3.2889021813        1.8278184870        5.8734705700
  N         3.2936895026        1.8264442582        7.8471263137
 Ga         3.2931208484       -0.0407857880        8.4407984824
  N         3.2942308344       -0.0426546604       10.4314823805
 Ga         3.2953823279        1.8265784653       11.0290156187
  N         3.2952972059        1.8253550418       12.9971851228
 Ga         3.2962573775       -0.0429387480       13.6275177089
  N         3.2960010140       -0.0090373515       15.5894879903
 Ga         3.2949581191        1.8296167558       15.8624381644
  N         1.5804732807        4.5536998558        2.5406378557
 Ga         1.7728153262        2.7054432521        3.2670172281
  N         1.6840542706        2.7542357523        5.2425558317
 Ga         1.7199146850        4.6189400954        5.8137369497
  N         1.6995523757        4.6146592346        7.8047756779
 Ga         1.6772891358        2.7578717062        8.4447669427
  N         1.6760878611        2.7600797290       10.4334859757
 Ga         1.7022799008        4.6197571153       11.0721152592
  N         1.7194843549        4.6305671248       13.0619185726
 Ga         1.6764879297        2.7616710480       13.6251860536
  N         1.7020008456        2.7422553648       15.5813455859
 Ga         1.5200030687        4.5111527551       16.4941589248
  N         0.0938171251        7.3860353812        2.7348447149
 Ga         0.0843187847        5.6150339385        3.3254750091
  N         0.0792521731        5.5264137086        5.2757227563
 Ga         0.0855800330        7.3961442187        5.8660274374
  N         0.0809715893        7.3964946300        7.8405049042
 Ga         0.0798835360        5.5288675997        8.4410493792
  N         0.0793850448        5.5274341228       10.4303881789
 Ga         0.0802640036        7.3974933700       11.0301795748
  N         0.0789770747        7.3980162783       12.9996102117
 Ga         0.0796028505        5.5265775571       13.6260402168
  N         0.0768492422        5.5571476524       15.5850110220
 Ga         0.0830311407        7.3959288091       15.8641310147
  N        -1.6404272998       10.1144593717        2.5422725848
 Ga        -1.4402353176        8.2730040959        3.3273979310
  N        -1.5351048472        8.3271598374        5.2715773834
 Ga        -1.5056628071       10.2023296272        5.8089366958
  N        -1.5192726348       10.1900773745        7.8003983370
 Ga        -1.5377204099        8.3303884930        8.4387882534
  N        -1.5398929232        8.3317858692       10.4293238802
 Ga        -1.5145616574       10.1912732514       11.0728335051
  N        -1.4959655802       10.2011015941       13.0650208515
 Ga        -1.5402493569        8.3327442605       13.6276556145
  N        -1.5117756509        8.3165807255       15.5914042964
 Ga        -1.6882098778       10.0932065638       16.4843023486
  N         6.5108944879        1.9452127652        2.5362973381
 Ga         6.5185469925       -0.0440170413        2.8490736049
  N         6.5110138852       -0.0317033189        5.0173379162
 Ga         6.5098618009        1.7969515375        5.8037860876
  N         6.5111276941        1.8147823700        7.7981956732
 Ga         6.5129809581       -0.0303465279        8.4498515795
  N         6.5122055652       -0.0305391009       10.4200300512
 Ga         6.5123507340        1.8095503040       11.0692123121
  N         6.5121769219        1.7889924591       13.0596457791
 Ga         6.5147001751       -0.0326149365       13.8685747260
  N         6.5144928730       -0.0225376040       16.0669292384
 Ga         6.5156314591        2.0062757738       16.4664643457
 Ga         6.5123129441        3.6786761489        1.5335720462
  N         5.0086881052        4.5481027898        2.5288883106
 Ga         4.7944048639        2.6955980526        3.2973046108
  N         4.9004298361        2.7544092554        5.2561405785
 Ga         4.8770251816        4.6267765989        5.8043557694
  N         4.8940209755        4.6171476025        7.7988006695
 Ga         4.9118169545        2.7596216490        8.4403880694
  N         4.9144264821        2.7613898216       10.4314079157
 Ga         4.8891711923        4.6211150046       11.0697712449
  N         4.8711973858        4.6311944151       13.0608481644
 Ga         4.9141728544        2.7605934515       13.6133333741
  N         4.8913400540        2.7433169852       15.5729892059
 Ga         5.0551044454        4.5251148862       16.4658451920
  N         6.5059763155        3.6874082990       17.6228654047
  N         3.2963918079        7.5209669454        2.5231865257
  N         3.2937028263        5.5384267650        5.0233485360
 Ga         3.3019225433        7.3672828671        5.8013002826
  N         3.2971234108        7.3853133459        7.7955612464
 Ga         3.2970772611        5.5414114678        8.4506380915
  N         3.2958922633        5.5410635407       10.4205546137
 Ga         3.2972580901        7.3816925961       11.0714386066
  N         3.2960125166        7.3610953286       13.0615124135
 Ga         3.2922078342        5.5429141873       13.8688569996
  N         3.3004526801        5.5377952306       16.0635142387
 Ga         3.2993102882        7.5927825512       16.4945145693
 Ga         3.2963815844        9.2499930052        1.3979715334
  N         1.7943048014       10.1177511256        2.5150848292
 Ga         1.6306423215        8.2883639078        3.3006100857
  N         1.6973005935        8.3295558330        5.2587579088
 Ga         1.6655684140       10.1995886472        5.8026811750
  N         1.6780120581       10.1888166159        7.7960807888
 Ga         1.6982491140        8.3310511098        8.4382219920
  N         1.6994440190        8.3323422767       10.4281932626
 Ga         1.6749000015       10.1914204565       11.0712696139
  N         1.6565546026       10.2007803493       13.0609104707
 Ga         1.6999909487        8.3330489957       13.6261624055
  N         1.6725145901        8.3206394351       15.5854095622
 Ga         1.8628047914       10.0882219575       16.4949186624
  N         3.2978323112        9.2515902644       17.6412240265
  N         9.7312750584        1.8240135559        2.6145546214
 Ga         9.7293749095        0.0681418753        3.2627548674
  N         9.7278493344       -0.0333781331        5.2369079338
 Ga         9.7317789979        1.8201737032        5.8673554833
  N         9.7288512986        1.8245828847        7.8430272167
 Ga         9.7299359701       -0.0422512754        8.4356246423
  N         9.7290836540       -0.0428735129       10.4276100256
 Ga         9.7284541836        1.8256081869       11.0262100377
  N         9.7287178959        1.8259211743       12.9945400380
 Ga         9.7282451820       -0.0426610644       13.6245751967
  N         9.7293023113       -0.0105805212       15.5793452957
 Ga         9.7298851495        1.8261962787       15.8548736264
  N         8.0137263223        4.5481578216        2.5341817305
 Ga         8.2270588545        2.6902295097        3.2996054516
  N         8.1204795335        2.7534826274        5.2575464034
 Ga         8.1427959621        4.6261992003        5.8032709520
  N         8.1293922118        4.6175524741        7.7975706807
 Ga         8.1118238903        2.7590397011        8.4372042652
  N         8.1096632411        2.7611353485       10.4294435142
 Ga         8.1340018441        4.6201695101       11.0696312556
  N         8.1526361886        4.6308679685       13.0598246017
 Ga         8.1108158100        2.7605666708       13.6115737754
  N         8.1365004479        2.7458832238       15.5683400544
 Ga         7.9667007369        4.5195603315       16.4663179107
  N         6.5082556367        7.3990947247        2.6072808220
 Ga         6.5062573403        5.6628703501        3.2949558975
  N         6.5101489042        5.5425237687        5.2540600270
 Ga         6.5053750438        7.4013765815        5.8716635939
  N         6.5100209744        7.3980864374        7.8444591249
 Ga         6.5115086785        5.5308134772        8.4388118838
  N         6.5118836059        5.5285774903       10.4300519955
 Ga         6.5111013581        7.3986510172       11.0265713752
  N         6.5125200935        7.3989221593       12.9954913408
 Ga         6.5124884161        5.5295432011       13.6132800700
  N         6.5162060580        5.5581427281       15.5730789184
 Ga         6.5094966773        7.3975447953       15.8629761322
  N         4.8004353764       10.1237319200        2.4962688138
 Ga         4.9886972705        8.2755304461        3.2631010743
  N         4.9033404227        8.3267053880        5.2369595939
 Ga         4.9281504115       10.1959060805        5.7909245919
  N         4.9139384604       10.1883803152        7.7895005898
 Ga         4.8940899993        8.3335735434        8.4361460275
  N         4.8931574375        8.3332928101       10.4274742379
 Ga         4.9186794423       10.1911517592       11.0732333415
  N         4.9355905478       10.2009552831       13.0635493655
 Ga         4.8928495933        8.3326699679       13.6256160235
  N         4.9222516526        8.3204425976       15.5821142877
 Ga         4.7351804827       10.0880003393       16.4955074227
 Ga         3.2862674698        5.5494302696        2.8531732055
  O         0.0353780888        7.3627076833        0.1557572232
  H         0.0769590676        7.3650711822        1.2209887175
  C         1.1759035415        6.7430604854       -0.3687879133
  H         2.1293806805        7.2267381728       -0.0383695977
  H         1.2824405871        5.6880037140       -0.0088729845
  H         1.1088129860        6.7580934772       -1.4610015159
     206
 i =        3, E =     -8480.5418153337
  N         0.0784096374        1.9502512577        2.5015456624
 Ga         0.0753448946       -0.0300485270        2.8317241981
  N         0.0797545101       -0.0290962343        5.0079340858
 Ga         0.0801649413        1.7964583712        5.8009517167
  N         0.0796132996        1.8149348393        7.7954980484
 Ga         0.0783159756       -0.0311800800        8.4474416419
  N         0.0794277455       -0.0310345648       10.4182476320
 Ga         0.0794097210        1.8077036818       11.0752117431
  N         0.0798855619        1.7892955090       13.0637578607
 Ga         0.0769192883       -0.0285225320       13.8797283346
  N         0.0778285923       -0.0289235870       16.0728242334
 Ga         0.0780632097        2.0200368938       16.4938934221
 Ga         0.0765750470        3.7009141648        1.4482070144
  N        -1.4225862138        4.5547863053        2.5282962923
 Ga        -1.6199409261        2.6960665803        3.2780674245
  N        -1.5275729386        2.7531328631        5.2451326300
 Ga        -1.5584059506        4.6194111442        5.8135257646
  N        -1.5409266334        4.6153058008        7.8026011292
 Ga        -1.5195779903        2.7573383075        8.4416443484
  N        -1.5170368950        2.7605072625       10.4306806013
 Ga        -1.5425531871        4.6203425875       11.0726516208
  N        -1.5598730391        4.6308043117       13.0616389874
 Ga        -1.5167791752        2.7616721434       13.6240532862
  N        -1.5431452738        2.7447923519       15.5794273169
 Ga        -1.3602617183        4.5103483214       16.4928235569
  N         0.0834268843        3.6845306651       17.6389864443
  N        -3.1332222214        7.5215494066        2.5368906123
 Ga        -3.1341141563        5.5400969867        2.8589760804
  N        -3.1355193036        5.5399378161        5.0206288545
 Ga        -3.1432429322        7.3666676862        5.8106259230
  N        -3.1391248172        7.3846728765        7.8001836389
 Ga        -3.1382460429        5.5400190464        8.4526249279
  N        -3.1365346236        5.5413307369       10.4206414510
 Ga        -3.1366736200        7.3814207577       11.0742293598
  N        -3.1361317960        7.3603818559       13.0662319077
 Ga        -3.1353280376        5.5382001237       13.8714417796
  N        -3.1405414142        5.5360663205       16.0666654173
 Ga        -3.1387561077        7.5792128333       16.4792165912
 Ga        -3.1202137608        9.2439310354        1.5118227999
  N        -4.6332912247       10.1182666699        2.5087632542
 Ga        -4.8499257995        8.2703172859        3.2897600627
  N        -4.7481746799        8.3258840380        5.2497744818
 Ga        -4.7725969177       10.1981750571        5.8013480940
  N        -4.7551895305       10.1881620707        7.7949840099
 Ga        -4.7372987429        8.3319908086        8.4403541038
  N        -4.7336997539        8.3331424360       10.4300500339
 Ga        -4.7605843851       10.1914424288       11.0765236569