     156
 i =        1, E =     -6136.6188934978
 Ga        -0.0012423425       -0.0143223726       -0.5429233222
  N         0.0001429557        1.8587057635        0.6096219919
 Ga        -0.0018445014        1.8305367129        2.6427088314
  N        -0.0021990494       -0.0192212133        3.2697733348
 Ga        -0.0006226520       -0.0068806618        5.2669921557
  N        -0.0006242551        1.8648419617        5.8503565151
 Ga         0.0019482871        1.8600709468        7.8564755277
  N         0.0001535273       -0.0146873161        8.4452450501
 Ga         0.0044037925       -0.0149691371       10.4493284450
  N         0.0038018462        1.8599060304       11.0406446959
 Ga         0.0105699098        1.8638954431       13.0327537518
  N         0.0153445518       -0.0078579890       13.6290227881
 Ga         0.0306598563       -0.0113502816       15.6181133743
  N         0.0157696873        1.8568388015       16.2298129851
 Ga         0.0482982875        1.8477454124       18.2909777816
  N         0.0474208545       -0.0295032355       18.7104555669
 Ga        -1.6232018383        2.7897290716        0.3203381417
  N        -1.6243951850        4.6598645788        0.6088849620
 Ga        -1.5941657671        4.6714450363        2.6382928942
  N        -1.6233407991        2.7894564848        3.2281252779
 Ga        -1.6245652463        2.7908643060        5.2413357458
  N        -1.6183333756        4.6564130572        5.8483305644
 Ga        -1.6178533238        4.6603799635        7.8496509271
  N        -1.6214975373        2.7920191324        8.4473321478
 Ga        -1.6183317658        2.7952329344       10.4467264292
  N        -1.6173919346        4.6662884871       11.0519511987
 Ga        -1.6178827179        4.6702694409       13.0503804459
  N        -1.6078439354        2.7999487247       13.6559726152
 Ga        -1.5995667542        2.8128629404       15.6585590125
  N        -1.5907031409        4.6835344607       16.2959047255
 Ga        -1.5121922207        4.6748003650       18.3657455023
  N        -1.5534018011        2.7887642324       18.7798782090
 Ga        -3.2419218044        5.5963364891        0.3178222573
  N        -3.2378841433        7.4665198909        0.6075521377
 Ga        -3.2589951144        7.4839473749        2.6383761357
  N        -3.2401645667        5.6002362188        3.2294169872
 Ga        -3.2333308395        5.5908047048        5.2460579228
  N        -3.2328472082        7.4663760507        5.8449992115
 Ga        -3.2347680427        7.4675061001        7.8512505391
  N        -3.2379410723        5.5959910142        8.4455854060
 Ga        -3.2381606505        5.5970790818       10.4457988765
  N        -3.2307432728        7.4657820698       11.0536323571
 Ga        -3.2217212399        7.4634858171       13.0543559131
  N        -3.2333306576        5.5975572634       13.6890755953
 Ga        -3.2239691306        5.5969194551       15.7214534032
  N        -3.2158911193        7.4779254432       16.2590197655
 Ga        -3.1857989927        7.4539979764       18.3075561764
  N        -3.1526155475        5.5945750061       18.8767124229
 Ga         3.2433846183       -0.0151474161        0.3223511479
  N         3.2412440713        1.8551663995        0.6085373428
 Ga         3.2710005312        1.8670109239        2.6397494732
  N         3.2430125260       -0.0157626520        3.2292668886
 Ga         3.2480471448       -0.0132086253        5.2420421636
  N         3.2450578612        1.8550402016        5.8477102694
 Ga         3.2471846866        1.8556248160        7.8510538395
  N         3.2460438379       -0.0142737071        8.4468229138
 Ga         3.2476864433       -0.0136007963       10.4459856525
  N         3.2515787748        1.8570967688       11.0485173071
 Ga         3.2576607695        1.8543000100       13.0472601161
  N         3.2577409554       -0.0161847840       13.6586800492
 Ga         3.2677196158       -0.0191946063       15.6623218135
  N         3.2834597726        1.8574781648       16.2260443064
 Ga         3.3129794697        1.8598466029       18.2452627791
  N         3.3129076931       -0.0301583520       18.6956575721
 Ga         1.6228179518        2.7901952520        0.3189072017
  N         1.6306599722        4.6612199413        0.6083989647
 Ga         1.5886615156        4.6720124095        2.6356017451
  N         1.6243712438        2.7894196977        3.2289430207
 Ga         1.6257566851        2.7857404079        5.2439264765
  N         1.6237641304        4.6586415808        5.8468146071
 Ga         1.6286943978        4.6605267814        7.8565284268
  N         1.6271048009        2.7895420521        8.4457825751
 Ga         1.6290605453        2.7919454241       10.4462189816
  N         1.6281598305        4.6622604801       11.0475974723
 Ga         1.6292816515        4.6620319119       13.0438740370
  N         1.6325342843        2.7874784680       13.6448542120
 Ga         1.6474089465        2.7794502642       15.6381625617
  N         1.6326086353        4.6675622888       16.1747789991
 Ga         1.6768293951        4.6363311404       18.1651741820
  N         1.6837590122        2.7809625747       18.6622609669
 Ga         0.0027793130        5.5966015219       -0.5526546419
  N         0.0059186971        7.4686104185        0.6085785959
 Ga         0.0039176205        7.4411040239        2.6386075927
  N         0.0008868693        5.5987936990        3.2718938474
 Ga        -0.0019660455        5.5998443497        5.2648376892
  N         0.0075943663        7.4708783529        5.8476090962
 Ga         0.0085957456        7.4689894819        7.8510879288
  N         0.0039278866        5.5963381227        8.4433319767
 Ga         0.0070304961        5.5961525326       10.4445935562
  N         0.0117091783        7.4688884652       11.0432046738
 Ga         0.0145192952        7.4717975998       13.0373932403
  N         0.0060264846        5.6027354197       13.6460023767
 Ga         0.0019693262        5.6049170086       15.6400787135
  N         0.0340707737        7.4653413871       16.2801563035
 Ga         0.0856075234        7.4236182797       18.3622620043
  N         0.1457932016        5.5706045629       18.9291717302
 Ga         6.4844300830       -0.0132208685        0.3196476715
  N         6.4933918168        1.8559291029        0.6089701055
 Ga         6.4664637485        1.8718277713        2.6402803710
  N         6.4829039464       -0.0123294684        3.2313835897
 Ga         6.4845272455       -0.0098140192        5.2474339828
  N         6.4957153568        1.8577706985        5.8483048103
 Ga         6.4945717042        1.8570367929        7.8511037396
  N         6.4895226261       -0.0130361321        8.4484920266
 Ga         6.4948413855       -0.0110155782       10.4489440193
  N         6.4973489130        1.8615470327       11.0505884385
 Ga         6.5008106057        1.8656024661       13.0493563661
  N         6.4905429316       -0.0079917216       13.6430459026
 Ga         6.5057155308        0.0013812027       15.6433000635
  N         6.5199920592        1.8726993674       16.2329363860
 Ga         6.5725517637        1.8818819244       18.2726742682
  N         6.5627679348       -0.0172018434       18.6565802106
 Ga         4.8681278333        2.7889825641       -0.5496208144
  N         4.8710109278        4.6674340763        0.6074369697
 Ga         4.8819423421        4.6243560765        2.6368833292
  N         4.8673210224        2.7871911533        3.2704277924
 Ga         4.8697865351        2.7851912990        5.2622757390
  N         4.8753213063        4.6617354093        5.8499678781
 Ga         4.8734545914        4.6635961661        7.8580187417
  N         4.8712224746        2.7897858893        8.4475390530
 Ga         4.8738173851        2.7949308170       10.4507056704
  N         4.8796941339        4.6661007882       11.0558505246
 Ga         4.8838534133        4.6676258210       13.0594941641
  N         4.8758176143        2.7936614939       13.6492556813
 Ga         4.8858477658        2.7974600439       15.6589526039
  N         4.8688590594        4.6670519458       16.1700346698
 Ga         4.9302465828        4.6700300713       19.0969507153
  N         4.9326743806        2.7852975962       18.7532474485
 Ga         3.2488192447        5.5944884023        0.3094076014
  N         3.2460044180        7.4641868123        0.6033003921
 Ga         3.2689630497        7.4897361934        2.6316951437
  N         3.2523565758        5.5934594077        3.2298666911
 Ga         3.2473480873        5.5918782492        5.2556869179
  N         3.2486986324        7.4692139786        5.8417265077
 Ga         3.2519443072        7.4676356965        7.8533050670
  N         3.2512915193        5.5966307056        8.4495700311
 Ga         3.2540841936        5.5970389282       10.4535010467
  N         3.2573206795        7.4710716382       11.0490109169
 Ga         3.2587351154        7.4732540216       13.0476053508
  N         3.2512136190        5.5971801059       13.6321708508
 Ga         3.2614562068        5.6065670289       15.6377915179
  N         3.2826539977        7.4884146387       16.1598958127
 Ga         3.3260618458        7.4920390855       18.1711481939
  N         3.3454015462        5.5746244055       18.5001166836
  O         1.8273727178        4.9577725511       21.1593362052
  H         1.0634241115        5.3710496849       20.5517394129
  C         0.8942093008        4.0418484265       21.8523493361
  H         0.1437037620        3.5628037006       21.2005274139
  H         1.5372096704        3.2206980452       22.1832869923
  H         0.3337159999        4.3709635711       22.7427284936
  O         4.0455466044        4.7095663052       21.0599183607
  H         3.0158660647        4.8867594493       21.1151185502
  C         4.5409901676        3.6229770437       21.9259928428
  H         4.1233264965        2.6736569498       21.5625373512
  H         5.6344955120        3.5056148087       21.9645298157
  H         4.1838335552        3.8069325625       22.9476356284
     156
 i =        2, E =     -6136.6490858013
 Ga        -0.0010176062       -0.0139562163       -0.5430390038
  N         0.0001468925        1.8591120516        0.6091001130
 Ga        -0.0016616529        1.8304039390        2.6423620575
  N        -0.0030358694       -0.0186989340        3.2692398760
 Ga        -0.0014007091       -0.0081761166        5.2667260253
  N         0.0003586305        1.8631669794        5.8496284120
 Ga         0.0022732239        1.8600953036        7.8569503988
  N         0.0001338878       -0.0147457553        8.4455107280
 Ga         0.0045485472       -0.0151600066       10.4500262909
  N         0.0038681113        1.8599033038       11.0400477386
 Ga         0.0114720282        1.8636450278       13.0326730071
  N         0.0153135208       -0.0073003752       13.6295131984
 Ga         0.0325242335       -0.0144201673       15.6198613969
  N         0.0243335613        1.8561693570       16.2358704146
 Ga         0.0492660501        1.8525905328       18.2970819273
  N         0.0433326444       -0.0252957396       18.7063670206
 Ga        -1.6231005421        2.7894720798        0.3200800684
  N        -1.6241302765        4.6596242514        0.6076987615
 Ga        -1.5939359515        4.6716285266        2.6372603800
  N        -1.6229408155        2.7898628979        3.2278453636
 Ga        -1.6240307457        2.7909466421        5.2425362739
  N        -1.6189213070        4.6575902937        5.8478307873
 Ga        -1.6180124412        4.6604822120        7.8503224548
  N        -1.6211546431        2.7919670037        8.4480065444
 Ga        -1.6183534538        2.7952609524       10.4476992701
  N        -1.6173632279        4.6660699834       11.0515971491
 Ga        -1.6179226101        4.6698531590       13.0503093304
  N        -1.6064894314        2.7994620243       13.6592050513
 Ga        -1.5974583922        2.8124043726       15.6635263404
  N        -1.5918009034        4.6833215670       16.2975502914
 Ga        -1.5093453874        4.6745347724       18.3636733597
  N        -1.5560688643        2.7909483701       18.7781828403
 Ga        -3.2416309646        5.5966790808        0.3183379777
  N        -3.2373361363        7.4666848526        0.6074873541
 Ga        -3.2602944321        7.4830165327        2.6392528445
  N        -3.2398322500        5.5988607698        3.2289998135
 Ga        -3.2343815301        5.5908311753        5.2461046909
  N        -3.2329148229        7.4664577333        5.8452388841
 Ga        -3.2347701945        7.4674780944        7.8513596962
  N        -3.2381058838        5.5962769753        8.4466468540
 Ga        -3.2379922343        5.5972542179       10.4474135350
  N        -3.2307424234        7.4660444388       11.0529142756
 Ga        -3.2219411751        7.4635952716       13.0543025454
  N        -3.2341521423        5.5965906319       13.6832477992
 Ga        -3.2231499415        5.5948908965       15.7137836818
  N        -3.2168612911        7.4690169183       16.2551326367
 Ga        -3.1904841293        7.4559874261       18.2992449420
  N        -3.1463280872        5.5975808340       18.8869565965
 Ga         3.2433713337       -0.0149506284        0.3216650739
  N         3.2414424157        1.8550481370        0.6080088170
 Ga         3.2708943765        1.8682710165        2.6397432085
  N         3.2425069068       -0.0154756848        3.2281605393
 Ga         3.2475075563       -0.0136808954        5.2423310633
  N         3.2448972800        1.8550397781        5.8472126686
 Ga         3.2472812982        1.8556552305        7.8517139287
  N         3.2456266134       -0.0142044573        8.4477075230
 Ga         3.2476801960       -0.0135904383       10.4471339067
  N         3.2518738295        1.8569225950       11.0477115285
 Ga         3.2582775424        1.8543468356       13.0465151431
  N         3.2574378459       -0.0160366338       13.6581274234
 Ga         3.2631176013       -0.0219287196       15.6630720178
  N         3.2842715205        1.8556413128       16.2270085280
 Ga         3.3117164498        1.8607640232       18.2462166295
  N         3.3117719031       -0.0311340767       18.6929442998
 Ga         1.6230677224        2.7899435397        0.3195458392
  N         1.6299998392        4.6611403821        0.6075708269
 Ga         1.5890589571        4.6720877293        2.6348677887
  N         1.6232255917        2.7901784457        3.2286026269
 Ga         1.6256136730        2.7867796378        5.2441902459
  N         1.6257374910        4.6595789229        5.8467420340
 Ga         1.6288609498        4.6602819262        7.8568521799
  N         1.6271432647        2.7897910977        8.4467685447
 Ga         1.6295122738        2.7920463708       10.4478752632
  N         1.6285030951        4.6625570074       11.0474076028
 Ga         1.6292085584        4.6626577228       13.0444012597
  N         1.6332996613        2.7882371848       13.6407870807
 Ga         1.6493994009        2.7816324935       15.6339930210
  N         1.6304617609        4.6694422966       16.1737263520
 Ga         1.6757904745        4.6371876586       18.1601709106
  N         1.6822395857        2.7845637342       18.6626104972
 Ga         0.0030909066        5.5964602090       -0.5506837806
  N         0.0057205780        7.4685345702        0.6078503288
 Ga         0.0041853736        7.4408797032        2.6387801534
  N         0.0015642345        5.5978346058        3.2712340310
 Ga        -0.0009664072        5.5994991791        5.2651669450
  N         0.0077877457        7.4710501204        5.8475918402
 Ga         0.0084093309        7.4690923003        7.8523240709
  N         0.0042898116        5.5960027500        8.4442412130
 Ga         0.0070003634        5.5962905776       10.4461735870
  N         0.0118619304        7.4691745629       11.0422731348
 Ga         0.0143014665        7.4728282967       13.0363220851
  N         0.0051086201        5.6043570243       13.6446943653
 Ga         0.0003260197        5.6036063201       15.6382465861
  N         0.0354173178        7.4656020886       16.2818945898
 Ga         0.0847509076        7.4203038208       18.3647156314
  N         0.1457557151        5.5691446695       18.9364370255
 Ga         6.4838648831       -0.0127973116        0.3190980049
  N         6.4935091038        1.8560952040        0.6085037728
 Ga         6.4664835216        1.8715206323        2.6401862672
  N         6.4835964907       -0.0124000646        3.2301350203
 Ga         6.4858493077       -0.0110009407        5.2473788888
  N         6.4951705302        1.8570935004        5.8477664788
 Ga         6.4942908030        1.8573049672        7.8519167403
  N         6.4899581220       -0.0132144508        8.4490095989
 Ga         6.4950077540       -0.0109147715       10.4499196721
  N         6.4975477579        1.8615086897       11.0501434849
 Ga         6.5016810537        1.8653186877       13.0490668511
  N         6.4905405984       -0.0077148978       13.6443802548
 Ga         6.5073006621        0.0008338698       15.6450400461
  N         6.5212671051        1.8718772248       16.2373203062
 Ga         6.5720456947        1.8806362987       18.2782263596
  N         6.5575881741       -0.0178507659       18.6569423859
 Ga         4.8682723452        2.7888520666       -0.5509355115
  N         4.8718787870        4.6670967099        0.6066459308
 Ga         4.8811838408        4.6253744026        2.6364997795
  N         4.8680998259        2.7884555600        3.2699102674
 Ga         4.8693782474        2.7864225912        5.2628301036
  N         4.8744644456        4.6624806035        5.8507702225
 Ga         4.8737050815        4.6637475756        7.8587017342
  N         4.8710886739        2.7902221437        8.4487064740
 Ga         4.8738845844        2.7947386650       10.4521114712
  N         4.8794371414        4.6661260233       11.0547449498
 Ga         4.8833604153        4.6664024222       13.0587350630
  N         4.8767765443        2.7925518625       13.6473092632
 Ga         4.8860262685        2.7974555032       15.6577572564
  N         4.8704374097        4.6666642462       16.1676896493
 Ga         4.9303599510        4.6743674496       19.0838199949
  N         4.9316707691        2.7861209564       18.7562510976
 Ga         3.2491151101        5.5942972348        0.3125900866
  N         3.2451561684        7.4646469004        0.6026865554
 Ga         3.2693829292        7.4883952119        2.6311700382
  N         3.2521821783        5.5929671831        3.2296299884
 Ga         3.2477515702        5.5920940026        5.2545473648
  N         3.2487885222        7.4682231596        5.8418071280
 Ga         3.2522778708        7.4676589323        7.8534613117
  N         3.2514064521        5.5967256980        8.4495610198
 Ga         3.2540367598        5.5972905266       10.4540839156
  N         3.2573825741        7.4711277880       11.0482466459
 Ga         3.2589749538        7.4745748648       13.0470337153
  N         3.2515939657        5.5987510252       13.6295042857
 Ga         3.2618576266        5.6048325751       15.6357497836
  N         3.2839734275        7.4851232704       16.1673294324
 Ga         3.3216306355        7.4921343790       18.1785670826
  N         3.3413149882        5.5761109434       18.4950036828
  O         1.6775721445        4.9900845795       21.2007213785
  H         1.0942176188        5.4110478621       20.4639450279
  C         0.8950816937        3.9629286035       21.8858211233
  H         0.1509296379        3.5790157499       21.1648227747
  H         1.5712149546        3.1697828783       22.2085106779
  H         0.3569101639        4.4225550773       22.7388765949
  O         4.1153504964        4.7173204695       21.0697973582
  H         3.0444943546        4.8634689455       21.1293062428
  C         4.5201503327        3.6088680995       21.9364187225
  H         4.1194077946        2.6569599695       21.5607417250
  H         5.6203381472        3.5334211858       21.9445061577
  H         4.1792914402        3.8116670613       22.9600435358
     156
 i =        3, E =     -6136.6534964621
 Ga        -0.0021591338       -0.0145102949       -0.5343976017
  N        -0.0001600360        1.8595242236        0.6055705729
 Ga        -0.0003403498        1.8279042135        2.6383366589
  N        -0.0048629573       -0.0155107837        3.2683720839
 Ga        -0.0034414846       -0.0157615414        5.2613439773
  N         0.0024264706        1.8573518136        5.8471760704
 Ga         0.0029181323        1.8585925354        7.8510331808
  N         0.0005869355       -0.0151517916        8.4494145341
 Ga         0.0042951095       -0.0152957829       10.4506561225
  N         0.0041534349        1.8599022920       11.0440472872
 Ga         0.0114827463        1.8630726347       13.0376355419
  N         0.0156619541       -0.0085301827       13.6297048591
 Ga         0.0315882225       -0.0123465978       15.6220298200
  N         0.0321529136        1.8546347812       16.2435004530
 Ga         0.0481737990        1.8553975841       18.3045479027
  N         0.0421578432       -0.0232839092       18.6968389083
 Ga        -1.6230726067        2.7894709321        0.3226898408
  N        -1.6238015322        4.6594048943        0.6046692451
 Ga        -1.5949305016        4.6750661664        2.6351278299
  N        -1.6219881438        2.7905881222        3.2275248734
 Ga        -1.6212689664        2.7907997004        5.2427665437
  N        -1.6216966720        4.6621909469        5.8460481938
 Ga        -1.6191684977        4.6614222490        7.8477808269
  N        -1.6198638824        2.7917110694        8.4510834666
 Ga        -1.6186639951        2.7949226941       10.4485630089
  N        -1.6171560444        4.6658311514       11.0537344041
 Ga        -1.6178098936        4.6686186727       13.0514702630
  N        -1.6065996990        2.7991747115       13.6622567254
 Ga        -1.5894239456        2.8096520967       15.6674269178
  N        -1.5900920483        4.6795956515       16.3049617298
 Ga        -1.5140972423        4.6814505991       18.3753738195
  N        -1.5609536910        2.7930220524       18.7693383801
 Ga        -3.2424967730        5.5962203248        0.3235986183
  N        -3.2363806131        7.4664922870        0.6061300302
 Ga        -3.2658815658        7.4798075152        2.6399291263
  N        -3.2413332165        5.5938384899        3.2277898806
 Ga        -3.2419069349        5.5947526199        5.2416691861
  N        -3.2352755027        7.4664169772        5.8469067982
 Ga        -3.2356021703        7.4671033248        7.8473017911
  N        -3.2397541321        5.5967563794        8.4505342780
 Ga        -3.2381290632        5.5975135184       10.4482447730
  N        -3.2308412976        7.4664868816       11.0532546083
 Ga        -3.2231494020        7.4636035075       13.0529005340
  N        -3.2342702524        5.5963329696       13.6796509727
 Ga        -3.2218453870        5.5890920208       15.7106465348
  N        -3.2184976979        7.4617922409       16.2486886458
 Ga        -3.1940433433        7.4534623643       18.2960056005
  N        -3.1594993116        5.5936737003       18.8841057302
 Ga         3.2428768537       -0.0147973424        0.3228721919
  N         3.2416044239        1.8546082012        0.6056650897
 Ga         3.2695933119        1.8720849943        2.6376980029
  N         3.2415601141       -0.0149762227        3.2262884732
 Ga         3.2436969430       -0.0152843953        5.2412434280
  N         3.2444154570        1.8554536222        5.8464205085
 Ga         3.2471764224        1.8562116696        7.8492150519
  N         3.2444382151       -0.0145389379        8.4503546784
 Ga         3.2477346256       -0.0138185925       10.4471977617
  N         3.2520423945        1.8565157696       11.0490995665
 Ga         3.2595865875        1.8542777098       13.0465773561
  N         3.2554832901       -0.0163164049       13.6591624376
 Ga         3.2631521044       -0.0216437549       15.6672619875
  N         3.2837078127        1.8587795746       16.2232630093
 Ga         3.3137220812        1.8642818958       18.2451037714
  N         3.3059400962       -0.0282258344       18.6917169623
 Ga         1.6230425539        2.7900630564        0.3241122372
  N         1.6280382133        4.6604545369        0.6057245334
 Ga         1.5989987437        4.6751154666        2.6355591006
  N         1.6205238875        2.7913574760        3.2280646324
 Ga         1.6242031760        2.7917636101        5.2421932045
  N         1.6324084332        4.6624006954        5.8478767064
 Ga         1.6302045012        4.6607727558        7.8508027567
  N         1.6262970187        2.7907165129        8.4504477513
 Ga         1.6299487456        2.7916425326       10.4486389731
  N         1.6284549317        4.6629985994       11.0476452210
 Ga         1.6292574050        4.6640404409       13.0439214595
  N         1.6352337967        2.7898151252       13.6369216725
 Ga         1.6471656569        2.7790313502       15.6307133039
  N         1.6302081038        4.6681396555       16.1737576795
 Ga         1.6827420197        4.6382747866       18.1627950336
  N         1.6813937820        2.7841889763       18.6528222935
 Ga         0.0037880184        5.5957346998       -0.5438053223
  N         0.0054336115        7.4698278537        0.6053715709
 Ga         0.0059728227        7.4387314334        2.6376298783
  N         0.0038862104        5.5942445645        3.2686042143
 Ga         0.0052642077        5.5963486063        5.2617419736
  N         0.0078389859        7.4711029980        5.8475136124
 Ga         0.0084680292        7.4694167318        7.8504919078
  N         0.0055172882        5.5952156712        8.4478639925
 Ga         0.0064393701        5.5973341190       10.4473053664
  N         0.0121781237        7.4699810601       11.0444030298
 Ga         0.0140987205        7.4746069382       13.0374249792
  N         0.0043513770        5.6056560490       13.6433581657
 Ga        -0.0001012301        5.6008763889       15.6372521300
  N         0.0373776822        7.4633894433       16.2801025103
 Ga         0.0795995105        7.4252894634       18.3665033923
  N         0.1505870808        5.5718996395       18.9278153452
 Ga         6.4850551328       -0.0136459507        0.3214805473
  N         6.4939120997        1.8555367206        0.6056193453
 Ga         6.4663227796        1.8698917179        2.6375993970
  N         6.4883733858       -0.0149404047        3.2266204624
 Ga         6.4913030522       -0.0160095198        5.2423020301
  N         6.4938178440        1.8548997213        5.8468977196
 Ga         6.4940231372        1.8574708490        7.8498833604
  N         6.4914777961       -0.0138471867        8.4511914191
 Ga         6.4949543585       -0.0107552136       10.4493564044
  N         6.4977031678        1.8609755892       11.0528200242
 Ga         6.5023773028        1.8654361852       13.0505576711
  N         6.4906996520       -0.0067850167       13.6458548518
 Ga         6.5081536339        0.0008625627       15.6484685786
  N         6.5260281391        1.8742680717       16.2368476112
 Ga         6.5681564336        1.8793957624       18.2808772693
  N         6.5546600388       -0.0183802997       18.6557166371
 Ga         4.8680921336        2.7906952973       -0.5474316192
  N         4.8728814154        4.6648839457        0.6052746670
 Ga         4.8719271393        4.6333525233        2.6365673642
  N         4.8696163814        2.7918450514        3.2684728387
 Ga         4.8688517966        2.7922649331        5.2615729455
  N         4.8712200073        4.6659308148        5.8502003034
 Ga         4.8734814993        4.6642304345        7.8515532087
  N         4.8708438738        2.7918226823        8.4518586543
 Ga         4.8741727523        2.7944416316       10.4526416064
  N         4.8790824782        4.6659136508       11.0554066271
 Ga         4.8823051812        4.6660608018       13.0588948164
  N         4.8773088866        2.7919130141       13.6479425793
 Ga         4.8871750825        2.7969026135       15.6603086313
  N         4.8704482999        4.6667217651       16.1672182368
 Ga         4.9182272189        4.6740656116       19.1181589125
  N         4.9321613733        2.7911409448       18.7525434251
 Ga         3.2494346507        5.5942320882        0.3269427440
  N         3.2456432242        7.4661285740        0.6036288759
 Ga         3.2750210082        7.4801955072        2.6349905217
  N         3.2492296386        5.5942296684        3.2281799026
 Ga         3.2501465325        5.5957012999        5.2415398695
  N         3.2502477058        7.4649002231        5.8476058412
 Ga         3.2535433421        7.4669871213        7.8507118322
  N         3.2516418281        5.5964482726        8.4535023325
 Ga         3.2546887843        5.5982066571       10.4547396268
  N         3.2569412020        7.4717454411       11.0503660284
 Ga         3.2592725153        7.4751073590       13.0483567971
  N         3.2503209414        5.5993612177       13.6275217879
 Ga         3.2635908746        5.6048444585       15.6352052267
  N         3.2841536943        7.4841455360       16.1737703589
 Ga         3.3189456072        7.4909486069       18.1878204698
  N         3.3501671743        5.5751434947       18.4751532457
  O         1.7024993892        5.0122262909       21.2173164237
  H         1.1081593023        5.3840255637       20.4716938964
  C         0.8962838665        3.9830807606       21.8631502255