     147
 i =        1, E =     -6095.2311157301
 Ga         0.0004497456       -0.0024979589       -0.5882155664
  N         0.0033098814        1.8717224333        0.5662057051
 Ga         0.0028327558        1.8392441392        2.5960945819
  N        -0.0000816127       -0.0036686844        3.2298225628
 Ga         0.0005110948       -0.0031823723        5.2207307463
  N         0.0031678918        1.8716205308        5.8076480809
 Ga         0.0028819087        1.8701882672        7.8062443708
  N         0.0001410331       -0.0030698089        8.4082266427
 Ga        -0.0004839847       -0.0005844745       10.4055965910
  N         0.0032152000        1.8712374120       11.0093162671
 Ga         0.0026601589        1.8787989802       13.0030548730
  N        -0.0020421895        0.0094980591       13.6098929564
 Ga        -0.0073179889        0.0160468268       15.6148578505
  N         0.0143604419        1.8833804366       16.2597452194
 Ga        -0.0026054829        1.8865754388       18.3783210887
  N         0.0020371659        0.0022399764       18.6646269190
 Ga        -1.6183957399        2.8026736374        0.2812456764
  N        -1.6212457846        4.6720377993        0.5659742099
 Ga        -1.5928012056        4.6877172033        2.5956600503
  N        -1.6192970319        2.8022184681        3.1880200703
 Ga        -1.6189153096        2.8027466443        5.1987181935
  N        -1.6192285396        4.6728243105        5.8077208673
 Ga        -1.6186151794        4.6733602077        7.8065938928
  N        -1.6200233968        2.8022949029        8.4105465000
 Ga        -1.6189842753        2.8044956343       10.4065039101
  N        -1.6133061488        4.6747208262       11.0140101479
 Ga        -1.6079494923        4.6753031463       13.0111115783
  N        -1.6151355967        2.8058921592       13.6247805903
 Ga        -1.6156966761        2.8127235069       15.6398792028
  N        -1.6097268875        4.6934666634       16.2082414203
 Ga        -1.6096886713        4.6631417909       18.2853699881
  N        -1.6223947003        2.8106273368       18.7543860126
 Ga        -3.2391130761        5.6087694133        0.2807553895
  N        -3.2329208815        7.4782397386        0.5660224738
 Ga        -3.2616074907        7.4931802876        2.5959448734
  N        -3.2393166119        5.6077159521        3.1886201995
 Ga        -3.2392377276        5.6084543811        5.1994826088
  N        -3.2335294399        7.4779983121        5.8087265722
 Ga        -3.2348242171        7.4776531074        7.8076870810
  N        -3.2389675201        5.6077128684        8.4149391799
 Ga        -3.2385981592        5.6082667709       10.4128792485
  N        -3.2374355900        7.4829352867       11.0134721746
 Ga        -3.2359131116        7.4856496835       13.0106853307
  N        -3.2356060924        5.6080935985       13.5912641295
 Ga        -3.2346601900        5.6041102704       15.5873103497
  N        -3.2511777404        7.4792383644       16.1680748279
 Ga        -3.2496986772        7.4897894801       18.2247222665
  N        -3.2377712092        5.6118155770       18.5997369236
 Ga         3.2461292480       -0.0037503662        0.2813046505
  N         3.2455637393        1.8673407373        0.5658952529
 Ga         3.2719030102        1.8817232619        2.5982134165
  N         3.2453469203       -0.0038279258        3.1880174462
 Ga         3.2455773932       -0.0031183610        5.1986430300
  N         3.2461645306        1.8669699862        5.8074119030
 Ga         3.2467789781        1.8668774568        7.8063546060
  N         3.2458771819       -0.0034858398        8.4121006943
 Ga         3.2459944499       -0.0015060891       10.4086618132
  N         3.2463586388        1.8696996491       11.0137115612
 Ga         3.2417007339        1.8684409715       13.0106993087
  N         3.2477017292       -0.0002145489       13.6287280972
 Ga         3.2523244283       -0.0024077187       15.6380210514
  N         3.2282162678        1.8807450455       16.2036894291
 Ga         3.2551314523        1.8732262699       18.2733827538
  N         3.2456204000       -0.0123187774       18.5773115650
 Ga         1.6250285213        2.8031291843        0.2814059165
  N         1.6330704395        4.6725835539        0.5661418514
 Ga         1.6043848438        4.6877583087        2.5958215612
  N         1.6255584560        2.8021523911        3.1882181979
 Ga         1.6261181040        2.8026855316        5.1990500137
  N         1.6319224577        4.6729041082        5.8078778940
 Ga         1.6304644425        4.6732428972        7.8069065765
  N         1.6261147858        2.8022669343        8.4106470663
 Ga         1.6259063803        2.8051988033       10.4064192953
  N         1.6249651014        4.6744811045       11.0169477654
 Ga         1.6190778329        4.6735856963       13.0142276287
  N         1.6225422831        2.8032833776       13.6192537648
 Ga         1.6233209476        2.8186166049       15.6228999655
  N         1.6321077190        4.6821178786       16.1690813879
 Ga         1.6590011895        4.6620293002       18.1875698069
  N         1.6451307656        2.8085361744       18.7083324913
 Ga         0.0066250728        5.6088748184       -0.5854481255
  N         0.0094979158        7.4834418420        0.5663689475
 Ga         0.0089748515        7.4506261891        2.5958630361
  N         0.0060675522        5.6072235855        3.2287131163
 Ga         0.0066375677        5.6081486931        5.2193516314
  N         0.0094443132        7.4829003040        5.8070129395
 Ga         0.0088987179        7.4808677973        7.8056238966
  N         0.0061267792        5.6082870592        8.4078545325
 Ga         0.0069544631        5.6097279507       10.4054516328
  N         0.0087433774        7.4804085544       11.0153630580
 Ga         0.0071405197        7.4785613450       13.0142048983
  N         0.0060378556        5.6140386296       13.6277077513
 Ga         0.0138565667        5.6146401112       15.6315680552
  N         0.0061236319        7.4753462880       16.2380294312
 Ga         0.0256081237        7.4611826605       18.3123528797
  N         0.0430104010        5.5682125035       18.7170964140
 Ga         6.4911379917       -0.0032565470        0.2812399684
  N         6.4969269529        1.8678662637        0.5659031447
 Ga         6.4703121857        1.8818854634        2.5982354692
  N         6.4914239334       -0.0037685571        3.1880199617
 Ga         6.4921649682       -0.0031499790        5.1985896678
  N         6.4972182856        1.8670194003        5.8069799871
 Ga         6.4955821827        1.8669996378        7.8056753830
  N         6.4907871284       -0.0032126459        8.4119058903
 Ga         6.4911058734       -0.0022252000       10.4086932666
  N         6.4959615622        1.8696316677       11.0157764557
 Ga         6.4987501397        1.8692636585       13.0156231587
  N         6.4863563243       -0.0020746624       13.6289504335
 Ga         6.4807932136       -0.0058181454       15.6391026507
  N         6.4998807666        1.8772573158       16.1951089224
 Ga         6.5224491209        1.8839404685       18.2683469750
  N         6.5041032359        0.0003080162       18.6125366183
 Ga         4.8719142988        2.8030049704       -0.5637326771
  N         4.8748429332        4.6763701198        0.5659142563
 Ga         4.8743307911        4.6462179809        2.5981662422
  N         4.8713982107        2.8020476863        3.2292003972
 Ga         4.8719211581        2.8029314603        5.2207032627
  N         4.8747542557        4.6772529791        5.8097815770
 Ga         4.8743075923        4.6753378890        7.8098472147
  N         4.8716532346        2.8006526229        8.4093099100
 Ga         4.8712383504        2.8016766726       10.4078890607
  N         4.8742974646        4.6719541381       11.0118716714
 Ga         4.8737737814        4.6687899591       13.0082988832
  N         4.8681283184        2.7926136394       13.6122793491
 Ga         4.8660783867        2.8020011152       15.6158701431
  N         4.8651803070        4.6861805975       16.1258822686
 Ga         4.8983391563        4.6693282912       18.1606731653
  N         4.8828072127        2.8080764734       18.5730475085
 Ga         3.2519559414        5.6081859568        0.2808672333
  N         3.2509505391        7.4776169994        0.5659032549
 Ga         3.2793188264        7.4930002967        2.5958464786
  N         3.2517216354        5.6076208613        3.1885723474
 Ga         3.2526129786        5.6083408584        5.1994158630
  N         3.2523816663        7.4779248316        5.8089206438
 Ga         3.2529056245        7.4775233783        7.8080257644
  N         3.2513957538        5.6075006160        8.4153085343
 Ga         3.2503811520        5.6081306524       10.4133627485
  N         3.2551360336        7.4826655673       11.0133059707
 Ga         3.2523545400        7.4851502565       13.0102142583
  N         3.2479299810        5.6083146976       13.5876730418
 Ga         3.2375118578        5.6042700728       15.5745686175
  N         3.2614099319        7.4662627131       16.1585770942
 Ga         3.2697299934        7.5012124833       18.2114816997
  N         3.2806585131        5.6098616130       18.5752518048
  C         1.4702202423        4.7720434622       20.2546004982
  H         1.7010074270        5.7627399915       20.7121671119
  H         0.7794569462        4.0535694505       20.7411545106
     147
 i =        2, E =     -6095.2656507816
 Ga         0.0005292973       -0.0025537763       -0.5879997894
  N         0.0033033231        1.8717771871        0.5660055033
 Ga         0.0028606158        1.8393043462        2.5959483030
  N        -0.0001392855       -0.0036471704        3.2297874106
 Ga         0.0004431304       -0.0031407800        5.2207842347
  N         0.0031711259        1.8716536783        5.8077742181
 Ga         0.0029825268        1.8704205082        7.8065640152
  N         0.0002513288       -0.0031009193        8.4078419820
 Ga        -0.0005145159       -0.0001560598       10.4055762393
  N         0.0032321153        1.8713270031       11.0090819989
 Ga         0.0025469101        1.8788176534       13.0038099772
  N        -0.0026136459        0.0099145364       13.6128727993
 Ga        -0.0093385400        0.0150609399       15.6194373048
  N         0.0211103755        1.8828968368       16.2554700415
 Ga        -0.0071092212        1.8774943267       18.3668402655
  N         0.0006266094        0.0050006357       18.6732332249
 Ga        -1.6186359327        2.8026047980        0.2820082179
  N        -1.6208500628        4.6722334689        0.5659410023
 Ga        -1.5927626747        4.6877572326        2.5957066230
  N        -1.6192071953        2.8022242204        3.1881114860
 Ga        -1.6188960209        2.8028050327        5.1988602726
  N        -1.6192225001        4.6728536039        5.8079689364
 Ga        -1.6186064408        4.6736387661        7.8070893491
  N        -1.6201725035        2.8023225537        8.4107366598
 Ga        -1.6189503153        2.8048518271       10.4074279029
  N        -1.6137482127        4.6749440736       11.0128118578
 Ga        -1.6088051912        4.6756356673       13.0106717252
  N        -1.6132763804        2.8070061282       13.6246911023
 Ga        -1.6121777217        2.8173912973       15.6435603594
  N        -1.5969993637        4.6994607964       16.2071879155
 Ga        -1.5883423726        4.6575254962       18.2824073207
  N        -1.6188296719        2.8084470965       18.7585200373
 Ga        -3.2392069061        5.6085656044        0.2815167157
  N        -3.2328895982        7.4782248130        0.5658450091
 Ga        -3.2615922967        7.4932013182        2.5958727919
  N        -3.2392339841        5.6077556177        3.1887221729
 Ga        -3.2392159728        5.6084295900        5.1996692181
  N        -3.2335843378        7.4780695814        5.8085275133
 Ga        -3.2348661764        7.4775344752        7.8074238919
  N        -3.2390290583        5.6079764337        8.4146503979
 Ga        -3.2385114800        5.6082547318       10.4130928794
  N        -3.2375384879        7.4831800673       11.0147274087
 Ga        -3.2350188664        7.4850951650       13.0135521943
  N        -3.2341904004        5.6089071134       13.5940045449
 Ga        -3.2320133833        5.5996748174       15.5940048695
  N        -3.2573880100        7.4769012764       16.1815195568
 Ga        -3.2485434755        7.4899099121       18.2455440790
  N        -3.2151319086        5.6096950398       18.6067223351
 Ga         3.2462042307       -0.0036475072        0.2819988617
  N         3.2455790665        1.8673391109        0.5664657953
 Ga         3.2719311001        1.8817482570        2.5982820622
  N         3.2453920748       -0.0039371759        3.1880821767
 Ga         3.2455693223       -0.0031560513        5.1987530372
  N         3.2461089633        1.8669630025        5.8075347268
 Ga         3.2466645861        1.8670733152        7.8066293004
  N         3.2456050571       -0.0035378671        8.4116773291
 Ga         3.2459013662       -0.0013739377       10.4084342309
  N         3.2466319616        1.8692689548       11.0131976417
 Ga         3.2426875089        1.8666391033       13.0106949952
  N         3.2489206266       -0.0003687587       13.6353129877
 Ga         3.2515714896       -0.0056534602       15.6501030063
  N         3.2277605871        1.8788420820       16.2050140328
 Ga         3.2778943336        1.8588256661       18.2770943778
  N         3.2583176669       -0.0216736318       18.5797003178
 Ga         1.6252105891        2.8030597804        0.2820776783
  N         1.6326816104        4.6727601981        0.5661710455
 Ga         1.6043875415        4.6878106168        2.5959680945
  N         1.6254780471        2.8021671600        3.1883128583
 Ga         1.6260697029        2.8027381872        5.1991953324
  N         1.6318849561        4.6729447635        5.8079969248
 Ga         1.6303764638        4.6734389434        7.8071902695
  N         1.6261507304        2.8024670631        8.4109235719
 Ga         1.6260055373        2.8057799752       10.4073813099
  N         1.6254406765        4.6744160557       11.0177548117
 Ga         1.6213699360        4.6722258043       13.0163820512
  N         1.6239509786        2.8008929894       13.6145126866
 Ga         1.6232381140        2.8211102964       15.6141302036
  N         1.6276458055        4.6817862717       16.1061779687
 Ga         1.6917783257        4.6455155594       18.0475056398
  N         1.6572512004        2.8092196127       18.6664386890
 Ga         0.0066304775        5.6087895532       -0.5860848045
  N         0.0095124218        7.4829982569        0.5662690108
 Ga         0.0089794397        7.4505869919        2.5958347388
  N         0.0060485773        5.6072491054        3.2288550533
 Ga         0.0066001427        5.6081459820        5.2195725422
  N         0.0094590285        7.4829704719        5.8073359431
 Ga         0.0088375174        7.4806128366        7.8061516920
  N         0.0061599461        5.6081978758        8.4085145196
 Ga         0.0073968465        5.6091169077       10.4069611679
  N         0.0085161124        7.4807686808       11.0143046272
 Ga         0.0062001250        7.4782143146       13.0131821235
  N         0.0066738888        5.6133070495       13.6129351639
 Ga         0.0161999630        5.6080196188       15.6070138083
  N         0.0062734597        7.4553175689       16.2548462610
 Ga         0.0410451146        7.4391902036       18.3362753183
  N         0.1027498837        5.5332330054       18.8389221107
 Ga         6.4910180316       -0.0031106805        0.2819815803
  N         6.4968621351        1.8678851288        0.5664958313
 Ga         6.4703135478        1.8819349275        2.5982895944
  N         6.4914677655       -0.0038879836        3.1879961909
 Ga         6.4921303228       -0.0032288774        5.1986214674
  N         6.4972471103        1.8669720012        5.8069129507
 Ga         6.4955538402        1.8672016796        7.8056907983
  N         6.4907587871       -0.0030292948        8.4119637525
 Ga         6.4909723381       -0.0018999925       10.4091528540
  N         6.4957502763        1.8698488669       11.0182218097
 Ga         6.4979931486        1.8697566349       13.0209584322
  N         6.4847708730       -0.0031424175       13.6324020348
 Ga         6.4776854506       -0.0084382800       15.6459987152
  N         6.4920432638        1.8759539407       16.1854458626
 Ga         6.5247937060        1.8823016296       18.2611344444
  N         6.5053563387        0.0056632249       18.6405555437
 Ga         4.8719237599        2.8029857655       -0.5683421839
  N         4.8748793870        4.6763314432        0.5664876497
 Ga         4.8743406640        4.6462621769        2.5982508646
  N         4.8713871318        2.8020371727        3.2294748587
 Ga         4.8718784598        2.8029551825        5.2208681544
  N         4.8747497671        4.6773221566        5.8098840588
 Ga         4.8742849616        4.6756516611        7.8101448251
  N         4.8716584413        2.8007708733        8.4093623353
 Ga         4.8711228102        2.8023707078       10.4087126887
  N         4.8745716310        4.6727644536       11.0109152091
 Ga         4.8746936375        4.6709978539       13.0086098813
  N         4.8652326572        2.7965882461       13.6093693662
 Ga         4.8639840302        2.8155606789       15.6144656573
  N         4.8623732444        4.6918634683       16.1339689214
 Ga         4.9200317957        4.6597597853       18.1701312245
  N         4.8914896404        2.8085107986       18.5839337795
 Ga         3.2520382282        5.6079300007        0.2816838564
  N         3.2508995448        7.4775803171        0.5656903481
 Ga         3.2793922270        7.4930081327        2.5957022509
  N         3.2516476634        5.6077504413        3.1887423850
 Ga         3.2525547635        5.6083617017        5.1996676981
  N         3.2523598566        7.4780178318        5.8090593837
 Ga         3.2528978695        7.4774017542        7.8082991871
  N         3.2512515108        5.6075204951        8.4154609120
 Ga         3.2500569150        5.6079275755       10.4142109544
  N         3.2552009637        7.4831631538       11.0130558890
 Ga         3.2521858116        7.4857841760       13.0106665140
  N         3.2495742000        5.6107803946       13.5860737151
 Ga         3.2383165515        5.6024506662       15.5694261244
  N         3.2600407314        7.4586698881       16.1619805186
 Ga         3.2640438263        7.5099563370       18.2178273321
  N         3.2898670595        5.6059359848       18.5492949032
  C         1.2202202423        4.8964988091       20.1485113172
  H         1.7531485848        5.8280680553       20.7604303941
  H         0.7405216115        3.9874887632       20.8037080948
     147
 i =        3, E =     -6095.2998751839
 Ga         0.0006257688       -0.0026088280       -0.5877508121
  N         0.0032814885        1.8718545373        0.5658107646
 Ga         0.0028889076        1.8393830531        2.5959146813
  N        -0.0001962893       -0.0036136583        3.2297158054
 Ga         0.0003522076       -0.0030813977        5.2208352484
  N         0.0031846424        1.8717094579        5.8078309644
 Ga         0.0030312682        1.8705926714        7.8068539777
  N         0.0003777893       -0.0031096452        8.4075082707
 Ga        -0.0005603402        0.0001059990       10.4055311149
  N         0.0033744379        1.8712929749       11.0084346826
 Ga         0.0008891773        1.8779612073       13.0036333364
  N        -0.0028807803        0.0102330270       13.6165771074
 Ga        -0.0118643741        0.0121993221       15.6240337376
  N         0.0264308091        1.8807995726       16.2478971527
 Ga        -0.0153244805        1.8669929915       18.3519710639
  N         0.0017793802        0.0082123191       18.6831263264
 Ga        -1.6189452773        2.8024849438        0.2829883576
  N        -1.6204207404        4.6724287417        0.5658596531
 Ga        -1.5926514347        4.6878453196        2.5958233198
  N        -1.6191075069        2.8023101039        3.1881508217
 Ga        -1.6188777512        2.8028634863        5.1989875270
  N        -1.6192024692        4.6728882490        5.8081577591
 Ga        -1.6186243001        4.6738557584        7.8076391727
  N        -1.6202963228        2.8022704577        8.4109995723
 Ga        -1.6190141582        2.8050920243       10.4084730840
  N        -1.6144295078        4.6750890223       11.0116524021
 Ga        -1.6108893737        4.6754879119       13.0102399131
  N        -1.6114498034        2.8079681494       13.6245832965
 Ga        -1.6091454297        2.8243262227       15.6472791164
  N        -1.5800203069        4.7058464622       16.2102192557
 Ga        -1.5573230467        4.6540703219       18.2820285469
  N        -1.6147556767        2.8074757224       18.7631717579
 Ga        -3.2393556894        5.6083149536        0.2824943059
  N        -3.2328227844        7.4781894028        0.5656733703
 Ga        -3.2615676610        7.4932276691        2.5959385807
  N        -3.2390753258        5.6077672758        3.1887597946
 Ga        -3.2391966018        5.6084008615        5.1998425621
  N        -3.2336476450        7.4781531948        5.8081971181
 Ga        -3.2349733485        7.4774927044        7.8070686945
  N        -3.2391150185        5.6083347308        8.4141745762
 Ga        -3.2383238904        5.6085189640       10.4130637007
  N        -3.2376546184        7.4835346279       11.0166809520
 Ga        -3.2339765768        7.4844405650       13.0172089406
  N        -3.2329991778        5.6100203730       13.5990598245
 Ga        -3.2242321619        5.5969664651       15.6039302651
  N        -3.2663644733        7.4762855520       16.1998875986
 Ga        -3.2460432918        7.4885982017       18.2720307237
  N        -3.1859861652        5.6053953188       18.6110785537
 Ga         3.2462781765       -0.0034618385        0.2829045051
  N         3.2456407570        1.8673669601        0.5671205352
 Ga         3.2719519625        1.8817755708        2.5984270921
  N         3.2455052443       -0.0040850539        3.1880873679
 Ga         3.2455633059       -0.0031905591        5.1988424479
  N         3.2460341858        1.8669743438        5.8075668314
 Ga         3.2465747496        1.8672878375        7.8068470131
  N         3.2452852096       -0.0035648327        8.4111207943
 Ga         3.2456490611       -0.0013493609       10.4079601426
  N         3.2469689532        1.8687280751       11.0127507217
 Ga         3.2446722237        1.8639045027       13.0105916793
  N         3.2503906135       -0.0008701629       13.6441479432
 Ga         3.2512357007       -0.0118763544       15.6655189913
  N         3.2275382635        1.8754225688       16.2092913780
 Ga         3.3029623200        1.8427677711       18.2851113594
  N         3.2762698268       -0.0354148462       18.5810086130
 Ga         1.6254564694        2.8029211605        0.2829826378
  N         1.6322733818        4.6729309287        0.5661235519
 Ga         1.6043131161        4.6878970995        2.5961728218
  N         1.6253893092        2.8022539350        3.1883337609
 Ga         1.6260015047        2.8027889296        5.1992892176
  N         1.6318415786        4.6729812071        5.8080836744
 Ga         1.6303100861        4.6736133829        7.8075308896
  N         1.6261675498        2.8025765026        8.4110697462
 Ga         1.6261510164        2.8062243680       10.4080409311
  N         1.6263195474        4.6742460271       11.0181355249
 Ga         1.6240572612        4.6708784857       13.0176163884
  N         1.6250383969        2.7972190077       13.6081411061
 Ga         1.6233082235        2.8193992650       15.6025018421
  N         1.6224405039        4.6813430455       16.0381726440
 Ga         1.7379480198        4.6228999986       17.9090989765
  N         1.6684484301        2.8082882753       18.6205459639
 Ga         0.0066238809        5.6086958278       -0.5861673678
  N         0.0095245458        7.4825280673        0.5661057161
 Ga         0.0089854184        7.4504632061        2.5958717742
  N         0.0060299625        5.6072751665        3.2289716000
 Ga         0.0065560087        5.6081430784        5.2197522411
  N         0.0094769798        7.4830307673        5.8075853722
 Ga         0.0088131067        7.4804240573        7.8066838602
  N         0.0062018693        5.6081351093        8.4092252125
 Ga         0.0077835415        5.6085014411       10.4086735320
  N         0.0082619780        7.4814070078       11.0127847677
 Ga         0.0051886239        7.4788569705       13.0111659607
  N         0.0073243638        5.6128519676       13.5921715097
 Ga         0.0153189556        5.6024548849       15.5734123235
  N         0.0081581189        7.4321854570       16.2738289495
 Ga         0.0602084752        7.4081915435       18.3620895044
  N         0.1861625104        5.4847108720       19.0270690418
 Ga         6.4909013613       -0.0028807907        0.2829517212
  N         6.4967553078        1.8679349239        0.5671907308
 Ga         6.4703259291        1.8819840822        2.5984429219
  N         6.4914390851       -0.0040466439        3.1879139180
 Ga         6.4920981667       -0.0033062405        5.1986360906
  N         6.4972769171        1.8669296820        5.8067913341
 Ga         6.4955435166        1.8674037757        7.8057400239
  N         6.4907528654       -0.0028166577        8.4120805011
 Ga         6.4910547341       -0.0014900506       10.4096834858
  N         6.4954782164        1.8700072054       11.0208141667
 Ga         6.4971948332        1.8702028392       13.0264332032
  N         6.4823833407       -0.0040063126       13.6357090252
 Ga         6.4760115215       -0.0122635390       15.6527790806
  N         6.4844471449        1.8731520232       16.1744320918
 Ga         6.5275896243        1.8782296249       18.2529874521
  N         6.5070670687        0.0092191507       18.6763524797
 Ga         4.8719345510        2.8029390081       -0.5737803740
  N         4.8749136354        4.6762438208        0.5671567696
 Ga         4.8743586203        4.6463078122        2.5984474822
  N         4.8713731753        2.8020162226        3.2297315507
 Ga         4.8718431945        2.8029752040        5.2210072589
  N         4.8747289428        4.6773909505        5.8099208743
 Ga         4.8742659222        4.6759532169        7.8104440348
  N         4.8716445118        2.8008728610        8.4094470967
 Ga         4.8712052573        2.8030207881       10.4095463778
  N         4.8748884668        4.6737477105       11.0093875920
 Ga         4.8770931864        4.6728714685       13.0075996165
  N         4.8625702344        2.8011754028       13.6077093924
 Ga         4.8636948742        2.8282881527       15.6146982354
  N         4.8608927391        4.6991629155       16.1457369562
 Ga         4.9431724547        4.6495540207       18.1859545217
  N         4.9026857269        2.8083399084       18.5934517093
 Ga         3.2521837400        5.6076342947        0.2827094455
  N         3.2508216733        7.4775293787        0.5654761147
 Ga         3.2794589051        7.4930307964        2.5956820681
  N         3.2514964909        5.6078563219        3.1888305879
 Ga         3.2524958976        5.6084042365        5.1998787243
  N         3.2523332460        7.4781137578        5.8091468262
 Ga         3.2529137169        7.4774063278        7.8085827729
  N         3.2511231369        5.6076281316        8.4153325335
 Ga         3.2498764565        5.6080280552       10.4145865717
  N         3.2553294264        7.4836274514       11.0134425800
 Ga         3.2514506150        7.4874514935       13.0118119077
  N         3.2528226060        5.6127967919       13.5821487780
 Ga         3.2418205089        5.6041854244       15.5607306541
  N         3.2587391372        7.4506533273       16.1664328695
 Ga         3.2596372665        7.5233194414       18.2245158516
  N         3.3011701755        5.6057059437       18.5179794881
  C         0.9702202423        5.0207687480       20.0623237462
  H         1.7566560252        5.9035695265       20.7602862222
  H         0.6662357493        3.9535438932       20.8176927500
     147
 i =        4, E =     -6095.3265013255
 Ga         0.0007082738       -0.0026816915       -0.5857750852
  N         0.0032877185        1.8717795611        0.5655486063
 Ga         0.0028998709        1.8393465277        2.5959462842
  N        -0.0002414610       -0.0036002412        3.2297293247
 Ga         0.0002766021       -0.0029873525        5.2208120293
  N         0.0031990706        1.8717590899        5.8074380927
 Ga         0.0028167533        1.8707860907        7.8065780662
  N         0.0004240911       -0.0031064193        8.4084077089
 Ga         0.0000551546        0.0000219930       10.4069447888
  N         0.0023241652        1.8713839463       11.0098502733
 Ga        -0.0039036559        1.8742970623       13.0052501227
  N        -0.0008989163        0.0077416461       13.6198799739
 Ga        -0.0100955474        0.0092553294       15.6257245698
  N         0.0169624620        1.8752308024       16.2408311106
 Ga        -0.0135813128        1.8549166273       18.3328276687
  N         0.0077365201        0.0083352523       18.6929498646
 Ga        -1.6192539984        2.8024905399        0.2837413554