 DBCSR| Multiplication driver                                               BLAS
 DBCSR| Multrec recursion limit                                              512
 DBCSR| Multiplication stack size                                           1000
 DBCSR| Maximum elements for images                                    UNLIMITED
 DBCSR| Multiplicative factor virtual images                                   1
 DBCSR| Multiplication size stacks                                             3
 DBCSR| Number of 3D layers                                               SINGLE
 DBCSR| Use MPI memory allocation                                              T
 DBCSR| Use RMA algorithm                                                      F
 DBCSR| Use Communication thread                                               T
 DBCSR| Communication thread load                                             87


  **** **** ******  **  PROGRAM STARTED AT               2019-06-25 06:02:57.320
 ***** ** ***  *** **   PROGRAM STARTED ON        blg9228.int.ets1.calculquebec.
 **    ****   ******    PROGRAM STARTED BY                                   rzk
 ***** **    ** ** **   PROGRAM PROCESS ID                                157501
  **** **  *******  **  PROGRAM STARTED IN /scratch/rzk/rzk/GaN-carbene/443-adat
                                           oms-both-2x2/02-Methanol/01-O-GaTop

 CP2K| version string:                    CP2K version 7.0 (Development Version)
 CP2K| source code revision number:                                    svn:18619
 CP2K| cp2kflags: libint fftw3 libxc parallel mpi3 scalapack mkl                
 CP2K| is freely available from                            https://www.cp2k.org/
 CP2K| Program compiled at                          Sun Apr  7 00:48:11 EDT 2019
 CP2K| Program compiled on                      beluga2.int.ets1.calculquebec.ca
 CP2K| Program compiled for                    Beluga-Linux-x86-64-intel-openmpi
 CP2K| Data directory path    /home/rzk/projects/def-rzk/group/cp2k/cp2k-mcgill/
 CP2K| Input file name                                              start-02.inp
 
 GLOBAL| Force Environment number                                              1
 GLOBAL| Basis set file name                                        BASIS_MOLOPT
 GLOBAL| Potential file name                                      GTH_POTENTIALS
 GLOBAL| MM Potential file name                                     MM_POTENTIAL
 GLOBAL| Coordinate file name                                      __STD_INPUT__
 GLOBAL| Method name                                                        CP2K
 GLOBAL| Project name                                                       TEST
 GLOBAL| Preferred FFT library                                             FFTW3
 GLOBAL| Preferred diagonalization lib.                                       SL
 GLOBAL| Run type                                                        GEO_OPT
 GLOBAL| All-to-all communication in single precision                          F
 GLOBAL| FFTs using library dependent lengths                                  F
 GLOBAL| Global print level                                               MEDIUM
 GLOBAL| MPI I/O enabled                                                       T
 GLOBAL| Total number of message passing processes                            80
 GLOBAL| Number of threads for this process                                    1
 GLOBAL| This output is from process                                           0
 GLOBAL| CPU model name :  Intel(R) Xeon(R) Gold 6148 CPU @ 2.40GHz

 MEMORY| system memory details [Kb]
 MEMORY|                        rank 0           min           max       average
 MEMORY| MemTotal            196614300     196614300     196614300     196614300
 MEMORY| MemFree             184006484     182609820     184012780     183338172
 MEMORY| Buffers                     0             0             0             0
 MEMORY| Cached                1326100       1325784       1643188       1484609
 MEMORY| Slab                  1329104       1329104       1352336       1340720
 MEMORY| SReclaimable           149240        129112        149240        139176
 MEMORY| MemLikelyFree       185481824     184382120     185487804     184961957


 *** Fundamental physical constants (SI units) ***

 *** Literature: B. J. Mohr and B. N. Taylor,
 ***             CODATA recommended values of the fundamental physical
 ***             constants: 2006, Web Version 5.1
 ***             http://physics.nist.gov/constants

 Speed of light in vacuum [m/s]                             2.99792458000000E+08
 Magnetic constant or permeability of vacuum [N/A**2]       1.25663706143592E-06
 Electric constant or permittivity of vacuum [F/m]          8.85418781762039E-12
 Planck constant (h) [J*s]                                  6.62606896000000E-34
 Planck constant (h-bar) [J*s]                              1.05457162825177E-34
 Elementary charge [C]                                      1.60217648700000E-19
 Electron mass [kg]                                         9.10938215000000E-31
 Electron g factor [ ]                                     -2.00231930436220E+00
 Proton mass [kg]                                           1.67262163700000E-27
 Fine-structure constant                                    7.29735253760000E-03
 Rydberg constant [1/m]                                     1.09737315685270E+07
 Avogadro constant [1/mol]                                  6.02214179000000E+23
 Boltzmann constant [J/K]                                   1.38065040000000E-23
 Atomic mass unit [kg]                                      1.66053878200000E-27
 Bohr radius [m]                                            5.29177208590000E-11

 *** Conversion factors ***

 [u] -> [a.u.]                                              1.82288848426455E+03
 [Angstrom] -> [Bohr] = [a.u.]                              1.88972613288564E+00
 [a.u.] = [Bohr] -> [Angstrom]                              5.29177208590000E-01
 [a.u.] -> [s]                                              2.41888432650478E-17
 [a.u.] -> [fs]                                             2.41888432650478E-02
 [a.u.] -> [J]                                              4.35974393937059E-18
 [a.u.] -> [N]                                              8.23872205491840E-08
 [a.u.] -> [K]                                              3.15774647902944E+05
 [a.u.] -> [kJ/mol]                                         2.62549961709828E+03
 [a.u.] -> [kcal/mol]                                       6.27509468713739E+02
 [a.u.] -> [Pa]                                             2.94210107994716E+13
 [a.u.] -> [bar]                                            2.94210107994716E+08
 [a.u.] -> [atm]                                            2.90362800883016E+08
 [a.u.] -> [eV]                                             2.72113838565563E+01
 [a.u.] -> [Hz]                                             6.57968392072181E+15
 [a.u.] -> [1/cm] (wave numbers)                            2.19474631370540E+05
 [a.u./Bohr**2] -> [1/cm]                                   5.14048714338585E+03
 

 CELL_TOP| Volume [angstrom^3]:                                         4586.323
 CELL_TOP| Vector a [angstrom    12.864     0.000     0.000    |a| =      12.864
 CELL_TOP| Vector b [angstrom    -6.432    11.141     0.000    |b| =      12.864
 CELL_TOP| Vector c [angstrom     0.000     0.000    32.000    |c| =      32.000
 CELL_TOP| Angle (b,c), alpha [degree]:                                   90.000
 CELL_TOP| Angle (a,c), beta  [degree]:                                   90.000
 CELL_TOP| Angle (a,b), gamma [degree]:                                  120.000
 CELL_TOP| Numerically orthorhombic:                                          NO
 
 GENERATE|  Preliminary Number of Bonds generated:                             0
 GENERATE|  Achieved consistency in connectivity generation.

 CELL| Volume [angstrom^3]:                                             4586.323
 CELL| Vector a [angstrom]:      12.864     0.000     0.000    |a| =      12.864
 CELL| Vector b [angstrom]:      -6.432    11.141     0.000    |b| =      12.864
 CELL| Vector c [angstrom]:       0.000     0.000    32.000    |c| =      32.000
 CELL| Angle (b,c), alpha [degree]:                                       90.000
 CELL| Angle (a,c), beta  [degree]:                                       90.000
 CELL| Angle (a,b), gamma [degree]:                                      120.000
 CELL| Numerically orthorhombic:                                              NO

 CELL_REF| Volume [angstrom^3]:                                         4670.759
 CELL_REF| Vector a [angstrom    12.982     0.000     0.000    |a| =      12.982
 CELL_REF| Vector b [angstrom    -6.491    11.243     0.000    |b| =      12.982
 CELL_REF| Vector c [angstrom     0.000     0.000    32.000    |c| =      32.000
 CELL_REF| Angle (b,c), alpha [degree]:                                   90.000
 CELL_REF| Angle (a,c), beta  [degree]:                                   90.000
 CELL_REF| Angle (a,b), gamma [degree]:                                  120.000
 CELL_REF| Numerically orthorhombic:                                          NO

 *******************************************************************************
 *******************************************************************************
 **                                                                           **
 **     #####                         ##              ##                      **
 **    ##   ##            ##          ##              ##                      **
 **   ##     ##                       ##            ######                    **
 **   ##     ##  ##   ##  ##   #####  ##  ##   ####   ##    #####    #####    **
 **   ##     ##  ##   ##  ##  ##      ## ##   ##      ##   ##   ##  ##   ##   **
 **   ##  ## ##  ##   ##  ##  ##      ####     ###    ##   ######   ######    **
 **    ##  ###   ##   ##  ##  ##      ## ##      ##   ##   ##       ##        **
 **     #######   #####   ##   #####  ##  ##  ####    ##    #####   ##        **
 **           ##                                                    ##        **
 **                                                                           **
 **                                                ... make the atoms dance   **
 **                                                                           **
 **            Copyright (C) by CP2K developers group (2000 - 2018)           **
 **                                                                           **
 *******************************************************************************

 DFT| Spin unrestricted (spin-polarized) Kohn-Sham calculation               UKS
 DFT| Multiplicity                                                             1
 DFT| Number of spin states                                                    2
 DFT| Charge                                                                   0
 DFT| Self-interaction correction (SIC)                                       NO
 DFT| Cutoffs: density                                              1.000000E-10
 DFT|          gradient                                             1.000000E-10
 DFT|          tau                                                  1.000000E-10
 DFT|          cutoff_smoothing_range                               0.000000E+00
 DFT| XC density smoothing                                                  NONE
 DFT| XC derivatives                                                          PW
 FUNCTIONAL| ROUTINE=NEW
 FUNCTIONAL| PBE:
 FUNCTIONAL| J.P.Perdew, K.Burke, M.Ernzerhof, Phys. Rev. Letter, vol. 77, n 18,
 FUNCTIONAL|  pp. 3865-3868, (1996){spin polarized}                             
 vdW POTENTIAL|                                                   Pair Potential
 vdW POTENTIAL|          DFT-D3 (Version 3.1)
 vdW POTENTIAL|          Potential Form: S. Grimme et al, JCP 132: 154104 (2010)
 vdW POTENTIAL|          Zero Damping
 vdW POTENTIAL|          Cutoff Radius [Bohr]:                             18.90
 vdW POTENTIAL|          s6 Scaling Factor:                               1.0000
 vdW POTENTIAL|          sr6 Scaling Factor:                              1.2170
 vdW POTENTIAL|          s8 Scaling Factor:                               0.7220
 vdW POTENTIAL|          Cutoff for CN calculation:                   0.1000E-05

 QS| Method:                                                                 GPW
 QS| Density plane wave grid type                        NON-SPHERICAL FULLSPACE
 QS| Number of grid levels:                                                    5
 QS| Density cutoff [a.u.]:                                                600.0
 QS| Multi grid cutoff [a.u.]: 1) grid level                               600.0
 QS|                           2) grid level                               200.0
 QS|                           3) grid level                                66.7
 QS|                           4) grid level                                22.2
 QS|                           5) grid level                                 7.4
 QS| Grid level progression factor:                                          3.0
 QS| Relative density cutoff [a.u.]:                                        20.0
 QS| Consistent realspace mapping and integration 
 QS| Interaction thresholds: eps_pgf_orb:                                1.0E-07
 QS|                         eps_filter_matrix:                          0.0E+00
 QS|                         eps_core_charge:                            1.0E-16
 QS|                         eps_rho_gspace:                             1.0E-14
 QS|                         eps_rho_rspace:                             1.0E-14
 QS|                         eps_gvg_rspace:                             1.0E-07
 QS|                         eps_ppl:                                    1.0E-02
 QS|                         eps_ppnl:                                   1.0E-09


 ATOMIC KIND INFORMATION

  1. Atomic kind: N                                     Number of atoms:     100

     Orbital Basis Set                                        DZVP-MOLOPT-SR-GTH

       Number of orbital shell sets:                                           1
       Number of orbital shells:                                               5
       Number of primitive Cartesian functions:                                5
       Number of Cartesian basis functions:                                   14
       Number of spherical basis functions:                                   13
       Norm type:                                                              2

       Normalised Cartesian orbitals:

                        Set   Shell   Orbital            Exponent    Coefficient

                          1       1    2s                7.341988       0.360561
                                                         2.542637       0.139177
                                                         0.888575      -0.289383
                                                         0.333802      -0.182244
                                                         0.112012      -0.019197

                          1       2    3s                7.341988       0.282000
                                                         2.542637       0.177875
                                                         0.888575      -0.278381
                                                         0.333802       0.008577
                                                         0.112012       0.154176

                          1       3    3px               7.341988      -1.188719
                                                         2.542637      -0.973969
                                                         0.888575      -0.501079
                                                         0.333802      -0.144894
                                                         0.112012      -0.013986
                          1       3    3py               7.341988      -1.188719
                                                         2.542637      -0.973969
                                                         0.888575      -0.501079
                                                         0.333802      -0.144894
                                                         0.112012      -0.013986
                          1       3    3pz               7.341988      -1.188719
                                                         2.542637      -0.973969
                                                         0.888575      -0.501079
                                                         0.333802      -0.144894
                                                         0.112012      -0.013986

                          1       4    4px               7.341988      -0.094798
                                                         2.542637       0.050069
                                                         0.888575      -0.114797
                                                         0.333802       0.144793
                                                         0.112012       0.066710
                          1       4    4py               7.341988      -0.094798
                                                         2.542637       0.050069
                                                         0.888575      -0.114797
                                                         0.333802       0.144793
                                                         0.112012       0.066710
                          1       4    4pz               7.341988      -0.094798
                                                         2.542637       0.050069
                                                         0.888575      -0.114797
                                                         0.333802       0.144793
                                                         0.112012       0.066710

                          1       5    4dx2              7.341988       1.354688
                                                         2.542637       0.690378
                                                         0.888575       0.855359
                                                         0.333802       0.091746
                                                         0.112012       0.001253
                          1       5    4dxy              7.341988       2.346389
                                                         2.542637       1.195770
                                                         0.888575       1.481524
                                                         0.333802       0.158910
                                                         0.112012       0.002169
                          1       5    4dxz              7.341988       2.346389
                                                         2.542637       1.195770
                                                         0.888575       1.481524
                                                         0.333802       0.158910
                                                         0.112012       0.002169
                          1       5    4dy2              7.341988       1.354688
                                                         2.542637       0.690378
                                                         0.888575       0.855359
                                                         0.333802       0.091746
                                                         0.112012       0.001253
                          1       5    4dyz              7.341988       2.346389
                                                         2.542637       1.195770
                                                         0.888575       1.481524
                                                         0.333802       0.158910
                                                         0.112012       0.002169
                          1       5    4dz2              7.341988       1.354688
                                                         2.542637       0.690378
                                                         0.888575       0.855359
                                                         0.333802       0.091746
                                                         0.112012       0.001253

     GTH Potential information for                                    GTH-PBE-q5

       Description:                       Goedecker-Teter-Hutter pseudopotential
                                           Goedecker et al., PRB 54, 1703 (1996)
                                          Hartwigsen et al., PRB 58, 3641 (1998)
                                                      Krack, TCA 114, 145 (2005)

       Gaussian exponent of the core charge distribution:               6.208322
       Electronic configuration (s p d ...):                               2   3

       Parameters of the local part of the GTH pseudopotential:

                          rloc        C1          C2          C3          C4
                        0.283791  -12.415226    1.868096

       Parameters of the non-local part of the GTH pseudopotential:

                   l      r(l)      h(i,j,l)

                   0    0.255405   13.630263
                   1    0.245495

  2. Atomic kind: Ga                                    Number of atoms:     100

     Orbital Basis Set                                        DZVP-MOLOPT-SR-GTH

       Number of orbital shell sets:                                           1
       Number of orbital shells:                                               7
       Number of primitive Cartesian functions:                                6
       Number of Cartesian basis functions:                                   30
       Number of spherical basis functions:                                   25
       Norm type:                                                              2

       Normalised Cartesian orbitals:

                        Set   Shell   Orbital            Exponent    Coefficient

                          1       1    2s                7.066654       0.013136
                                                         3.428369      -0.094392
                                                         1.430064       0.265435
                                                         0.571611       0.056465
                                                         0.232197      -0.192187
                                                         0.076562      -0.044987

                          1       2    3s                7.066654      -0.098564
                                                         3.428369       0.010390
                                                         1.430064       0.351249
                                                         0.571611       0.182615
                                                         0.232197      -0.425358
                                                         0.076562       0.190349

                          1       3    3px               7.066654       0.002364
                                                         3.428369       0.019222
                                                         1.430064       0.250132
                                                         0.571611      -0.058486
                                                         0.232197      -0.159451
                                                         0.076562      -0.020696
                          1       3    3py               7.066654       0.002364
                                                         3.428369       0.019222
                                                         1.430064       0.250132
                                                         0.571611      -0.058486
                                                         0.232197      -0.159451
                                                         0.076562      -0.020696
                          1       3    3pz               7.066654       0.002364
                                                         3.428369       0.019222
                                                         1.430064       0.250132
                                                         0.571611      -0.058486
                                                         0.232197      -0.159451
                                                         0.076562      -0.020696

                          1       4    4px               7.066654       0.492448
                                                         3.428369      -0.614736
                                                         1.430064      -0.191654
                                                         0.571611       0.037801
                                                         0.232197       0.302315
                                                         0.076562      -0.071336
                          1       4    4py               7.066654       0.492448
                                                         3.428369      -0.614736
                                                         1.430064      -0.191654
                                                         0.571611       0.037801
                                                         0.232197       0.302315
                                                         0.076562      -0.071336
                          1       4    4pz               7.066654       0.492448
                                                         3.428369      -0.614736
                                                         1.430064      -0.191654
                                                         0.571611       0.037801
                                                         0.232197       0.302315
                                                         0.076562      -0.071336

                          1       5    4dx2              7.066654     -15.264855
                                                         3.428369      -5.345726
                                                         1.430064      -1.022732
                                                         0.571611      -0.123148
                                                         0.232197      -0.006983
                                                         0.076562      -0.000022
                          1       5    4dxy              7.066654     -26.439504
                                                         3.428369      -9.259069
                                                         1.430064      -1.771423
                                                         0.571611      -0.213299
                                                         0.232197      -0.012094
                                                         0.076562      -0.000037
                          1       5    4dxz              7.066654     -26.439504
                                                         3.428369      -9.259069
                                                         1.430064      -1.771423
                                                         0.571611      -0.213299
                                                         0.232197      -0.012094
                                                         0.076562      -0.000037
                          1       5    4dy2              7.066654     -15.264855
                                                         3.428369      -5.345726
                                                         1.430064      -1.022732
                                                         0.571611      -0.123148
                                                         0.232197      -0.006983
                                                         0.076562      -0.000022
                          1       5    4dyz              7.066654     -26.439504
                                                         3.428369      -9.259069
                                                         1.430064      -1.771423
                                                         0.571611      -0.213299
                                                         0.232197      -0.012094
                                                         0.076562      -0.000037
                          1       5    4dz2              7.066654     -15.264855
                                                         3.428369      -5.345726
                                                         1.430064      -1.022732
                                                         0.571611      -0.123148
                                                         0.232197      -0.006983
                                                         0.076562      -0.000022

                          1       6    5dx2              7.066654      -5.739265
                                                         3.428369      -2.129289
                                                         1.430064      -0.700423
                                                         0.571611       0.161606
                                                         0.232197       0.043513
                                                         0.076562       0.011205
                          1       6    5dxy              7.066654      -9.940698
                                                         3.428369      -3.688037
                                                         1.430064      -1.213168
                                                         0.571611       0.279909
                                                         0.232197       0.075368
                                                         0.076562       0.019407
                          1       6    5dxz              7.066654      -9.940698
                                                         3.428369      -3.688037
                                                         1.430064      -1.213168
                                                         0.571611       0.279909
                                                         0.232197       0.075368
                                                         0.076562       0.019407
                          1       6    5dy2              7.066654      -5.739265
                                                         3.428369      -2.129289
                                                         1.430064      -0.700423
                                                         0.571611       0.161606
                                                         0.232197       0.043513
                                                         0.076562       0.011205
                          1       6    5dyz              7.066654      -9.940698
                                                         3.428369      -3.688037
                                                         1.430064      -1.213168
                                                         0.571611       0.279909
                                                         0.232197       0.075368
                                                         0.076562       0.019407
                          1       6    5dz2              7.066654      -5.739265
                                                         3.428369      -2.129289
                                                         1.430064      -0.700423
                                                         0.571611       0.161606
                                                         0.232197       0.043513
                                                         0.076562       0.011205

                          1       7    5fx3              7.066654       0.705879
                                                         3.428369      -0.273976
                                                         1.430064       0.113667
                                                         0.571611       0.132480
                                                         0.232197       0.012437
                                                         0.076562       0.003241
                          1       7    5fx2y             7.066654       1.578393
                                                         3.428369      -0.612629
                                                         1.430064       0.254167
                                                         0.571611       0.296234
                                                         0.232197       0.027811
                                                         0.076562       0.007246
                          1       7    5fx2z             7.066654       1.578393
                                                         3.428369      -0.612629
                                                         1.430064       0.254167
                                                         0.571611       0.296234
                                                         0.232197       0.027811
                                                         0.076562       0.007246
                          1       7    5fxy2             7.066654       1.578393
                                                         3.428369      -0.612629
                                                         1.430064       0.254167
                                                         0.571611       0.296234
                                                         0.232197       0.027811
                                                         0.076562       0.007246
                          1       7    5fxyz             7.066654       2.733856
                                                         3.428369      -1.061105
                                                         1.430064       0.440230
                                                         0.571611       0.513092
                                                         0.232197       0.048170
                                                         0.076562       0.012551
                          1       7    5fxz2             7.066654       1.578393
                                                         3.428369      -0.612629
                                                         1.430064       0.254167
                                                         0.571611       0.296234
                                                         0.232197       0.027811
                                                         0.076562       0.007246
                          1       7    5fy3              7.066654       0.705879
                                                         3.428369      -0.273976
                                                         1.430064       0.113667
                                                         0.571611       0.132480
                                                         0.232197       0.012437
                                                         0.076562       0.003241
                          1       7    5fy2z             7.066654       1.578393
                                                         3.428369      -0.612629
                                                         1.430064       0.254167
                                                         0.571611       0.296234
                                                         0.232197       0.027811
                                                         0.076562       0.007246
                          1       7    5fyz2             7.066654       1.578393
                                                         3.428369      -0.612629
                                                         1.430064       0.254167
                                                         0.571611       0.296234
                                                         0.232197       0.027811
                                                         0.076562       0.007246
                          1       7    5fz3              7.066654       0.705879
                                                         3.428369      -0.273976
                                                         1.430064       0.113667
                                                         0.571611       0.132480
                                                         0.232197       0.012437
                                                         0.076562       0.003241

     GTH Potential information for                                   GTH-PBE-q13

       Description:                       Goedecker-Teter-Hutter pseudopotential
                                           Goedecker et al., PRB 54, 1703 (1996)
                                          Hartwigsen et al., PRB 58, 3641 (1998)
                                                      Krack, TCA 114, 145 (2005)

       Gaussian exponent of the core charge distribution:               2.082466
       Electronic configuration (s p d ...):                           2   1  10

       Parameters of the local part of the GTH pseudopotential:

                          rloc        C1          C2          C3          C4
                        0.490000

       Parameters of the non-local part of the GTH pseudopotential:

                   l      r(l)      h(i,j,l)

                   0    0.416777   10.475690   -4.921768    0.870706
                                   -4.921768    7.770178   -2.248152
                                    0.870706   -2.248152    1.784415
                   1    0.569627    1.777985    0.195860
                                    0.195860   -0.231744
                   2    0.238126  -16.248680

  3. Atomic kind: O                                     Number of atoms:       1

     Orbital Basis Set                                     DZVP-MOLOPT-SR-GTH-q6

       Number of orbital shell sets:                                           1
       Number of orbital shells:                                               5
       Number of primitive Cartesian functions:                                5
       Number of Cartesian basis functions:                                   14
       Number of spherical basis functions:                                   13
       Norm type:                                                              2

       Normalised Cartesian orbitals:

                        Set   Shell   Orbital            Exponent    Coefficient

                          1       1    2s               10.389228       0.396646
                                                         3.849621       0.208811
                                                         1.388401      -0.301641
                                                         0.496955      -0.274061
                                                         0.162492      -0.033677

                          1       2    3s               10.389228       0.303673
                                                         3.849621       0.240943
                                                         1.388401      -0.313066
                                                         0.496955      -0.043055
                                                         0.162492       0.213991

                          1       3    3px              10.389228      -1.530415
                                                         3.849621      -1.371928
                                                         1.388401      -0.761951
                                                         0.496955      -0.253695
                                                         0.162492      -0.035541
                          1       3    3py              10.389228      -1.530415
                                                         3.849621      -1.371928
                                                         1.388401      -0.761951
                                                         0.496955      -0.253695
                                                         0.162492      -0.035541
                          1       3    3pz              10.389228      -1.530415
                                                         3.849621      -1.371928
                                                         1.388401      -0.761951
                                                         0.496955      -0.253695
                                                         0.162492      -0.035541

                          1       4    4px              10.389228      -0.565392
                                                         3.849621      -0.038231
                                                         1.388401      -0.382373
                                                         0.496955       0.179070
                                                         0.162492       0.122714
                          1       4    4py              10.389228      -0.565392
                                                         3.849621      -0.038231
                                                         1.388401      -0.382373
                                                         0.496955       0.179070
                                                         0.162492       0.122714
                          1       4    4pz              10.389228      -0.565392
                                                         3.849621      -0.038231
                                                         1.388401      -0.382373
                                                         0.496955       0.179070
                                                         0.162492       0.122714

                          1       5    4dx2             10.389228       1.867377
                                                         3.849621       0.670994
                                                         1.388401       1.353441
                                                         0.496955       0.273538
                                                         0.162492       0.006620
                          1       5    4dxy             10.389228       3.234392
                                                         3.849621       1.162195
                                                         1.388401       2.344229
                                                         0.496955       0.473781
                                                         0.162492       0.011466
                          1       5    4dxz             10.389228       3.234392
                                                         3.849621       1.162195
                                                         1.388401       2.344229
                                                         0.496955       0.473781
                                                         0.162492       0.011466
                          1       5    4dy2             10.389228       1.867377
                                                         3.849621       0.670994
                                                         1.388401       1.353441
                                                         0.496955       0.273538
                                                         0.162492       0.006620
                          1       5    4dyz             10.389228       3.234392
                                                         3.849621       1.162195
                                                         1.388401       2.344229
                                                         0.496955       0.473781
                                                         0.162492       0.011466
                          1       5    4dz2             10.389228       1.867377
                                                         3.849621       0.670994
                                                         1.388401       1.353441
                                                         0.496955       0.273538
                                                         0.162492       0.006620

     GTH Potential information for                                    GTH-PBE-q6

       Description:                       Goedecker-Teter-Hutter pseudopotential
                                           Goedecker et al., PRB 54, 1703 (1996)
                                          Hartwigsen et al., PRB 58, 3641 (1998)
                                                      Krack, TCA 114, 145 (2005)

       Gaussian exponent of the core charge distribution:               8.360253
       Electronic configuration (s p d ...):                               2   4

       Parameters of the local part of the GTH pseudopotential:

                          rloc        C1          C2          C3          C4
                        0.244554  -16.667215    2.487311

       Parameters of the non-local part of the GTH pseudopotential:

                   l      r(l)      h(i,j,l)

                   0    0.220956   18.337458
                   1    0.211332

  4. Atomic kind: H                                     Number of atoms:       4

     Orbital Basis Set                                     DZVP-MOLOPT-SR-GTH-q1

       Number of orbital shell sets:                                           1
       Number of orbital shells:                                               3
       Number of primitive Cartesian functions:                                5
       Number of Cartesian basis functions:                                    5
       Number of spherical basis functions:                                    5
       Norm type:                                                              2

       Normalised Cartesian orbitals:

                        Set   Shell   Orbital            Exponent    Coefficient

                          1       1    2s               10.068468      -0.133023
                                                         2.680223      -0.177618
                                                         0.791502      -0.258419
                                                         0.239116      -0.107525
                                                         0.082193      -0.014019

                          1       2    3s               10.068468       0.344673
                                                         2.680223       1.819821
                                                         0.791502      -0.999069
                                                         0.239116       0.017430
                                                         0.082193       0.082660

                          1       3    3px              10.068468       0.155326
                                                         2.680223       0.367157
                                                         0.791502       0.311480
                                                         0.239116       0.080105
                                                         0.082193       0.033440
                          1       3    3py              10.068468       0.155326
                                                         2.680223       0.367157
                                                         0.791502       0.311480
                                                         0.239116       0.080105
                                                         0.082193       0.033440
                          1       3    3pz              10.068468       0.155326
                                                         2.680223       0.367157
                                                         0.791502       0.311480
                                                         0.239116       0.080105
                                                         0.082193       0.033440

     GTH Potential information for                                    GTH-PBE-q1

       Description:                       Goedecker-Teter-Hutter pseudopotential
                                           Goedecker et al., PRB 54, 1703 (1996)
                                          Hartwigsen et al., PRB 58, 3641 (1998)
                                                      Krack, TCA 114, 145 (2005)

       Gaussian exponent of the core charge distribution:              12.500000
       Electronic configuration (s p d ...):                                   1

       Parameters of the local part of the GTH pseudopotential:

                          rloc        C1          C2          C3          C4
                        0.200000   -4.178900    0.724463

  5. Atomic kind: C                                     Number of atoms:       1

     Orbital Basis Set                                     DZVP-MOLOPT-SR-GTH-q4

       Number of orbital shell sets:                                           1
       Number of orbital shells:                                               5
       Number of primitive Cartesian functions:                                5
       Number of Cartesian basis functions:                                   14
       Number of spherical basis functions:                                   13
       Norm type:                                                              2

       Normalised Cartesian orbitals:

                        Set   Shell   Orbital            Exponent    Coefficient

                          1       1    2s                5.605331       0.322515
                                                         2.113016       0.213043
                                                         0.769911      -0.209686
                                                         0.348157      -0.219794
                                                         0.128212      -0.022789

                          1       2    3s                5.605331       0.552234
                                                         2.113016       0.082072
                                                         0.769911       0.007843
                                                         0.348157       0.136893
                                                         0.128212       0.074283

                          1       3    3px               5.605331      -0.703879
                                                         2.113016      -0.642521
                                                         0.769911      -0.374851
                                                         0.348157      -0.139743
                                                         0.128212      -0.027849
                          1       3    3py               5.605331      -0.703879
                                                         2.113016      -0.642521
                                                         0.769911      -0.374851
                                                         0.348157      -0.139743
                                                         0.128212      -0.027849
                          1       3    3pz               5.605331      -0.703879
                                                         2.113016      -0.642521
                                                         0.769911      -0.374851
                                                         0.348157      -0.139743
                                                         0.128212      -0.027849

                          1       4    4px               5.605331      -0.480376
                                                         2.113016      -0.552894
                                                         0.769911      -0.316145
                                                         0.348157       0.210505
                                                         0.128212       0.076095
                          1       4    4py               5.605331      -0.480376
                                                         2.113016      -0.552894
                                                         0.769911      -0.316145
                                                         0.348157       0.210505
                                                         0.128212       0.076095
                          1       4    4pz               5.605331      -0.480376
                                                         2.113016      -0.552894
                                                         0.769911      -0.316145
                                                         0.348157       0.210505
                                                         0.128212       0.076095

                          1       5    4dx2              5.605331       0.640026
                                                         2.113016       0.274300
                                                         0.769911       0.446711
                                                         0.348157       0.028674
                                                         0.128212       0.029790
                          1       5    4dxy              5.605331       1.108557
                                                         2.113016       0.475102
                                                         0.769911       0.773726
                                                         0.348157       0.049666
                                                         0.128212       0.051599
                          1       5    4dxz              5.605331       1.108557
                                                         2.113016       0.475102
                                                         0.769911       0.773726
                                                         0.348157       0.049666
                                                         0.128212       0.051599
                          1       5    4dy2              5.605331       0.640026
                                                         2.113016       0.274300
                                                         0.769911       0.446711
                                                         0.348157       0.028674
                                                         0.128212       0.029790
                          1       5    4dyz              5.605331       1.108557
                                                         2.113016       0.475102
                                                         0.769911       0.773726
                                                         0.348157       0.049666
                                                         0.128212       0.051599
                          1       5    4dz2              5.605331       0.640026
                                                         2.113016       0.274300
                                                         0.769911       0.446711
                                                         0.348157       0.028674
                                                         0.128212       0.029790

     GTH Potential information for                                    GTH-PBE-q4

       Description:                       Goedecker-Teter-Hutter pseudopotential
                                           Goedecker et al., PRB 54, 1703 (1996)
                                          Hartwigsen et al., PRB 58, 3641 (1998)
                                                      Krack, TCA 114, 145 (2005)

       Gaussian exponent of the core charge distribution:               4.364419
       Electronic configuration (s p d ...):                               2   2

       Parameters of the local part of the GTH pseudopotential:

                          rloc        C1          C2          C3          C4
                        0.338471   -8.803674    1.339211

       Parameters of the non-local part of the GTH pseudopotential:

                   l      r(l)      h(i,j,l)

                   0    0.302576    9.622487
                   1    0.291507


 MOLECULE KIND INFORMATION


 All atoms are their own molecule, skipping detailed information


 TOTAL NUMBERS AND MAXIMUM NUMBERS

  Total number of            - Atomic kinds:                                   5
                             - Atoms:                                        206
                             - Shell sets:                                   206
                             - Shells:                                      1222
                             - Primitive Cartesian functions:               1130
                             - Cartesian basis functions:                   4448
                             - Spherical basis functions:                   3846

  Maximum angular momentum of- Orbital basis functions:                        3
                             - Local part of the GTH pseudopotential:          2
                             - Non-local part of the GTH pseudopotential:      4


 MODULE QUICKSTEP:  ATOMIC COORDINATES IN angstrom

  Atom  Kind  Element       X           Y           Z          Z(eff)       Mass

       1     1 N    7   -0.033636    2.030164    2.550061      5.00      14.0067
       2     2 Ga  31   -0.027242    0.053930    2.880171     13.00      69.7230
       3     1 N    7   -0.031832    0.048770    5.033048      5.00      14.0067
       4     2 Ga  31   -0.032946    1.875731    5.817405     13.00      69.7230
       5     1 N    7   -0.031164    1.893443    7.812571      5.00      14.0067
       6     2 Ga  31   -0.030798    0.047383    8.455543     13.00      69.7230
       7     1 N    7   -0.031130    0.047931   10.429521      5.00      14.0067
       8     2 Ga  31   -0.032012    1.889496   11.077151     13.00      69.7230
       9     1 N    7   -0.032429    1.870594   13.069470      5.00      14.0067
      10     2 Ga  31   -0.041182    0.054893   13.868573     13.00      69.7230
      11     1 N    7   -0.043600    0.055796   16.077277      5.00      14.0067
      12     2 Ga  31   -0.034099    2.113810   16.508362     13.00      69.7230
      13     2 Ga  31   -0.028436    3.733273    1.525282     13.00      69.7230
      14     1 N    7   -1.514698    4.614661    2.515381      5.00      14.0067
      15     2 Ga  31   -1.734560    2.772472    3.315746     13.00      69.7230
      16     1 N    7   -1.643160    2.832058    5.275131      5.00      14.0067
      17     2 Ga  31   -1.662273    4.705359    5.813932     13.00      69.7230
      18     1 N    7   -1.648773    4.697050    7.810624      5.00      14.0067
      19     2 Ga  31   -1.630433    2.839782    8.448271     13.00      69.7230
      20     1 N    7   -1.628911    2.840224   10.439973      5.00      14.0067
      21     2 Ga  31   -1.653606    4.698574   11.077191     13.00      69.7230
      22     1 N    7   -1.670488    4.707763   13.069627      5.00      14.0067
      23     2 Ga  31   -1.629787    2.839837   13.630944     13.00      69.7230
      24     1 N    7   -1.656941    2.823766   15.588501      5.00      14.0067
      25     2 Ga  31   -1.460809    4.584710   16.508283     13.00      69.7230
      26     1 N    7   -0.025812    3.765733   17.654776      5.00      14.0067
      27     1 N    7   -3.245094    7.594749    2.529015      5.00      14.0067
      28     2 Ga  31   -3.237478    5.618166    2.852207     13.00      69.7230
      29     1 N    7   -3.241999    5.614644    5.021750      5.00      14.0067
      30     2 Ga  31   -3.245864    7.445756    5.802147     13.00      69.7230
      31     1 N    7   -3.247350    7.464015    7.802919      5.00      14.0067
      32     2 Ga  31   -3.247829    5.619530    8.453999     13.00      69.7230
      33     1 N    7   -3.247965    5.619275   10.428494      5.00      14.0067
      34     2 Ga  31   -3.247893    7.457783   11.076802     13.00      69.7230
      35     1 N    7   -3.248001    7.437511   13.076685      5.00      14.0067
      36     2 Ga  31   -3.247853    5.607521   13.869359     13.00      69.7230
      37     1 N    7   -3.247831    5.604784   16.077045      5.00      14.0067
      38     2 Ga  31   -3.247677    7.604041   16.441365     13.00      69.7230
      39     2 Ga  31   -3.243441    9.325003    1.443231     13.00      69.7230
      40     1 N    7   -4.750865   10.203615    2.524658      5.00      14.0067
      41     2 Ga  31   -4.944577    8.351897    3.284374     13.00      69.7230
      42     1 N    7   -4.855164    8.403213    5.254944      5.00      14.0067
      43     2 Ga  31   -4.877759   10.274122    5.806086     13.00      69.7230
      44     1 N    7   -4.864410   10.266439    7.805137      5.00      14.0067
      45     2 Ga  31   -4.844759    8.409330    8.444447     13.00      69.7230
      46     1 N    7   -4.844188    8.410666   10.440575      5.00      14.0067
      47     2 Ga  31   -4.871237   10.269376   11.077359     13.00      69.7230
      48     1 N    7   -4.889225   10.280193   13.076833      5.00      14.0067
      49     2 Ga  31   -4.845002    8.410640   13.622825     13.00      69.7230
      50     1 N    7   -4.861190    8.401842   15.601021      5.00      14.0067
      51     2 Ga  31   -4.743238   10.196672   16.441369     13.00      69.7230
      52     1 N    7   -3.249245    9.330267   17.567737      5.00      14.0067
      53     1 N    7    3.169981    1.909720    2.606428      5.00      14.0067
      54     2 Ga  31    3.182872    0.153710    3.285169     13.00      69.7230
      55     1 N    7    3.185011    0.053297    5.254118      5.00      14.0067
      56     2 Ga  31    3.187255    1.901950    5.895426     13.00      69.7230
      57     1 N    7    3.186321    1.904160    7.866182      5.00      14.0067
      58     2 Ga  31    3.184843    0.035532    8.449064     13.00      69.7230
      59     1 N    7    3.184428    0.035299   10.443510      5.00      14.0067
      60     2 Ga  31    3.184344    1.906074   11.036195     13.00      69.7230
      61     1 N    7    3.184361    1.902829   13.009660      5.00      14.0067
      62     2 Ga  31    3.184237    0.036161   13.622496     13.00      69.7230
      63     1 N    7    3.184662    0.054947   15.600283      5.00      14.0067
      64     2 Ga  31    3.183828    1.907794   15.870580     13.00      69.7230
      65     1 N    7    1.472671    4.626084    2.534543      5.00      14.0067
      66     2 Ga  31    1.669316    2.783239    3.329991     13.00      69.7230
      67     1 N    7    1.581683    2.831342    5.281927      5.00      14.0067
      68     2 Ga  31    1.599311    4.706808    5.817005     13.00      69.7230
      69     1 N    7    1.587011    4.697261    7.811902      5.00      14.0067
      70     2 Ga  31    1.567420    2.839807    8.450235     13.00      69.7230
      71     1 N    7    1.566170    2.841016   10.442971      5.00      14.0067
      72     2 Ga  31    1.592272    4.700057   11.082860     13.00      69.7230
      73     1 N    7    1.608536    4.709548   13.075928      5.00      14.0067
      74     2 Ga  31    1.563748    2.840662   13.632602     13.00      69.7230
      75     1 N    7    1.592378    2.817467   15.591035      5.00      14.0067
      76     2 Ga  31    1.407363    4.593054   16.508219     13.00      69.7230
      77     1 N    7   -0.032576    7.472955    2.622768      5.00      14.0067
      78     2 Ga  31   -0.022373    5.727767    3.300420     13.00      69.7230
      79     1 N    7   -0.030990    5.621521    5.266000      5.00      14.0067
      80     2 Ga  31   -0.033655    7.475477    5.887712     13.00      69.7230
      81     1 N    7   -0.031493    7.476435    7.861967      5.00      14.0067
      82     2 Ga  31   -0.031395    5.608780    8.450340     13.00      69.7230
      83     1 N    7   -0.030635    5.607011   10.443093      5.00      14.0067
      84     2 Ga  31   -0.031665    7.476071   11.035734     13.00      69.7230
      85     1 N    7   -0.034130    7.477663   13.009507      5.00      14.0067
      86     2 Ga  31   -0.032377    5.605188   13.632644     13.00      69.7230
      87     1 N    7   -0.037752    5.641856   15.591185      5.00      14.0067
      88     2 Ga  31   -0.030819    7.474789   15.871490     13.00      69.7230
      89     1 N    7   -1.745792   10.202261    2.529588      5.00      14.0067
      90     2 Ga  31   -1.547574    8.350582    3.288623     13.00      69.7230
      91     1 N    7   -1.637257    8.403900    5.257966      5.00      14.0067
      92     2 Ga  31   -1.615828   10.274941    5.805592     13.00      69.7230
      93     1 N    7   -1.631164   10.266356    7.805490      5.00      14.0067
      94     2 Ga  31   -1.649973    8.409708    8.445464     13.00      69.7230
      95     1 N    7   -1.651373    8.410872   10.441541      5.00      14.0067
      96     2 Ga  31   -1.623932   10.269940   11.076871     13.00      69.7230
      97     1 N    7   -1.606656   10.280398   13.076490      5.00      14.0067
      98     2 Ga  31   -1.650838    8.410664   13.622632     13.00      69.7230
      99     1 N    7   -1.634359    8.402158   15.600635      5.00      14.0067
     100     2 Ga  31   -1.753558   10.195958   16.441427     13.00      69.7230
     101     1 N    7    6.397644    2.026559    2.532419      5.00      14.0067
     102     2 Ga  31    6.395017    0.045179    2.866142     13.00      69.7230
     103     1 N    7    6.402054    0.048135    5.031115      5.00      14.0067
     104     2 Ga  31    6.399363    1.875690    5.808161     13.00      69.7230
     105     1 N    7    6.399488    1.895005    7.806047      5.00      14.0067
     106     2 Ga  31    6.399549    0.048613    8.453128     13.00      69.7230
     107     1 N    7    6.400490    0.048710   10.428076      5.00      14.0067
     108     2 Ga  31    6.400962    1.889537   11.077033     13.00      69.7230
     109     1 N    7    6.401056    1.870747   13.069422      5.00      14.0067
     110     2 Ga  31    6.409551    0.054637   13.868252     13.00      69.7230
     111     1 N    7    6.411825    0.055532   16.077291      5.00      14.0067
     112     2 Ga  31    6.402424    2.112589   16.506429     13.00      69.7230
     113     2 Ga  31    6.406231    3.762619    1.491438     13.00      69.7230
     114     1 N    7    4.895178    4.627916    2.531411      5.00      14.0067
     115     2 Ga  31    4.690699    2.774410    3.291074     13.00      69.7230
     116     1 N    7    4.788166    2.830574    5.255580      5.00      14.0067
     117     2 Ga  31    4.770868    4.702567    5.809096     13.00      69.7230
     118     1 N    7    4.783299    4.695477    7.805504      5.00      14.0067
     119     2 Ga  31    4.803335    2.840117    8.450703     13.00      69.7230
     120     1 N    7    4.803187    2.841236   10.442904      5.00      14.0067
     121     2 Ga  31    4.777761    4.700164   11.082866     13.00      69.7230
     122     1 N    7    4.760217    4.709753   13.076056      5.00      14.0067
     123     2 Ga  31    4.804552    2.840731   13.632271     13.00      69.7230
     124     1 N    7    4.775862    2.817063   15.591362      5.00      14.0067
     125     2 Ga  31    4.958867    4.594684   16.506125     13.00      69.7230
     126     1 N    7    6.392562    3.766492   17.649483      5.00      14.0067
     127     1 N    7    3.184403    7.597697    2.542640      5.00      14.0067
     128     2 Ga  31    3.176135    5.615672    2.894235     13.00      69.7230
     129     1 N    7    3.185870    5.619229    5.034715      5.00      14.0067
     130     2 Ga  31    3.185989    7.449133    5.812699     13.00      69.7230
     131     1 N    7    3.185248    7.464521    7.808295      5.00      14.0067
     132     2 Ga  31    3.185754    5.619132    8.457450     13.00      69.7230
     133     1 N    7    3.185425    5.619105   10.430527      5.00      14.0067
     134     2 Ga  31    3.184778    7.457755   11.082635     13.00      69.7230
     135     1 N    7    3.184415    7.438545   13.076451      5.00      14.0067
     136     2 Ga  31    3.183635    5.618401   13.891660     13.00      69.7230
     137     1 N    7    3.184003    5.618452   16.080664      5.00      14.0067
     138     2 Ga  31    3.184575    7.663308   16.501262     13.00      69.7230
     139     2 Ga  31    3.183841    9.331744    1.512238     13.00      69.7230
     140     1 N    7    1.682757   10.199565    2.538016      5.00      14.0067
     141     2 Ga  31    1.473525    8.346615    3.302638     13.00      69.7230
     142     1 N    7    1.575606    8.403075    5.265207      5.00      14.0067
     143     2 Ga  31    1.550818   10.275288    5.812264     13.00      69.7230
     144     1 N    7    1.566756   10.266036    7.809023      5.00      14.0067
     145     2 Ga  31    1.586352    8.409465    8.449089     13.00      69.7230
     146     1 N    7    1.587914    8.409604   10.442324      5.00      14.0067
     147     2 Ga  31    1.562724   10.269239   11.076598     13.00      69.7230
     148     1 N    7    1.546147   10.279337   13.069670      5.00      14.0067
     149     2 Ga  31    1.587970    8.411785   13.631662     13.00      69.7230
     150     1 N    7    1.553250    8.398975   15.591870      5.00      14.0067
     151     2 Ga  31    1.753331   10.161493   16.501743     13.00      69.7230
     152     1 N    7    3.184100    9.322489   17.640609      5.00      14.0067
     153     1 N    7    9.619779    1.906689    2.624806      5.00      14.0067
     154     2 Ga  31    9.616169    0.163941    3.302870     13.00      69.7230
     155     1 N    7    9.617006    0.049450    5.265568      5.00      14.0067
     156     2 Ga  31    9.615110    1.905242    5.892276     13.00      69.7230
     157     1 N    7    9.615684    1.904567    7.863484      5.00      14.0067
     158     2 Ga  31    9.616435    0.036485    8.448482     13.00      69.7230
     159     1 N    7    9.616990    0.035761   10.439969      5.00      14.0067
     160     2 Ga  31    9.616351    1.905873   11.033747     13.00      69.7230
     161     1 N    7    9.616446    1.905451   13.003508      5.00      14.0067
     162     2 Ga  31    9.616464    0.037564   13.629828     13.00      69.7230
     163     1 N    7    9.616393    0.068521   15.588568      5.00      14.0067
     164     2 Ga  31    9.616617    1.906408   15.867567     13.00      69.7230
     165     1 N    7    7.905519    4.627839    2.532850      5.00      14.0067
     166     2 Ga  31    8.106178    2.775744    3.297604     13.00      69.7230
     167     1 N    7    8.009095    2.831568    5.261591      5.00      14.0067
     168     2 Ga  31    8.036792    4.704488    5.805310     13.00      69.7230
     169     1 N    7    8.019078    4.696472    7.803861      5.00      14.0067
     170     2 Ga  31    7.998041    2.839891    8.446352     13.00      69.7230
     171     1 N    7    7.997218    2.840686   10.438481      5.00      14.0067
     172     2 Ga  31    8.022429    4.698862   11.076675     13.00      69.7230
     173     1 N    7    8.038788    4.707786   13.069295      5.00      14.0067
     174     2 Ga  31    7.998766    2.839677   13.630587     13.00      69.7230
     175     1 N    7    8.025358    2.823838   15.588320      5.00      14.0067
     176     2 Ga  31    7.830389    4.585312   16.506470     13.00      69.7230
     177     1 N    7    6.403629    7.476352    2.618275      5.00      14.0067
     178     2 Ga  31    6.403173    5.732806    3.293544     13.00      69.7230
     179     1 N    7    6.402175    5.619456    5.258490      5.00      14.0067
     180     2 Ga  31    6.404749    7.475869    5.883535     13.00      69.7230
     181     1 N    7    6.401582    7.475620    7.858207      5.00      14.0067
     182     2 Ga  31    6.401244    5.607579    8.445853     13.00      69.7230
     183     1 N    7    6.400033    5.606712   10.439706      5.00      14.0067
     184     2 Ga  31    6.400715    7.475637   11.034471     13.00      69.7230
     185     1 N    7    6.402969    7.477457   13.008406      5.00      14.0067
     186     2 Ga  31    6.400889    5.605738   13.632488     13.00      69.7230
     187     1 N    7    6.406831    5.642342   15.591327      5.00      14.0067
     188     2 Ga  31    6.399516    7.475341   15.872185     13.00      69.7230
     189     1 N    7    4.686614   10.200520    2.538889      5.00      14.0067
     190     2 Ga  31    4.896317    8.346426    3.299855     13.00      69.7230
     191     1 N    7    4.795742    8.402956    5.262934      5.00      14.0067
     192     2 Ga  31    4.817959   10.274502    5.812203     13.00      69.7230
     193     1 N    7    4.802560   10.265853    7.808465      5.00      14.0067
     194     2 Ga  31    4.783866    8.408852    8.448196     13.00      69.7230
     195     1 N    7    4.781645    8.409674   10.441461      5.00      14.0067
     196     2 Ga  31    4.806470   10.269124   11.077173     13.00      69.7230
     197     1 N    7    4.822399   10.279133   13.069972      5.00      14.0067
     198     2 Ga  31    4.781034    8.411444   13.631542     13.00      69.7230
     199     1 N    7    4.815508    8.399102   15.591474      5.00      14.0067
     200     2 Ga  31    4.614950   10.161525   16.501659     13.00      69.7230
     201     3 O    8    1.059390    3.459876   -0.260544      6.00      15.9994
     202     4 H    1    1.822890    4.001457    0.038072      1.00       1.0079
     203     5 C    6    1.555023    2.074151   -0.449918      4.00      12.0107
     204     4 H    1    2.223438    1.802855    0.384249      1.00       1.0079
     205     4 H    1    0.671065    1.429282   -0.454595      1.00       1.0079
     206     4 H    1    2.064331    2.035918   -1.419229      1.00       1.0079




 SCF PARAMETERS         Density guess:                                    ATOMIC
                        --------------------------------------------------------
                        max_scf:                                              80
                        max_scf_history:                                       0
                        max_diis:                                              4
                        --------------------------------------------------------
                        eps_scf:                                        5.00E-06
                        eps_scf_history:                                0.00E+00
                        eps_diis:                                       1.00E-01
                        eps_eigval:                                     1.00E-05
                        --------------------------------------------------------
                        level_shift [a.u.]:                                 0.00
                        --------------------------------------------------------
                        Outer loop SCF in use 
                        No variables optimised in outer loop
                        eps_scf                                         5.00E-06
                        max_scf                                                4
                        No outer loop optimization
                        step_size                                       5.00E-01

 PW_GRID| Information for grid number                                          1
 PW_GRID| Grid distributed over                                    80 processors
 PW_GRID| Real space group dimensions                                    80    1
 PW_GRID| the grid is blocked:                                                NO
 PW_GRID| Cutoff [a.u.]                                                    600.0
 PW_GRID| spherical cutoff:                                                   NO
 PW_GRID|   Bounds   1           -144     143                Points:         288
 PW_GRID|   Bounds   2           -144     143                Points:         288
 PW_GRID|   Bounds   3           -337     337                Points:         675
 PW_GRID| Volume element (a.u.^3)  0.5630E-03     Volume (a.u.^3)     31519.8467
 PW_GRID| Grid span                                                    FULLSPACE
 PW_GRID|   Distribution                         Average         Max         Min
 PW_GRID|   G-Vectors                           699840.0      699840      699840
 PW_GRID|   G-Rays                                2430.0        2430        2430
 PW_GRID|   Real Space Points                   699840.0      777600      583200

 PW_GRID| Information for grid number                                          2
 PW_GRID| Grid distributed over                                    80 processors
 PW_GRID| Real space group dimensions                                    80    1
 PW_GRID| the grid is blocked:                                                NO
 PW_GRID| Cutoff [a.u.]                                                    200.0
 PW_GRID| spherical cutoff:                                                   NO
 PW_GRID|   Bounds   1            -80      79                Points:         160
 PW_GRID|   Bounds   2            -80      79                Points:         160
 PW_GRID|   Bounds   3           -200     199                Points:         400
 PW_GRID| Volume element (a.u.^3)  0.3078E-02     Volume (a.u.^3)     31519.8467
 PW_GRID| Grid span                                                    FULLSPACE
 PW_GRID|   Distribution                         Average         Max         Min
 PW_GRID|   G-Vectors                           128000.0      128160      127840
 PW_GRID|   G-Rays                                 800.0         801         799
 PW_GRID|   Real Space Points                   128000.0      128000      128000

 PW_GRID| Information for grid number                                          3
 PW_GRID| Grid distributed over                                    80 processors
 PW_GRID| Real space group dimensions                                    80    1
 PW_GRID| the grid is blocked:                                                NO
 PW_GRID| Cutoff [a.u.]                                                     66.7
 PW_GRID| spherical cutoff:                                                   NO
 PW_GRID|   Bounds   1            -48      47                Points:          96
 PW_GRID|   Bounds   2            -48      47                Points:          96
 PW_GRID|   Bounds   3           -112     112                Points:         225
 PW_GRID| Volume element (a.u.^3)  0.1520E-01     Volume (a.u.^3)     31519.8467
 PW_GRID| Grid span                                                    FULLSPACE
 PW_GRID|   Distribution                         Average         Max         Min
 PW_GRID|   G-Vectors                            25920.0       26688       24864
 PW_GRID|   G-Rays                                 270.0         278         259
 PW_GRID|   Real Space Points                    25920.0       43200       21600

 PW_GRID| Information for grid number                                          4
 PW_GRID| Grid distributed over                                    80 processors
 PW_GRID| Real space group dimensions                                     8   10
 PW_GRID| the grid is blocked:                                                NO
 PW_GRID| Cutoff [a.u.]                                                     22.2
 PW_GRID| spherical cutoff:                                                   NO
 PW_GRID|   Bounds   1            -27      26                Points:          54
 PW_GRID|   Bounds   2            -27      26                Points:          54
[...]
 flops   235 x    32 x    32         679950458880     100.0%      0.0%      0.0%
 flops   950 x    32 x   166         746059776000     100.0%      0.0%      0.0%
 flops   955 x    32 x   166         749986406400     100.0%      0.0%      0.0%
 flops   963 x    32 x   166         756269015040     100.0%      0.0%      0.0%
 flops   978 x    32 x   166         768048906240     100.0%      0.0%      0.0%
 flops    25 x    11 x    25         836137500000     100.0%      0.0%      0.0%
 flops    25 x    25 x    43         869142875000     100.0%      0.0%      0.0%
 flops   235 x    32 x   190         964634316800     100.0%      0.0%      0.0%
 flops   235 x    64 x    32         989018849280     100.0%      0.0%      0.0%
 flops   235 x    32 x    64         989018849280     100.0%      0.0%      0.0%
 flops   235 x    32 x   202        1025558589440     100.0%      0.0%      0.0%
 flops   950 x    64 x   166        1085177856000     100.0%      0.0%      0.0%
 flops   955 x    64 x   166        1090889318400     100.0%      0.0%      0.0%
 flops   963 x    64 x   166        1100027658240     100.0%      0.0%      0.0%
 flops   978 x    64 x   166        1117162045440     100.0%      0.0%      0.0%
 flops   224 x    32 x   166        1205004337152     100.0%      0.0%      0.0%
 flops   235 x    64 x   190        1403104460800     100.0%      0.0%      0.0%
 flops   235 x    64 x    64        1438572871680     100.0%      0.0%      0.0%
 flops   235 x    64 x   202        1491721584640     100.0%      0.0%      0.0%
 flops   950 x    32 x   190        1707847680000     100.0%      0.0%      0.0%
 flops   955 x    32 x   190        1716836352000     100.0%      0.0%      0.0%
 flops   963 x    32 x   190        1731218227200     100.0%      0.0%      0.0%
 flops   224 x    64 x   166        1752733581312     100.0%      0.0%      0.0%
 flops   978 x    32 x   190        1758184243200     100.0%      0.0%      0.0%
 flops   950 x    32 x   202        1815711744000     100.0%      0.0%      0.0%
 flops    13 x    13 x    32        1824466502144     100.0%      0.0%      0.0%
 flops   955 x    32 x   202        1825268121600     100.0%      0.0%      0.0%
 flops   963 x    32 x   202        1840558325760     100.0%      0.0%      0.0%
 flops   978 x    32 x   202        1869227458560     100.0%      0.0%      0.0%
 flops   224 x    32 x    32        1944368971776     100.0%      0.0%      0.0%
 flops   950 x    32 x    32        2460584755200     100.0%      0.0%      0.0%
 flops   955 x    32 x    32        2473535201280     100.0%      0.0%      0.0%
 flops   950 x    64 x   190        2484142080000     100.0%      0.0%      0.0%
 flops   963 x    32 x    32        2494255915008     100.0%      0.0%      0.0%
 flops   955 x    64 x   190        2497216512000     100.0%      0.0%      0.0%
 flops   963 x    64 x   190        2518135603200     100.0%      0.0%      0.0%
 flops   978 x    32 x    32        2533107253248     100.0%      0.0%      0.0%
 flops   978 x    64 x   190        2557358899200     100.0%      0.0%      0.0%
 flops   950 x    64 x   202        2641035264000     100.0%      0.0%      0.0%
 flops    13 x    13 x    64        2653769457664     100.0%      0.0%      0.0%
 flops   955 x    64 x   202        2654935449600     100.0%      0.0%      0.0%
 flops   963 x    64 x   202        2677175746560     100.0%      0.0%      0.0%
 flops   978 x    64 x   202        2718876303360     100.0%      0.0%      0.0%
 flops   224 x    32 x   190        2758443663360     100.0%      0.0%      0.0%
 flops   224 x    32 x    64        2828173049856     100.0%      0.0%      0.0%
 flops   224 x    64 x    32        2828173049856     100.0%      0.0%      0.0%
 flops   224 x    32 x   202        2932661157888     100.0%      0.0%      0.0%
 flops   950 x    32 x    64        3579032371200     100.0%      0.0%      0.0%
 flops   950 x    64 x    32        3579032371200     100.0%      0.0%      0.0%
 flops   955 x    64 x    32        3597869383680     100.0%      0.0%      0.0%
 flops   955 x    32 x    64        3597869383680     100.0%      0.0%      0.0%
 flops   963 x    32 x    64        3628008603648     100.0%      0.0%      0.0%
 flops   963 x    64 x    32        3628008603648     100.0%      0.0%      0.0%
 flops    25 x    13 x    32        3656518236800     100.0%      0.0%      0.0%
 flops    13 x    25 x    32        3656691667200     100.0%      0.0%      0.0%
 flops   978 x    32 x    64        3684519641088     100.0%      0.0%      0.0%
 flops   978 x    64 x    32        3684519641088     100.0%      0.0%      0.0%
 flops   224 x    64 x   190        4012281692160     100.0%      0.0%      0.0%
 flops   224 x    64 x    64        4113706254336     100.0%      0.0%      0.0%
 flops   224 x    64 x   202        4265688956928     100.0%      0.0%      0.0%
 flops   950 x    64 x    64        5205865267200     100.0%      0.0%      0.0%
 flops   955 x    64 x    64        5233264558080     100.0%      0.0%      0.0%
 flops   963 x    64 x    64        5277103423488     100.0%      0.0%      0.0%
 flops    25 x    13 x    64        5318571980800     100.0%      0.0%      0.0%
 flops    13 x    25 x    64        5318824243200     100.0%      0.0%      0.0%
 flops   978 x    64 x    64        5359301296128     100.0%      0.0%      0.0%
 flops    25 x    25 x    32        7114844000000     100.0%      0.0%      0.0%
 flops    25 x    25 x    64       10348864000000     100.0%      0.0%      0.0%
 flops    13 x    32 x    13       17451543922176     100.0%      0.0%      0.0%
 flops    25 x    32 x    13       35355004339200     100.0%      0.0%      0.0%
 flops    13 x    32 x    25       35355004339200     100.0%      0.0%      0.0%
 flops    25 x    32 x    25       68107200000000     100.0%      0.0%      0.0%
 flops inhomo. stacks              85832915228480     100.0%      0.0%      0.0%
 flops total                       439.778755E+12     100.0%      0.0%      0.0%
 flops max/rank                      7.679138E+12     100.0%      0.0%      0.0%
 matmuls inhomo. stacks                   8825600     100.0%      0.0%      0.0%
 matmuls total                         8549259754     100.0%      0.0%      0.0%
 number of processed stacks             135600129     100.0%      0.0%      0.0%
 average stack size                                    63.0       0.0       0.0
 marketing flops                   473.280499E+12
 -------------------------------------------------------------------------------
 # multiplications                          42739
 max memory usage/rank               1.502056E+09
 # max total images/rank                        5
 # max 3D layers                                1
 # MPI messages exchanged               389779680
 MPI messages size (bytes):
  total size                        47.301616E+12
  min size                           0.000000E+00
  max size                           1.862112E+06
  average size                     121.354750E+03
 MPI breakdown and total messages size (bytes):
             size <=      128             2418320                        0
       128 < size <=     8192            50903204             416999047168
      8192 < size <=    32768           117325836            2350592395104
     32768 < size <=   131072           172141520           12231517695408
    131072 < size <=  4194304            46990800           32312369304912
   4194304 < size <= 16777216                   0                        0
  16777216 < size                               0                        0
 -------------------------------------------------------------------------------

 *** WARNING in dbcsr/mm/dbcsr_mm.F:268 :: Using a non-square number of ***
 *** MPI ranks might lead to poor performance.                          ***
 *** Used ranks: 80                                                     ***
 *** Suggested: 81 169                                                  ***

 -------------------------------------------------------------------------------
 
 MEMORY| Estimated peak process memory [MiB]                                1453

 -------------------------------------------------------------------------------
 ----                             MULTIGRID INFO                            ----
 -------------------------------------------------------------------------------
 count for grid        1:        1160243          cutoff [a.u.]          600.00
 count for grid        2:        8378585          cutoff [a.u.]          200.00
 count for grid        3:        7498655          cutoff [a.u.]           66.67
 count for grid        4:       10953089          cutoff [a.u.]           22.22
 count for grid        5:        9812241          cutoff [a.u.]            7.41
 total gridlevel count  :       37802813

 -------------------------------------------------------------------------------
 -                                                                             -
 -                         MESSAGE PASSING PERFORMANCE                         -
 -                                                                             -
 -------------------------------------------------------------------------------

 ROUTINE             CALLS      AVE VOLUME [Bytes]
 MP_Group             3444
 MP_Bcast            45010                   9795.
 MP_Allreduce       343324                    232.
 MP_Sync              1456
 MP_Alltoall        227420                5766762.
 MP_SendRecv         21488                   5443.
 MP_ISendRecv      1121958                 133520.
 MP_Wait           9556538
 MP_comm_split        1451
 MP_ISend         10966704                 116134.
 MP_IRecv         10966704                 115701.
 MP_Recv              1273                 153264.
 MP_Memory         4766416
 -------------------------------------------------------------------------------


 -------------------------------------------------------------------------------
 -                                                                             -
 -                           R E F E R E N C E S                               -
 -                                                                             -
 -------------------------------------------------------------------------------
 
 CP2K version 7.0 (Development Version), the CP2K developers group (2018).
 CP2K is freely available from https://www.cp2k.org/ .

 Schuett, Ole; Messmer, Peter; Hutter, Juerg; VandeVondele, Joost. 
 Electronic Structure Calculations on Graphics Processing Units, John Wiley & Sons, Ltd, 173-190 (2016). 
 GPU-Accelerated Sparse Matrix-Matrix Multiplication for Linear Scaling Density Functional Theory.
 http://dx.doi.org/10.1002/9781118670712.ch8


 Borstnik, U; VandeVondele, J; Weber, V; Hutter, J. 
 PARALLEL COMPUTING, 40 (5-6), 47-58 (2014). 
 Sparse matrix multiplication: The distributed block-compressed sparse
 row library.
 http://dx.doi.org/10.1016/j.parco.2014.03.012


 Hutter, J; Iannuzzi, M; Schiffmann, F; VandeVondele, J. 
 WILEY INTERDISCIPLINARY REVIEWS-COMPUTATIONAL MOLECULAR SCIENCE, 4 (1), 15-25 (2014). 
 CP2K: atomistic simulations of condensed matter systems.
 http://dx.doi.org/10.1002/wcms.1159


 Grimme, S; Ehrlich, S; Goerigk, L. 
 JOURNAL OF COMPUTATIONAL CHEMISTRY, 32, 1456 (2011). 
 Effect of the damping function in dispersion corrected density functional theory.
 http://dx.doi.org/10.1002/jcc.21759


 Grimme, S; Antony, J; Ehrlich, S; Krieg, H. 
 JOURNAL OF CHEMICAL PHYSICS, 132 (15), 154104 (2010). 
 A consistent and accurate ab initio parametrization of density
 functional dispersion correction (DFT-D) for the 94 elements H-Pu.
 http://dx.doi.org/10.1063/1.3382344


 VandeVondele, J; Hutter, J. 
 JOURNAL OF CHEMICAL PHYSICS, 127 (11), 114105 (2007). 
 Gaussian basis sets for accurate calculations on molecular systems in
 gas and condensed phases.
 http://dx.doi.org/10.1063/1.2770708


 Krack, M. 
 THEORETICAL CHEMISTRY ACCOUNTS, 114 (1-3), 145-152 (2005). 
 Pseudopotentials for H to Kr optimized for gradient-corrected
 exchange-correlation functionals.
 http://dx.doi.org/10.1007/s00214-005-0655-y


 VandeVondele, J; Krack, M; Mohamed, F; Parrinello, M; Chassaing, T;
 Hutter, J. COMPUTER PHYSICS COMMUNICATIONS, 167 (2), 103-128 (2005). 
 QUICKSTEP: Fast and accurate density functional calculations using a
 mixed Gaussian and plane waves approach.
 http://dx.doi.org/10.1016/j.cpc.2004.12.014


 Frigo, M; Johnson, SG. 
 PROCEEDINGS OF THE IEEE, 93 (2), 216-231 (2005). 
 The design and implementation of FFTW3.
 http://dx.doi.org/10.1109/JPROC.2004.840301


 Kolafa, J. 
 JOURNAL OF COMPUTATIONAL CHEMISTRY, 25 (3), 335-342 (2004). 
 Time-reversible always stable predictor-corrector method for molecular dynamics of polarizable molecules.
 http://dx.doi.org/10.1002/jcc.10385


 VandeVondele, J; Hutter, J. 
 JOURNAL OF CHEMICAL PHYSICS, 118 (10), 4365-4369 (2003). 
 An efficient orbital transformation method for electronic structure
 calculations.
 http://dx.doi.org/10.1063/1.1543154


 Hartwigsen, C; Goedecker, S; Hutter, J. 
 PHYSICAL REVIEW B, 58 (7), 3641-3662 (1998). 
 Relativistic separable dual-space Gaussian pseudopotentials from H to Rn.
 http://dx.doi.org/10.1103/PhysRevB.58.3641


 Lippert, G; Hutter, J; Parrinello, M. 
 MOLECULAR PHYSICS, 92 (3), 477-487 (1997). 
 A hybrid Gaussian and plane wave density functional scheme.
 http://dx.doi.org/10.1080/002689797170220


 Perdew, JP; Burke, K; Ernzerhof, M. 
 PHYSICAL REVIEW LETTERS, 77 (18), 3865-3868 (1996). 
 Generalized gradient approximation made simple.
 http://dx.doi.org/10.1103/PhysRevLett.77.3865


 Goedecker, S; Teter, M; Hutter, J. 
 PHYSICAL REVIEW B, 54 (3), 1703-1710 (1996). 
 Separable dual-space Gaussian pseudopotentials.
 http://dx.doi.org/10.1103/PhysRevB.54.1703


 -------------------------------------------------------------------------------
 -                                                                             -
 -                                T I M I N G                                  -
 -                                                                             -
 -------------------------------------------------------------------------------
 SUBROUTINE                       CALLS  ASD         SELF TIME        TOTAL TIME
                                MAXIMUM       AVERAGE  MAXIMUM  AVERAGE  MAXIMUM
 CP2K                                 1  1.0     0.06     0.08 21407.70 21407.73
 cp_geo_opt                           1  2.0     0.00     0.01 21406.70 21406.71
 geoopt_bfgs                          1  3.0     0.06     0.12 21406.70 21406.71
 cp_eval_at                          69  4.0     0.03     0.05 21375.57 21375.61
 qs_forces                           68  5.0     0.03     0.05 21279.85 21279.86
 qs_energies                         69  6.0     0.04     0.09 19997.67 19997.79
 scf_env_do_scf                      69  7.0     0.03     0.09 19116.41 19116.45
 scf_env_do_scf_inner_loop         1464  8.0     0.11     0.20 17588.86 17588.92
 rebuild_ks_matrix                 1532  9.9     0.01     0.02  9374.51  9376.41
 qs_ks_build_kohn_sham_matrix      1532 10.9     0.52     1.08  9374.50  9376.40
 qs_ks_update_qs_env               1538  9.0     0.01     0.03  8153.91  8155.60
 qs_rho_update_rho                 1533  9.0     0.03     0.04  7879.22  7883.87
 calculate_rho_elec                3066 10.0  3908.96  4000.99  7879.19  7883.86
 sum_up_and_integrate               834 11.8    12.42    13.96  5044.10  5045.62
 integrate_v_rspace                1668 12.8  2771.30  2854.94  5031.67  5034.89
 pw_transfer                      48099 13.4     5.15     6.14  4836.91  4859.79
 fft_wrap_pw1pw2                  45035 14.4     0.54     0.62  4812.74  4835.24
 fft_wrap_pw1pw2_600              26099 15.7   289.74   326.72  4470.87  4492.45
 fft3d_ps                         45035 16.4  1347.24  1492.41  4135.51  4174.60
 rs_pw_transfer                   24014 13.0     0.32     0.37  3835.62  3884.90
 density_rs2pw                     3066 11.0     0.22     0.26  3559.68  3625.42
 qs_vxc_create                     1532 11.9     0.06     0.09  3376.00  3376.79
 dbcsr_multiply_generic           42739 13.7     2.85     4.06  2921.43  2927.27
 mp_waitall_1                   8693082 16.7  2607.92  2719.75  2607.92  2719.75
 mp_alltoall_z22v                 45035 18.4  2409.40  2682.04  2409.40  2682.04
 qs_scf_new_mos                    1464  9.0     0.01     0.03  2578.27  2580.83
 qs_scf_loop_do_ot                 1464 10.0     0.06     0.15  2578.26  2580.82
 xc_vxc_pw_create                   834 12.8   150.31   169.95  2481.13  2481.59
 ot_scf_mini                       1464 11.0     0.24     0.46  2354.98  2356.74
 multiply_cannon                  42739 14.7    13.62    14.36  2268.92  2312.52
 xc_rho_set_and_dset_create        1532 13.9    26.73    28.59  1855.82  1886.03
 potential_pw2rs                   1668 13.8     1.31     1.51  1800.34  1803.46
 mp_waitany                      863456 14.9  1681.97  1780.70  1681.97  1780.70
 x_to_yz                          19628 18.0   213.94   245.72  1586.06  1684.71
 rs_pw_transfer_RS2PW_600          3204 13.0   643.17   695.23  1621.44  1672.70
 init_scf_loop                       74  8.0     0.01     0.03  1525.07  1525.10
 multiply_cannon_metrocomm3      854780 15.7     2.31     2.50  1348.39  1498.23
 yz_to_x                          15939 16.9   131.54   137.98  1166.66  1299.77
 qs_ks_update_qs_env_forces          68  6.0     0.00     0.00  1235.55  1235.74
 ot_mini                           1464 12.0     0.03     0.05  1232.99  1234.87
 rs_pw_transfer_PW2RS_600          1874 15.3   422.33   454.15  1059.66  1080.92
 xc_exc_calc                        698 13.0     3.39     3.87   894.81   895.25
 prepare_preconditioner              74  9.0     0.00     0.00   813.41   813.66
 qs_ot_get_derivative              1532 13.0     0.02     0.03   773.91   775.60
 make_preconditioner                148 10.0     0.01     0.02   747.42   747.50
 multiply_cannon_metrocomm1      854780 15.7     2.67     2.89   521.72   683.74
 make_full_all                      148 11.0     0.06     0.17   683.30   683.59
 mp_alltoall_d11v                 42769 15.1   588.47   667.60   588.47   667.60
 rs_distribute_matrix              4870 12.0     5.88    12.14   555.54   630.53
 init_scf_run                        69  7.0     0.00     0.01   544.64   544.65
 scf_env_initial_rho_setup           69  8.0     0.00     0.01   544.64   544.65
 wfi_extrapolate                     69  9.0     0.04     0.11   536.61   536.64
 cp_fm_syevd                       1451 13.7     0.01     0.03   509.80   510.99
 cp_fm_redistribute_end            1451 14.7   160.76   493.91   163.49   496.33
 apply_preconditioner_dbcsr        1680 14.0     0.00     0.03   482.55   483.81
 apply_all                         1680 15.0     0.19     0.28   482.55   483.80
 cp_fm_syevd_base                  1451 14.3   330.75   477.55   330.75   477.55
 ot_new_cg_direction                766 13.0     0.02     0.04   449.22   449.31
 qs_ot_get_p                       3076 11.9     0.03     0.08   435.15   442.50
 mp_sum_d                         51100 14.5   347.36   439.61   347.36   439.61
 -------------------------------------------------------------------------------

 The number of warnings for this run is : 2
 
 -------------------------------------------------------------------------------
  **** **** ******  **  PROGRAM ENDED AT                 2019-06-25 12:00:15.878
 ***** ** ***  *** **   PROGRAM RAN ON            blg9228.int.ets1.calculquebec.
 **    ****   ******    PROGRAM RAN BY                                       rzk
 ***** **    ** ** **   PROGRAM PROCESS ID                                157501
  **** **  *******  **  PROGRAM STOPPED IN /scratch/rzk/rzk/GaN-carbene/443-adat
                                           oms-both-2x2/02-Methanol/01-O-GaTop
