     156
 i =        1, E =     -6136.6602826548
 Ga        -0.0031973217       -0.0158329417       -0.5375978243
  N        -0.0002729792        1.8584778492        0.6070004344
 Ga        -0.0003340631        1.8280285915        2.6383733508
  N        -0.0033777092       -0.0156158792        3.2696807515
 Ga        -0.0021655543       -0.0150503029        5.2603987722
  N         0.0008177120        1.8596741960        5.8482827409
 Ga         0.0022941330        1.8581489365        7.8482484916
  N         0.0008325613       -0.0150039327        8.4505747944
 Ga         0.0037424285       -0.0157212432       10.4497904209
  N         0.0042778643        1.8600686392       11.0416100206
 Ga         0.0095810737        1.8622323068       13.0320846751
  N         0.0153145169       -0.0087376838       13.6325627815
 Ga         0.0303657146       -0.0177523754       15.6248407265
  N         0.0199690980        1.8574751175       16.2216229601
 Ga         0.0449056499        1.8471597367       18.2876798752
  N         0.0483622998       -0.0267697867       18.6985825854
 Ga        -1.6230535804        2.7898791253        0.3238541319
  N        -1.6248089143        4.6597400875        0.6067015033
 Ga        -1.5956871983        4.6757305102        2.6367587270
  N        -1.6231061493        2.7899847213        3.2283194532
 Ga        -1.6217674879        2.7906181087        5.2398664864
  N        -1.6212819708        4.6608901975        5.8464719872
 Ga        -1.6191123665        4.6615323225        7.8452083632
  N        -1.6203687041        2.7918356469        8.4511755972
 Ga        -1.6194714893        2.7953341902       10.4471814965
  N        -1.6174711312        4.6668684788       11.0552150655
 Ga        -1.6182115545        4.6713724081       13.0527932133
  N        -1.6072605277        2.7997912818       13.6583957874
 Ga        -1.6007219915        2.8161602455       15.6628934989
  N        -1.5864917356        4.6837829010       16.3112944039
 Ga        -1.5139618904        4.6814696967       18.3868523261
  N        -1.5563410175        2.7875763170       18.7503862197
 Ga        -3.2437384625        5.5955549241        0.3237725951
  N        -3.2373752983        7.4661486664        0.6072583589
 Ga        -3.2641814559        7.4807094817        2.6385124235
  N        -3.2426866707        5.5950413710        3.2286578867
 Ga        -3.2419168883        5.5960176201        5.2401146049
  N        -3.2357831216        7.4663010276        5.8469729464
 Ga        -3.2358784102        7.4670863412        7.8461434269
  N        -3.2398794263        5.5961823402        8.4494911724
 Ga        -3.2389638129        5.5972467493       10.4449666897
  N        -3.2308450687        7.4658300409       11.0556830104
 Ga        -3.2219451033        7.4629896966       13.0544922749
  N        -3.2356107151        5.5972952628       13.6928213190
 Ga        -3.2228763956        5.5920459903       15.7298879132
  N        -3.2086838394        7.4743580183       16.2703597881
 Ga        -3.1860048345        7.4477457056       18.3276803385
  N        -3.1597136335        5.5858955646       18.8509709716
 Ga         3.2425512690       -0.0154444831        0.3241597789
  N         3.2414643222        1.8548067304        0.6064021038
 Ga         3.2696605192        1.8704495886        2.6372720152
  N         3.2428082156       -0.0153017766        3.2283205518
 Ga         3.2440037530       -0.0146000083        5.2399923096
  N         3.2446612913        1.8555406062        5.8474752697
 Ga         3.2471217066        1.8563024502        7.8468898483
  N         3.2448897077       -0.0146518278        8.4498269504
 Ga         3.2477463997       -0.0140854247       10.4453935830
  N         3.2516267420        1.8569331698       11.0512937062
 Ga         3.2584457999        1.8540237926       13.0486564506
  N         3.2577885628       -0.0166279991       13.6599018239
 Ga         3.2696770648       -0.0186450489       15.6657457678
  N         3.2837456853        1.8547941513       16.2307322699
 Ga         3.3198538205        1.8605154978       18.2550802193
  N         3.3062123390       -0.0254917844       18.7102279610
 Ga         1.6221356990        2.7905839747        0.3237563090
  N         1.6293371793        4.6603705453        0.6070223436
 Ga         1.6011633683        4.6758752963        2.6371226510
  N         1.6229364589        2.7900955481        3.2290551297
 Ga         1.6243016429        2.7909478676        5.2409170862
  N         1.6297317145        4.6611462315        5.8483906112
 Ga         1.6302413201        4.6616173599        7.8483511512
  N         1.6261114988        2.7902904573        8.4495985161
 Ga         1.6296904996        2.7920965096       10.4450647633
  N         1.6277825813        4.6624061563       11.0491274075
 Ga         1.6292083899        4.6646668158       13.0448008324
  N         1.6312536219        2.7873349303       13.6464656679
 Ga         1.6546498919        2.7848568962       15.6410951999
  N         1.6293230375        4.6649093499       16.1842700260
 Ga         1.6786863167        4.6401694079       18.1816307407
  N         1.6849305246        2.7774728836       18.6348555359
 Ga         0.0031267229        5.5957808721       -0.5460701465
  N         0.0059631111        7.4707665100        0.6066882951
 Ga         0.0060798652        7.4382897771        2.6368391927
  N         0.0030123983        5.5951899876        3.2695690505
 Ga         0.0046924258        5.5962070880        5.2598085354
  N         0.0074734119        7.4707309737        5.8477415096
 Ga         0.0089332405        7.4693624435        7.8473701162
  N         0.0049623860        5.5956923357        8.4474706993
 Ga         0.0067270268        5.5972423047       10.4447617986
  N         0.0116974661        7.4694169957       11.0449963894
 Ga         0.0151744010        7.4714777145       13.0371053716
  N         0.0057221417        5.6027691594       13.6455276764
 Ga         0.0065744856        5.6014679292       15.6417763323
  N         0.0373347559        7.4660840077       16.2689273889
 Ga         0.0724175255        7.4318173524       18.3567074125
  N         0.1407145241        5.5806250150       18.9036521586
 Ga         6.4873193328       -0.0150112433        0.3233742336
  N         6.4933544674        1.8552433383        0.6060743324
 Ga         6.4660942529        1.8703010389        2.6370715268
  N         6.4880554862       -0.0152151861        3.2289341765
 Ga         6.4897979358       -0.0146098826        5.2408887384
  N         6.4945649508        1.8559331149        5.8479399459
 Ga         6.4944333309        1.8568653802        7.8474943582
  N         6.4910163974       -0.0135246734        8.4515625157
 Ga         6.4945850535       -0.0112760688       10.4481748481
  N         6.4964361939        1.8611465609       11.0529824779
 Ga         6.5008591089        1.8654496902       13.0501722680
  N         6.4899880273       -0.0069960992       13.6381631436
 Ga         6.5091177900       -0.0000172347       15.6389732349
  N         6.5163030652        1.8736524114       16.2287267972
 Ga         6.5704172374        1.8756360854       18.2694585042
  N         6.5611067635       -0.0219225493       18.6563897277
 Ga         4.8675978361        2.7916175924       -0.5407260326
  N         4.8709926279        4.6643840838        0.6069477307
 Ga         4.8708432856        4.6332330164        2.6375482957
  N         4.8683124134        2.7899033048        3.2693105128
 Ga         4.8696074812        2.7911732094        5.2595515951
  N         4.8722547803        4.6651825224        5.8481293875
 Ga         4.8727482693        4.6640304052        7.8478136686
  N         4.8709692207        2.7914532144        8.4504467523
 Ga         4.8737836868        2.7956321201       10.4497031964
  N         4.8796194818        4.6660237785       11.0584537595
 Ga         4.8809651009        4.6697467085       13.0609494638
  N         4.8759919498        2.7957601132       13.6540169747
 Ga         4.8829243276        2.8016387436       15.6676371274
  N         4.8619722954        4.6738428055       16.1683164338
 Ga         4.9320159015        4.6624527890       19.0957412229
  N         4.9395179743        2.7843410702       18.7401715930
 Ga         3.2489113720        5.5950409899        0.3233172581
  N         3.2480357333        7.4655302010        0.6067690759
 Ga         3.2754813191        7.4805719832        2.6380896340
  N         3.2486684975        5.5952812201        3.2291091164
 Ga         3.2500910083        5.5963528051        5.2407837129
  N         3.2504882013        7.4661955053        5.8494214578
 Ga         3.2531342337        7.4666203329        7.8498608401
  N         3.2515171868        5.5960007551        8.4551730500
 Ga         3.2549116764        5.5976588410       10.4543102789
  N         3.2566814873        7.4714429628       11.0507287255
 Ga         3.2573547722        7.4729246104       13.0479468244
  N         3.2491438095        5.5987218477       13.6294953600
 Ga         3.2565568451        5.6059564164       15.6352744893
  N         3.2799762446        7.4865169894       16.1586708114
 Ga         3.3270831884        7.4922726984       18.1719202848
  N         3.3630229158        5.5701081454       18.4642438826
  O         1.5785626048        5.0625112610       21.2417509721
  H         0.9895877105        5.3939069732       20.4837592599
  C         0.8497939393        3.9936799180       21.8793385119
  H         0.1204142472        3.5438253425       21.1905422924
  H         1.5513024616        3.2087964509       22.1881854315
  H         0.3181124446        4.3725756655       22.7648401941
  O         4.2301603392        4.7156143020       21.0723022173
  H         3.2217287531        4.8658501178       21.0771047447
  C         4.5508282545        3.5986215439       21.9417611164
  H         4.1183701978        2.6633779298       21.5603434655
  H         5.6425610817        3.5045259274       21.9648689898
  H         4.1789438021        3.8113129699       22.9520076747
     156
 i =        2, E =     -6136.6605363202
 Ga        -0.0031910187       -0.0159483932       -0.5456124401
  N        -0.0002203760        1.8587518755        0.6079732432
 Ga        -0.0002234608        1.8279102604        2.6382519992
  N        -0.0032769344       -0.0156196585        3.2703602131
 Ga        -0.0021034496       -0.0150256714        5.2605898107
  N         0.0009435014        1.8598687745        5.8486677968
 Ga         0.0026300895        1.8582781552        7.8485599041
  N         0.0010666796       -0.0150006715        8.4497615401
 Ga         0.0041335022       -0.0159299471       10.4485871980
  N         0.0045473925        1.8599903611       11.0427544182
 Ga         0.0117079819        1.8607962614       13.0329163276
  N         0.0163174261       -0.0075501491       13.6427468784
 Ga         0.0354400326       -0.0360066579       15.6370550581
  N         0.0330884029        1.8568066700       16.2122930473
 Ga         0.0493424273        1.8536595030       18.2804979511
  N         0.0394307453       -0.0165434087       18.6859426634
 Ga        -1.6225333631        2.7894037751        0.3238466796
  N        -1.6249419495        4.6596006083        0.6058880078
 Ga        -1.5957427921        4.6756611297        2.6364603438
  N        -1.6231795609        2.7899783789        3.2284179217
 Ga        -1.6217316985        2.7907369704        5.2398846645
  N        -1.6211208285        4.6609859384        5.8467374176
 Ga        -1.6189817560        4.6620633903        7.8454603945
  N        -1.6203449493        2.7920669875        8.4508795542
 Ga        -1.6195131548        2.7957383980       10.4466410618
  N        -1.6177264531        4.6667738916       11.0563077817
 Ga        -1.6191290056        4.6712142556       13.0546911490
  N        -1.6031759615        2.7985510580       13.6666743591
 Ga        -1.6073163553        2.8169219309       15.6740944162
  N        -1.5884730503        4.6837189855       16.3135879798
 Ga        -1.5119863947        4.6815630206       18.3925624286
  N        -1.5437804965        2.7880317305       18.7557875597
 Ga        -3.2438403676        5.5961729731        0.3237980573
  N        -3.2369988474        7.4659854632        0.6082781345
 Ga        -3.2641576894        7.4806925611        2.6384542912
  N        -3.2426697127        5.5948253029        3.2287745036
 Ga        -3.2418485359        5.5959994000        5.2401611722
  N        -3.2355783804        7.4663521636        5.8471091678
 Ga        -3.2355857456        7.4670818030        7.8461686843
  N        -3.2398226416        5.5963818943        8.4500463350
 Ga        -3.2393233888        5.5974380668       10.4459151312
  N        -3.2311042642        7.4662380833       11.0562383926
 Ga        -3.2224025434        7.4625219832       13.0559003551
  N        -3.2389454075        5.5956038478       13.6904527832
 Ga        -3.2256248058        5.5901309697       15.7284210323
  N        -3.1986293823        7.4603291935       16.2822001292
 Ga        -3.1959634966        7.4424003813       18.3361248827
  N        -3.1543920624        5.5837345170       18.8568246980
 Ga         3.2420133426       -0.0156218037        0.3241982600
  N         3.2419823804        1.8550650863        0.6059011473
 Ga         3.2697894582        1.8704364192        2.6372606697
  N         3.2430122200       -0.0151907543        3.2284360396
 Ga         3.2442384134       -0.0145190361        5.2400392665
  N         3.2447853854        1.8556086130        5.8476819667
 Ga         3.2473564867        1.8563398793        7.8468980935
  N         3.2448320422       -0.0144284569        8.4499890619
 Ga         3.2474839244       -0.0139941951       10.4455592318
  N         3.2521673135        1.8571199362       11.0519307885
 Ga         3.2594908639        1.8530500996       13.0493070443
  N         3.2569087290       -0.0165653888       13.6605259826
 Ga         3.2599379578       -0.0202767735       15.6661078812
  N         3.2855399031        1.8444444960       16.2440469529
 Ga         3.3272441822        1.8617815126       18.2706199689
  N         3.2942239761       -0.0211781901       18.7354062682
 Ga         1.6217450806        2.7901223711        0.3238179584
  N         1.6296117071        4.6602250185        0.6063026959
 Ga         1.6014449358        4.6757685188        2.6368901936
  N         1.6232089433        2.7900627708        3.2291706419
 Ga         1.6245105941        2.7910990601        5.2409252407
  N         1.6297850451        4.6612215354        5.8486152661
 Ga         1.6304867399        4.6619968313        7.8485701892
  N         1.6265267087        2.7905496113        8.4496760716
 Ga         1.6302186872        2.7927994635       10.4451010687
  N         1.6279442092        4.6626545282       11.0488252396
 Ga         1.6272916020        4.6667825043       13.0453551038
  N         1.6322074170        2.7880759380       13.6475526820
 Ga         1.6685116887        2.7950868884       15.6405728666
  N         1.6231604891        4.6643398071       16.1765093601
 Ga         1.6788040114        4.6422807911       18.1704760413
  N         1.6864833971        2.7831930349       18.6187025449
 Ga         0.0032549459        5.5957445150       -0.5421985088
  N         0.0060262138        7.4709720788        0.6059649826
 Ga         0.0061726859        7.4384405009        2.6365921691
  N         0.0031230352        5.5951802986        3.2691706578
 Ga         0.0048434760        5.5962967067        5.2596929569
  N         0.0075799895        7.4707240263        5.8482359598
 Ga         0.0089804134        7.4694135004        7.8479430537
  N         0.0051468068        5.5956773152        8.4477791399
 Ga         0.0068257616        5.5970973951       10.4453211205
  N         0.0116051074        7.4696922512       11.0436116837
 Ga         0.0150838479        7.4725765537       13.0352714373
  N         0.0035790783        5.6048496347       13.6430268521
 Ga         0.0100507474        5.5979446825       15.6403946508
  N         0.0411549496        7.4744725889       16.2526040484
 Ga         0.0560141650        7.4379445178       18.3462428427
  N         0.1438190653        5.5869014845       18.9037841931
 Ga         6.4879962393       -0.0152081481        0.3234429771
  N         6.4929839678        1.8554836332        0.6055952775
 Ga         6.4661302310        1.8702701015        2.6370589671
  N         6.4880060355       -0.0150836031        3.2291126161
 Ga         6.4898405832       -0.0145711402        5.2410038869
  N         6.4946934954        1.8559838703        5.8481836392
 Ga         6.4943096353        1.8568248661        7.8476003449
  N         6.4910889013       -0.0133453866        8.4514705068
 Ga         6.4948194202       -0.0107975215       10.4482844602
  N         6.4964368398        1.8619439971       11.0543599777
 Ga         6.5020176575        1.8663946419       13.0523970629
  N         6.4913828259       -0.0058017213       13.6318955098
 Ga         6.5151977687       -0.0010313972       15.6302585118
  N         6.5108785536        1.8678563266       16.2371172486
 Ga         6.5772031562        1.8754267085       18.2817801374
  N         6.5551561036       -0.0251870850       18.6676214500
 Ga         4.8677079560        2.7915009177       -0.5372940065
  N         4.8710758568        4.6638195682        0.6064346197
 Ga         4.8709093548        4.6331818425        2.6375450762
  N         4.8684069754        2.7898809984        3.2692670770
 Ga         4.8697328411        2.7912910002        5.2595787924
  N         4.8724271312        4.6652247631        5.8484206958
 Ga         4.8727429839        4.6643417658        7.8480528643
  N         4.8710269553        2.7916403882        8.4502603693
 Ga         4.8738743821        2.7960619498       10.4493203728
  N         4.8790351712        4.6658644749       11.0585314088
 Ga         4.8782175520        4.6701532705       13.0616373468
  N         4.8760132329        2.7970760757       13.6583238250
 Ga         4.8793637837        2.8015375965       15.6756418034
  N         4.8523510402        4.6764060420       16.1533749586
 Ga         4.9395658912        4.6606272801       19.0968015759
  N         4.9449013738        2.7871928506       18.7426344522
 Ga         3.2491388730        5.5956227842        0.3234029980
  N         3.2477934413        7.4653258032        0.6079266677
 Ga         3.2756082396        7.4805340055        2.6381489451
  N         3.2488278688        5.5950655827        3.2293402170
 Ga         3.2502477371        5.5963318653        5.2409684529
  N         3.2505159869        7.4662309664        5.8497099905
 Ga         3.2530926560        7.4665143027        7.8501788898
  N         3.2516175682        5.5960818000        8.4551379676
 Ga         3.2547417661        5.5980782002       10.4545756985
  N         3.2572159352        7.4722688188       11.0487399922
 Ga         3.2579723921        7.4750920270       13.0460944805
  N         3.2470803135        5.6028028150       13.6216947190
 Ga         3.2513063577        5.6070293571       15.6261817063
  N         3.2781273959        7.4819847765       16.1602490753
 Ga         3.3209075454        7.4897610548       18.1723448360
  N         3.3753949703        5.5631598881       18.4459349581
  O         1.5737767867        5.0607030602       21.2472677030
  H         0.9925062558        5.3955844191       20.4845874664
  C         0.8392849636        3.9859919927       21.8694534932
  H         0.1120444638        3.5411117612       21.1646486672
  H         1.5525094874        3.2136794350       22.1881945012
  H         0.3206335775        4.3701945436       22.7621756839
  O         4.2291838833        4.7158884440       21.0732029961
  H         3.2205106264        4.8659580164       21.0784517007
  C         4.5510656258        3.5985950230       21.9419738667
  H         4.1183425278        2.6635091403       21.5605025558
  H         5.6427768172        3.5050022321       21.9649851583
  H         4.1784181556        3.8112624784       22.9519124359
     156
 i =        3, E =     -6136.6611572206
 Ga        -0.0031843573       -0.0159425320       -0.5466231306
  N        -0.0001869693        1.8590084717        0.6078820889
 Ga        -0.0001727443        1.8275136581        2.6378426476
  N        -0.0032481469       -0.0156477382        3.2706331903
 Ga        -0.0020530142       -0.0149827335        5.2605890277
  N         0.0010239287        1.8598824683        5.8486600626
 Ga         0.0027146706        1.8584901721        7.8484454652
  N         0.0012419692       -0.0149070181        8.4493916506
 Ga         0.0046732268       -0.0149797479       10.4480057204
  N         0.0044933063        1.8598590722       11.0478784347
 Ga         0.0121018536        1.8609892451       13.0400741796
  N         0.0177689636       -0.0093370139       13.6436692979
 Ga         0.0359211437       -0.0335549073       15.6377028916
  N         0.0316856812        1.8557227567       16.2159347289
 Ga         0.0500400928        1.8544499268       18.2797141504
  N         0.0380213570       -0.0161628819       18.6822004164
 Ga        -1.6223125263        2.7895166215        0.3240406411
  N        -1.6246745652        4.6597165821        0.6059894368
 Ga        -1.5958664904        4.6755758360        2.6366302856
  N        -1.6228940442        2.7898575110        3.2284124788
 Ga        -1.6216060990        2.7908164198        5.2399168958
  N        -1.6210498237        4.6610994443        5.8468395913
 Ga        -1.6189916357        4.6620961480        7.8455551289
  N        -1.6202363096        2.7921272402        8.4512278441
 Ga        -1.6188829200        2.7956170879       10.4469731574
  N        -1.6178880661        4.6663663691       11.0569520381
 Ga        -1.6195665993        4.6699230351       13.0551289809
  N        -1.6041655652        2.7988121794       13.6676915560
 Ga        -1.6034918273        2.8151995194       15.6731101485
  N        -1.5898708335        4.6785758739       16.3148284949
 Ga        -1.5119999095        4.6841888006       18.3938989733
  N        -1.5470050127        2.7873440564       18.7381154090
 Ga        -3.2435920514        5.5962558206        0.3240068475
  N        -3.2367121572        7.4658460709        0.6081670156
 Ga        -3.2644494668        7.4808728144        2.6380295275
  N        -3.2426227623        5.5950996513        3.2287058983
 Ga        -3.2417449625        5.5960391853        5.2400664687
  N        -3.2355190845        7.4663645295        5.8470769624
 Ga        -3.2354517382        7.4670189592        7.8460340475
  N        -3.2397443578        5.5964941100        8.4505181851
 Ga        -3.2391608976        5.5972776397       10.4465082855
  N        -3.2313241013        7.4663267920       11.0554530820
 Ga        -3.2229093751        7.4619428656       13.0544123141
  N        -3.2381047466        5.5961589374       13.6910677897
 Ga        -3.2245921466        5.5887409328       15.7292288673
  N        -3.1996188148        7.4584956559       16.2813649595
 Ga        -3.1969121450        7.4420707589       18.3369294890
  N        -3.1529996456        5.5847923353       18.8636507047
 Ga         3.2420859602       -0.0158266052        0.3243809662
  N         3.2418871310        1.8549869765        0.6057565680
 Ga         3.2696644000        1.8703418884        2.6373917548
  N         3.2428261599       -0.0153619020        3.2283782604
 Ga         3.2443104403       -0.0145635328        5.2399575479
  N         3.2448012343        1.8555950050        5.8476789656
 Ga         3.2473513570        1.8563864098        7.8468919143
  N         3.2447971912       -0.0143797593        8.4500538162
 Ga         3.2472935864       -0.0137917565       10.4455313056
  N         3.2523273092        1.8571820570       11.0516787593
 Ga         3.2601377848        1.8528608132       13.0486352870
  N         3.2547445765       -0.0163275389       13.6612989863
 Ga         3.2601680297       -0.0188758363       15.6678287038
  N         3.2848770268        1.8468188743       16.2442609037
 Ga         3.3269161138        1.8610871086       18.2721897321
  N         3.2945064037       -0.0219110655       18.7401970169
 Ga         1.6215950513        2.7902387613        0.3240338190
  N         1.6294037606        4.6603426647        0.6064305810
 Ga         1.6016676931        4.6756627679        2.6370664556
  N         1.6230074841        2.7899509628        3.2291331204
 Ga         1.6244987944        2.7911582190        5.2408723237
  N         1.6298233618        4.6612928280        5.8486257999
 Ga         1.6304134206        4.6619818586        7.8485468883
  N         1.6266180236        2.7906085119        8.4500223962
 Ga         1.6297754983        2.7922414762       10.4455462952
  N         1.6276466219        4.6627108566       11.0466365900
 Ga         1.6254509102        4.6662969034       13.0422650924
  N         1.6351486728        2.7892710333       13.6474644484
 Ga         1.6646631226        2.7911905690       15.6402741588
  N         1.6230093969        4.6636847137       16.1715897611
 Ga         1.6790191035        4.6446590455       18.1668851648
  N         1.6863358040        2.7857333556       18.6157085396
 Ga         0.0033172744        5.5957135480       -0.5420288105
  N         0.0060594049        7.4707070012        0.6060951944
 Ga         0.0062122804        7.4386250699        2.6367827683
  N         0.0031784418        5.5951823051        3.2689153480
 Ga         0.0048964990        5.5963281745        5.2595547254
  N         0.0076299885        7.4707141096        5.8483456730
 Ga         0.0089270460        7.4694187476        7.8480222152
  N         0.0051304518        5.5957192467        8.4478094258
 Ga         0.0061194495        5.5969752696       10.4452730456
  N         0.0115928910        7.4698155716       11.0437238301
 Ga         0.0141543664        7.4734703586       13.0358808020
  N         0.0028906156        5.6049473160       13.6427856260
 Ga         0.0066367756        5.5969980968       15.6404947659
  N         0.0412829045        7.4739451335       16.2545208427
 Ga         0.0540175049        7.4388582305       18.3461641513
  N         0.1452613289        5.5877027629       18.9030041565
 Ga         6.4880038315       -0.0154206597        0.3236554964
  N         6.4931454173        1.8554073974        0.6054447792
 Ga         6.4663276490        1.8701525823        2.6371857136
  N         6.4882693501       -0.0152658733        3.2290673555
 Ga         6.4898674361       -0.0146298166        5.2409175004
  N         6.4947666629        1.8559427229        5.8481338341
 Ga         6.4944581926        1.8570155711        7.8475283376
  N         6.4910780213       -0.0132143018        8.4513104509
 Ga         6.4947389010       -0.0099598867       10.4481167663
  N         6.4968680324        1.8625995628       11.0553732642
 Ga         6.5020290686        1.8681841108       13.0534112753
  N         6.4923857668       -0.0048524243       13.6312757693
 Ga         6.5123069604        0.0018175392       15.6301016088
  N         6.5163226568        1.8695249016       16.2392283926
 Ga         6.5733371483        1.8713049170       18.2832813280
  N         6.5544583265       -0.0277374496       18.6697996434
 Ga         4.8677491721        2.7914507346       -0.5362866467
  N         4.8711108735        4.6639520507        0.6062588040
 Ga         4.8709413448        4.6333705244        2.6376423562
  N         4.8684499947        2.7898993772        3.2691223722
 Ga         4.8697847561        2.7913267856        5.2595813576
  N         4.8724655632        4.6653354437        5.8484391550
 Ga         4.8729138205        4.6644234124        7.8481060513
  N         4.8710742649        2.7916518023        8.4504510949
 Ga         4.8741014287        2.7959094298       10.4495508517
  N         4.8787876750        4.6657928620       11.0582283483
 Ga         4.8791444186        4.6697278053       13.0617857612
  N         4.8751722556        2.7968694347       13.6602575541
 Ga         4.8817708955        2.7973465174       15.6783154475
  N         4.8509521880        4.6747082750       16.1491347892
 Ga         4.9416366759        4.6585861766       19.0972697938
  N         4.9449893790        2.7842314416       18.7489864950
 Ga         3.2489563779        5.5956982411        0.3236360117
  N         3.2475777999        7.4651749975        0.6078604060
 Ga         3.2759662142        7.4807071985        2.6377457916
  N         3.2488592858        5.5953393070        3.2292898490
 Ga         3.2502400568        5.5963900065        5.2408679987
  N         3.2505592019        7.4662507703        5.8496498001
 Ga         3.2531493501        7.4666354797        7.8500291354
  N         3.2516000504        5.5961647600        8.4548449648
 Ga         3.2547726757        5.5981828816       10.4542590568
  N         3.2577066709        7.4729289956       11.0476267547
 Ga         3.2591561059        7.4761834224       13.0447525033
  N         3.2452553100        5.6027666900       13.6185767241
 Ga         3.2524896549        5.6094137866       15.6236229934
  N         3.2763244256        7.4845652706       16.1592587687
 Ga         3.3190251762        7.4893030239       18.1720056640
  N         3.3797869421        5.5616228767       18.4390691731
  O         1.5755094466        5.0619470865       21.2424216452
  H         0.9926379992        5.3989644389       20.4825204773
  C         0.8456966834        3.9906564854       21.8749549326