 DBCSR| Multiplication driver                                               BLAS
 DBCSR| Multrec recursion limit                                              512
 DBCSR| Multiplication stack size                                           1000
 DBCSR| Maximum elements for images                                    UNLIMITED
 DBCSR| Multiplicative factor virtual images                                   1
 DBCSR| Multiplication size stacks                                             3
 DBCSR| Number of 3D layers                                               SINGLE
 DBCSR| Use MPI memory allocation                                              T
 DBCSR| Use RMA algorithm                                                      F
 DBCSR| Use Communication thread                                               T
 DBCSR| Communication thread load                                             87


  **** **** ******  **  PROGRAM STARTED AT               2019-05-23 13:05:41.692
 ***** ** ***  *** **   PROGRAM STARTED ON        blg9144.int.ets1.calculquebec.
 **    ****   ******    PROGRAM STARTED BY                                   rzk
 ***** **    ** ** **   PROGRAM PROCESS ID                                374602
  **** **  *******  **  PROGRAM STARTED IN /lustre03/project/6004141/rzk/GaN-car
                                           bene/03-Carbene/00-vacuum-carbene

 CP2K| version string:                    CP2K version 7.0 (Development Version)
 CP2K| source code revision number:                                    svn:18619
 CP2K| cp2kflags: libint fftw3 libxc parallel mpi3 scalapack mkl                
 CP2K| is freely available from                            https://www.cp2k.org/
 CP2K| Program compiled at                          Sun Apr  7 00:48:11 EDT 2019
 CP2K| Program compiled on                      beluga2.int.ets1.calculquebec.ca
 CP2K| Program compiled for                    Beluga-Linux-x86-64-intel-openmpi
 CP2K| Data directory path    /home/rzk/projects/def-rzk/group/cp2k/cp2k-mcgill/
 CP2K| Input file name                                                 start.inp
 
 GLOBAL| Force Environment number                                              1
 GLOBAL| Basis set file name                                        BASIS_MOLOPT
 GLOBAL| Potential file name                                      GTH_POTENTIALS
 GLOBAL| MM Potential file name                                     MM_POTENTIAL
 GLOBAL| Coordinate file name                                      __STD_INPUT__
 GLOBAL| Method name                                                        CP2K
 GLOBAL| Project name                                                       TEST
 GLOBAL| Preferred FFT library                                             FFTW3
 GLOBAL| Preferred diagonalization lib.                                       SL
 GLOBAL| Run type                                                        GEO_OPT
 GLOBAL| All-to-all communication in single precision                          F
 GLOBAL| FFTs using library dependent lengths                                  F
 GLOBAL| Global print level                                               MEDIUM
 GLOBAL| MPI I/O enabled                                                       T
 GLOBAL| Total number of message passing processes                            40
 GLOBAL| Number of threads for this process                                    1
 GLOBAL| This output is from process                                           0
 GLOBAL| CPU model name :  Intel(R) Xeon(R) Gold 6148 CPU @ 2.40GHz

 MEMORY| system memory details [Kb]
 MEMORY|                        rank 0           min           max       average
 MEMORY| MemTotal            196614300     196614300     196614300     196614300
 MEMORY| MemFree             149060800     149060800     149060800     149060800
 MEMORY| Buffers                     0             0             0             0
 MEMORY| Cached               29413256      29413256      29413256      29413256
 MEMORY| Slab                  5209752       5209752       5209752       5209752
 MEMORY| SReclaimable           426504        426504        426504        426504
 MEMORY| MemLikelyFree       178900560     178900560     178900560     178900560


 *** Fundamental physical constants (SI units) ***

 *** Literature: B. J. Mohr and B. N. Taylor,
 ***             CODATA recommended values of the fundamental physical
 ***             constants: 2006, Web Version 5.1
 ***             http://physics.nist.gov/constants

 Speed of light in vacuum [m/s]                             2.99792458000000E+08
 Magnetic constant or permeability of vacuum [N/A**2]       1.25663706143592E-06
 Electric constant or permittivity of vacuum [F/m]          8.85418781762039E-12
 Planck constant (h) [J*s]                                  6.62606896000000E-34
 Planck constant (h-bar) [J*s]                              1.05457162825177E-34
 Elementary charge [C]                                      1.60217648700000E-19
 Electron mass [kg]                                         9.10938215000000E-31
 Electron g factor [ ]                                     -2.00231930436220E+00
 Proton mass [kg]                                           1.67262163700000E-27
 Fine-structure constant                                    7.29735253760000E-03
 Rydberg constant [1/m]                                     1.09737315685270E+07
 Avogadro constant [1/mol]                                  6.02214179000000E+23
 Boltzmann constant [J/K]                                   1.38065040000000E-23
 Atomic mass unit [kg]                                      1.66053878200000E-27
 Bohr radius [m]                                            5.29177208590000E-11

 *** Conversion factors ***

 [u] -> [a.u.]                                              1.82288848426455E+03
 [Angstrom] -> [Bohr] = [a.u.]                              1.88972613288564E+00
 [a.u.] = [Bohr] -> [Angstrom]                              5.29177208590000E-01
 [a.u.] -> [s]                                              2.41888432650478E-17
 [a.u.] -> [fs]                                             2.41888432650478E-02
 [a.u.] -> [J]                                              4.35974393937059E-18
 [a.u.] -> [N]                                              8.23872205491840E-08
 [a.u.] -> [K]                                              3.15774647902944E+05
 [a.u.] -> [kJ/mol]                                         2.62549961709828E+03
 [a.u.] -> [kcal/mol]                                       6.27509468713739E+02
 [a.u.] -> [Pa]                                             2.94210107994716E+13
 [a.u.] -> [bar]                                            2.94210107994716E+08
 [a.u.] -> [atm]                                            2.90362800883016E+08
 [a.u.] -> [eV]                                             2.72113838565563E+01
 [a.u.] -> [Hz]                                             6.57968392072181E+15
 [a.u.] -> [1/cm] (wave numbers)                            2.19474631370540E+05
 [a.u./Bohr**2] -> [1/cm]                                   5.14048714338585E+03
 

 CELL_TOP| Volume [angstrom^3]:                                         2519.385
 CELL_TOP| Vector a [angstrom     9.737     0.000     0.000    |a| =       9.737
 CELL_TOP| Vector b [angstrom    -4.859     8.416     0.000    |b| =       9.718
 CELL_TOP| Vector c [angstrom     0.000     0.000    30.744    |c| =      30.744
 CELL_TOP| Angle (b,c), alpha [degree]:                                   90.000
 CELL_TOP| Angle (a,c), beta  [degree]:                                   90.000
 CELL_TOP| Angle (a,b), gamma [degree]:                                  120.000
 CELL_TOP| Numerically orthorhombic:                                          NO
 
 GENERATE|  Preliminary Number of Bonds generated:                             0
 GENERATE|  Achieved consistency in connectivity generation.

 CELL| Volume [angstrom^3]:                                             2519.385
 CELL| Vector a [angstrom]:       9.737     0.000     0.000    |a| =       9.737
 CELL| Vector b [angstrom]:      -4.859     8.416     0.000    |b| =       9.718
 CELL| Vector c [angstrom]:       0.000     0.000    30.744    |c| =      30.744
 CELL| Angle (b,c), alpha [degree]:                                       90.000
 CELL| Angle (a,c), beta  [degree]:                                       90.000
 CELL| Angle (a,b), gamma [degree]:                                      120.000
 CELL| Numerically orthorhombic:                                              NO

 CELL_REF| Volume [angstrom^3]:                                         2432.344
 CELL_REF| Vector a [angstrom     9.558     0.000     0.000    |a| =       9.558
 CELL_REF| Vector b [angstrom    -4.779     8.277     0.000    |b| =       9.558
 CELL_REF| Vector c [angstrom     0.000     0.000    30.744    |c| =      30.744
 CELL_REF| Angle (b,c), alpha [degree]:                                   90.000
 CELL_REF| Angle (a,c), beta  [degree]:                                   90.000
 CELL_REF| Angle (a,b), gamma [degree]:                                  120.000
 CELL_REF| Numerically orthorhombic:                                          NO

 *******************************************************************************
 *******************************************************************************
 **                                                                           **
 **     #####                         ##              ##                      **
 **    ##   ##            ##          ##              ##                      **
 **   ##     ##                       ##            ######                    **
 **   ##     ##  ##   ##  ##   #####  ##  ##   ####   ##    #####    #####    **
 **   ##     ##  ##   ##  ##  ##      ## ##   ##      ##   ##   ##  ##   ##   **
 **   ##  ## ##  ##   ##  ##  ##      ####     ###    ##   ######   ######    **
 **    ##  ###   ##   ##  ##  ##      ## ##      ##   ##   ##       ##        **
 **     #######   #####   ##   #####  ##  ##  ####    ##    #####   ##        **
 **           ##                                                    ##        **
 **                                                                           **
 **                                                ... make the atoms dance   **
 **                                                                           **
 **            Copyright (C) by CP2K developers group (2000 - 2018)           **
 **                                                                           **
 *******************************************************************************

 DFT| Spin restricted Kohn-Sham (RKS) calculation                            RKS
 DFT| Multiplicity                                                             1
 DFT| Number of spin states                                                    1
 DFT| Charge                                                                   0
 DFT| Self-interaction correction (SIC)                                       NO
 DFT| Cutoffs: density                                              1.000000E-10
 DFT|          gradient                                             1.000000E-10
 DFT|          tau                                                  1.000000E-10
 DFT|          cutoff_smoothing_range                               0.000000E+00
 DFT| XC density smoothing                                                  NONE
 DFT| XC derivatives                                                          PW
 FUNCTIONAL| ROUTINE=NEW
 FUNCTIONAL| PBE:
 FUNCTIONAL| J.P.Perdew, K.Burke, M.Ernzerhof, Phys. Rev. Letter, vol. 77, n 18,
 FUNCTIONAL|  pp. 3865-3868, (1996){spin unpolarized}                           
 vdW POTENTIAL|                                                   Pair Potential
 vdW POTENTIAL|          DFT-D3 (Version 3.1)
 vdW POTENTIAL|          Potential Form: S. Grimme et al, JCP 132: 154104 (2010)
 vdW POTENTIAL|          Zero Damping
 vdW POTENTIAL|          Cutoff Radius [Bohr]:                             18.90
 vdW POTENTIAL|          s6 Scaling Factor:                               1.0000
 vdW POTENTIAL|          sr6 Scaling Factor:                              1.2170
 vdW POTENTIAL|          s8 Scaling Factor:                               0.7220
 vdW POTENTIAL|          Cutoff for CN calculation:                   0.1000E-05

 QS| Method:                                                                 GPW
 QS| Density plane wave grid type                        NON-SPHERICAL FULLSPACE
 QS| Number of grid levels:                                                    5
 QS| Density cutoff [a.u.]:                                                600.0
 QS| Multi grid cutoff [a.u.]: 1) grid level                               600.0
 QS|                           2) grid level                               200.0
 QS|                           3) grid level                                66.7
 QS|                           4) grid level                                22.2
 QS|                           5) grid level                                 7.4
 QS| Grid level progression factor:                                          3.0
 QS| Relative density cutoff [a.u.]:                                        20.0
 QS| Consistent realspace mapping and integration 
 QS| Interaction thresholds: eps_pgf_orb:                                1.0E-07
 QS|                         eps_filter_matrix:                          0.0E+00
 QS|                         eps_core_charge:                            1.0E-16
 QS|                         eps_rho_gspace:                             1.0E-14
 QS|                         eps_rho_rspace:                             1.0E-14
 QS|                         eps_gvg_rspace:                             1.0E-07
 QS|                         eps_ppl:                                    1.0E-02
 QS|                         eps_ppnl:                                   1.0E-09


 ATOMIC KIND INFORMATION

  1. Atomic kind: C                                     Number of atoms:       1

     Orbital Basis Set                                     DZVP-MOLOPT-SR-GTH-q4

       Number of orbital shell sets:                                           1
       Number of orbital shells:                                               5
       Number of primitive Cartesian functions:                                5
       Number of Cartesian basis functions:                                   14
       Number of spherical basis functions:                                   13
       Norm type:                                                              2

       Normalised Cartesian orbitals:

                        Set   Shell   Orbital            Exponent    Coefficient

                          1       1    2s                5.605331       0.322515
                                                         2.113016       0.213043
                                                         0.769911      -0.209686
                                                         0.348157      -0.219794
                                                         0.128212      -0.022789

                          1       2    3s                5.605331       0.552234
                                                         2.113016       0.082072
                                                         0.769911       0.007843
                                                         0.348157       0.136893
                                                         0.128212       0.074283

                          1       3    3px               5.605331      -0.703879
                                                         2.113016      -0.642521
                                                         0.769911      -0.374851
                                                         0.348157      -0.139743
                                                         0.128212      -0.027849
                          1       3    3py               5.605331      -0.703879
                                                         2.113016      -0.642521
                                                         0.769911      -0.374851
                                                         0.348157      -0.139743
                                                         0.128212      -0.027849
                          1       3    3pz               5.605331      -0.703879
                                                         2.113016      -0.642521
                                                         0.769911      -0.374851
                                                         0.348157      -0.139743
                                                         0.128212      -0.027849

                          1       4    4px               5.605331      -0.480376
                                                         2.113016      -0.552894
                                                         0.769911      -0.316145
                                                         0.348157       0.210505
                                                         0.128212       0.076095
                          1       4    4py               5.605331      -0.480376
                                                         2.113016      -0.552894
                                                         0.769911      -0.316145
                                                         0.348157       0.210505
                                                         0.128212       0.076095
                          1       4    4pz               5.605331      -0.480376
                                                         2.113016      -0.552894
                                                         0.769911      -0.316145
                                                         0.348157       0.210505
                                                         0.128212       0.076095

                          1       5    4dx2              5.605331       0.640026
                                                         2.113016       0.274300
                                                         0.769911       0.446711
                                                         0.348157       0.028674
                                                         0.128212       0.029790
                          1       5    4dxy              5.605331       1.108557
                                                         2.113016       0.475102
                                                         0.769911       0.773726
                                                         0.348157       0.049666
                                                         0.128212       0.051599
                          1       5    4dxz              5.605331       1.108557
                                                         2.113016       0.475102
                                                         0.769911       0.773726
                                                         0.348157       0.049666
                                                         0.128212       0.051599
                          1       5    4dy2              5.605331       0.640026
                                                         2.113016       0.274300
                                                         0.769911       0.446711
                                                         0.348157       0.028674
                                                         0.128212       0.029790
                          1       5    4dyz              5.605331       1.108557
                                                         2.113016       0.475102
                                                         0.769911       0.773726
                                                         0.348157       0.049666
                                                         0.128212       0.051599
                          1       5    4dz2              5.605331       0.640026
                                                         2.113016       0.274300
                                                         0.769911       0.446711
                                                         0.348157       0.028674
                                                         0.128212       0.029790

     GTH Potential information for                                    GTH-PBE-q4

       Description:                       Goedecker-Teter-Hutter pseudopotential
                                           Goedecker et al., PRB 54, 1703 (1996)
                                          Hartwigsen et al., PRB 58, 3641 (1998)
                                                      Krack, TCA 114, 145 (2005)

       Gaussian exponent of the core charge distribution:               4.364419
       Electronic configuration (s p d ...):                               2   2

       Parameters of the local part of the GTH pseudopotential:

                          rloc        C1          C2          C3          C4
                        0.338471   -8.803674    1.339211

       Parameters of the non-local part of the GTH pseudopotential:

                   l      r(l)      h(i,j,l)

                   0    0.302576    9.622487
                   1    0.291507

  2. Atomic kind: H                                     Number of atoms:       2

     Orbital Basis Set                                     DZVP-MOLOPT-SR-GTH-q1

       Number of orbital shell sets:                                           1
       Number of orbital shells:                                               3
       Number of primitive Cartesian functions:                                5
       Number of Cartesian basis functions:                                    5
       Number of spherical basis functions:                                    5
       Norm type:                                                              2

       Normalised Cartesian orbitals:

                        Set   Shell   Orbital            Exponent    Coefficient

                          1       1    2s               10.068468      -0.133023
                                                         2.680223      -0.177618
                                                         0.791502      -0.258419
                                                         0.239116      -0.107525
                                                         0.082193      -0.014019

                          1       2    3s               10.068468       0.344673
                                                         2.680223       1.819821
                                                         0.791502      -0.999069
                                                         0.239116       0.017430
                                                         0.082193       0.082660

                          1       3    3px              10.068468       0.155326
                                                         2.680223       0.367157
                                                         0.791502       0.311480
                                                         0.239116       0.080105
                                                         0.082193       0.033440
                          1       3    3py              10.068468       0.155326
                                                         2.680223       0.367157
                                                         0.791502       0.311480
                                                         0.239116       0.080105
                                                         0.082193       0.033440
                          1       3    3pz              10.068468       0.155326
                                                         2.680223       0.367157
                                                         0.791502       0.311480
                                                         0.239116       0.080105
                                                         0.082193       0.033440

     GTH Potential information for                                    GTH-PBE-q1

       Description:                       Goedecker-Teter-Hutter pseudopotential
                                           Goedecker et al., PRB 54, 1703 (1996)
                                          Hartwigsen et al., PRB 58, 3641 (1998)
                                                      Krack, TCA 114, 145 (2005)

       Gaussian exponent of the core charge distribution:              12.500000
       Electronic configuration (s p d ...):                                   1

       Parameters of the local part of the GTH pseudopotential:

                          rloc        C1          C2          C3          C4
                        0.200000   -4.178900    0.724463


 MOLECULE KIND INFORMATION


 All atoms are their own molecule, skipping detailed information


 TOTAL NUMBERS AND MAXIMUM NUMBERS

  Total number of            - Atomic kinds:                                   2
                             - Atoms:                                          3
                             - Shell sets:                                     3
                             - Shells:                                        11
                             - Primitive Cartesian functions:                 15
                             - Cartesian basis functions:                     24
                             - Spherical basis functions:                     23

  Maximum angular momentum of- Orbital basis functions:                        2
                             - Local part of the GTH pseudopotential:          2
                             - Non-local part of the GTH pseudopotential:      0


 MODULE QUICKSTEP:  ATOMIC COORDINATES IN angstrom

  Atom  Kind  Element       X           Y           Z          Z(eff)       Mass

       1     1 C    6    1.658868    4.679325   20.316283      4.00      12.0107
       2     2 H    1    1.625319    5.689159   20.668431      1.00       1.0079
       3     2 H    1    0.806942    4.145420   20.682436      1.00       1.0079




 SCF PARAMETERS         Density guess:                                    ATOMIC
                        --------------------------------------------------------
                        max_scf:                                             100
                        max_scf_history:                                       0
                        max_diis:                                              4
                        --------------------------------------------------------
                        eps_scf:                                        5.00E-06
                        eps_scf_history:                                0.00E+00
                        eps_diis:                                       1.00E-01
                        eps_eigval:                                     1.00E-05
                        --------------------------------------------------------
                        level_shift [a.u.]:                                 0.00
                        --------------------------------------------------------
                        Outer loop SCF in use 
                        No variables optimised in outer loop
                        eps_scf                                         5.00E-06
                        max_scf                                               10
                        No outer loop optimization
                        step_size                                       5.00E-01

 PW_GRID| Information for grid number                                          1
 PW_GRID| Grid distributed over                                    40 processors
 PW_GRID| Real space group dimensions                                    40    1
 PW_GRID| the grid is blocked:                                                NO
 PW_GRID| Cutoff [a.u.]                                                    600.0
 PW_GRID| spherical cutoff:                                                   NO
 PW_GRID|   Bounds   1           -100      99                Points:         200
 PW_GRID|   Bounds   2           -100      99                Points:         200
 PW_GRID|   Bounds   3           -324     323                Points:         648
 PW_GRID| Volume element (a.u.^3)  0.6333E-03     Volume (a.u.^3)     16414.2734
 PW_GRID| Grid span                                                    FULLSPACE
 PW_GRID|   Distribution                         Average         Max         Min
 PW_GRID|   G-Vectors                           648000.0      648000      648000
 PW_GRID|   G-Rays                                3240.0        3240        3240
 PW_GRID|   Real Space Points                   648000.0      648000      648000

 PW_GRID| Information for grid number                                          2
 PW_GRID| Grid distributed over                                    40 processors
 PW_GRID| Real space group dimensions                                    40    1
 PW_GRID| the grid is blocked:                                                NO
 PW_GRID| Cutoff [a.u.]                                                    200.0
 PW_GRID| spherical cutoff:                                                   NO
 PW_GRID|   Bounds   1            -60      59                Points:         120
 PW_GRID|   Bounds   2            -60      59                Points:         120
 PW_GRID|   Bounds   3           -187     187                Points:         375
 PW_GRID| Volume element (a.u.^3)  0.3040E-02     Volume (a.u.^3)     16414.2734
 PW_GRID| Grid span                                                    FULLSPACE
 PW_GRID|   Distribution                         Average         Max         Min
 PW_GRID|   G-Vectors                           135000.0      135960      134040
 PW_GRID|   G-Rays                                1125.0        1133        1117
 PW_GRID|   Real Space Points                   135000.0      135000      135000

 PW_GRID| Information for grid number                                          3
 PW_GRID| Grid distributed over                                    40 processors
 PW_GRID| Real space group dimensions                                    40    1
 PW_GRID| the grid is blocked:                                                NO
 PW_GRID| Cutoff [a.u.]                                                     66.7
 PW_GRID| spherical cutoff:                                                   NO
 PW_GRID|   Bounds   1            -36      35                Points:          72
 PW_GRID|   Bounds   2            -36      35                Points:          72
 PW_GRID|   Bounds   3           -108     107                Points:         216
 PW_GRID| Volume element (a.u.^3)  0.1466E-01     Volume (a.u.^3)     16414.2734
 PW_GRID| Grid span                                                    FULLSPACE
 PW_GRID|   Distribution                         Average         Max         Min
 PW_GRID|   G-Vectors                            27993.6       28584       27000
 PW_GRID|   G-Rays                                 388.8         397         375
 PW_GRID|   Real Space Points                    27993.6       31104       15552

 PW_GRID| Information for grid number                                          4
 PW_GRID| Grid distributed over                                    40 processors
 PW_GRID| Real space group dimensions                                    40    1
 PW_GRID| the grid is blocked:                                                NO
 PW_GRID| Cutoff [a.u.]                                                     22.2
 PW_GRID| spherical cutoff:                                                   NO
 PW_GRID|   Bounds   1            -20      19                Points:          40
 PW_GRID|   Bounds   2            -20      19                Points:          40
 PW_GRID|   Bounds   3            -62      62                Points:         125
 PW_GRID| Volume element (a.u.^3)  0.8207E-01     Volume (a.u.^3)     16414.2734
 PW_GRID| Grid span                                                    FULLSPACE
 PW_GRID|   Distribution                         Average         Max         Min
 PW_GRID|   G-Vectors                             5000.0        5360        4640
 PW_GRID|   G-Rays                                 125.0         134         116
 PW_GRID|   Real Space Points                     5000.0        5000        5000

 PW_GRID| Information for grid number                                          5
 PW_GRID| Grid distributed over                                    40 processors
 PW_GRID| Real space group dimensions                                     5    8
 PW_GRID| the grid is blocked:                                                NO
 PW_GRID| Cutoff [a.u.]                                                      7.4
 PW_GRID| spherical cutoff:                                                   NO
 PW_GRID|   Bounds   1            -12      11                Points:          24
 PW_GRID|   Bounds   2            -12      11                Points:          24
 PW_GRID|   Bounds   3            -36      35                Points:          72
 PW_GRID| Volume element (a.u.^3)  0.3958         Volume (a.u.^3)     16414.2734
 PW_GRID| Grid span                                                    FULLSPACE
 PW_GRID|   Distribution                         Average         Max         Min
 PW_GRID|   G-Vectors                             1036.8        1152         864
 PW_GRID|   G-Rays                                  43.2          48          36
 PW_GRID|   Real Space Points                     1036.8        1080         864

 POISSON| Solver                                                        PERIODIC
 POISSON| Periodicity                                                        XYZ

 RS_GRID| Information for grid number                                          1
 RS_GRID|   Bounds   1           -100      99                Points:         200
 RS_GRID|   Bounds   2           -100      99                Points:         200
 RS_GRID|   Bounds   3           -324     323                Points:         648
 RS_GRID| Real space distribution over                                 40 groups
 RS_GRID| Real space distribution along direction                              3
 RS_GRID| Border size                                                         51
 RS_GRID|   Distribution                         Average         Max         Min
 RS_GRID|   Planes                                 118.2         119         118

 RS_GRID| Information for grid number                                          2
 RS_GRID|   Bounds   1            -60      59                Points:         120
 RS_GRID|   Bounds   2            -60      59                Points:         120
 RS_GRID|   Bounds   3           -187     187                Points:         375
 RS_GRID| Real space distribution over                                 40 groups
 RS_GRID| Real space distribution along direction                              3
 RS_GRID| Border size                                                         36
 RS_GRID|   Distribution                         Average         Max         Min
 RS_GRID|   Planes                                  81.4          82          81

 RS_GRID| Information for grid number                                          3
 RS_GRID|   Bounds   1            -36      35                Points:          72
 RS_GRID|   Bounds   2            -36      35                Points:          72
 RS_GRID|   Bounds   3           -108     107                Points:         216
 RS_GRID| Real space fully replicated
 RS_GRID| Group size                                                           1

 RS_GRID| Information for grid number                                          4
 RS_GRID|   Bounds   1            -20      19                Points:          40
 RS_GRID|   Bounds   2            -20      19                Points:          40
 RS_GRID|   Bounds   3            -62      62                Points:         125
 RS_GRID| Real space fully replicated
 RS_GRID| Group size                                                           1

 RS_GRID| Information for grid number                                          5
 RS_GRID|   Bounds   1            -12      11                Points:          24
 RS_GRID|   Bounds   2            -12      11                Points:          24
 RS_GRID|   Bounds   3            -36      35                Points:          72
 RS_GRID| Real space fully replicated
 RS_GRID| Group size                                                           1

 BFGS| Use rational function optimization for step estimation:                NO
 BFGS| Use model Hessian for initial guess:                                  YES
 BFGS| Restart Hessian:                                                       NO
 BFGS| Trust radius:                                                       0.472

 *******************************************************************************
 ***                     STARTING GEOMETRY OPTIMIZATION                      ***
 ***                                   BFGS                                  ***
 *******************************************************************************

 Number of electrons:                                                          6
 Number of occupied orbitals:                                                  3
 Number of molecular orbitals:                                                 3

 Number of orbital functions:                                                 23
 Number of independent orbital functions:                                     23

 Extrapolation method: initial_guess

 Atomic guess: The first density matrix is obtained in terms of atomic orbitals
               and electronic configurations assigned to each atomic kind

 Guess for atomic kind: C

 Electronic structure
    Total number of core electrons                                          2.00
    Total number of valence electrons                                       4.00
    Total number of electrons                                               6.00
    Multiplicity                                                   not specified
    S   [  2.00] 2.00
    P      2.00
 

 *******************************************************************************
                  Iteration          Convergence                     Energy [au]
 *******************************************************************************
                          1        0.261814E-01                  -5.246264729087
                          2        0.905236E-02                  -5.246529568708
                          3        0.681743E-04                  -5.246565167452
                          4        0.792829E-08                  -5.246565169473

 Energy components [Hartree]           Total Energy ::           -5.246565169473
                                        Band Energy ::           -1.058732595430
                                     Kinetic Energy ::            3.518928170589
                                   Potential Energy ::           -8.765493340062
                                      Virial (-V/T) ::            2.490955460053
                                        Core Energy ::           -8.429377169956
                                          XC Energy ::           -1.450183342358
                                     Coulomb Energy ::            4.632995342842
                       Total Pseudopotential Energy ::          -11.978048809389
                       Local Pseudopotential Energy ::          -12.816738187351
                    Nonlocal Pseudopotential Energy ::            0.838689377962
                                        Confinement ::            0.297434688432

 Orbital energies  State     L     Occupation   Energy[a.u.]          Energy[eV]

                       1     0          2.000      -0.410911          -11.181458
 
                       1     1          2.000      -0.118455           -3.223332
 

 Total Electron Density at R=0:                                         0.001337

 Guess for atomic kind: H

 Electronic structure
    Total number of core electrons                                          0.00
    Total number of valence electrons                                       1.00
    Total number of electrons                                               1.00
    Multiplicity                                                   not specified
    S      1.00
 

 *******************************************************************************
                  Iteration          Convergence                     Energy [au]
 *******************************************************************************
                          1        0.250972E-02                  -0.375256815885
                          2        0.570752E-04                  -0.375258666164
                          3        0.832405E-09                  -0.375258667122

 Energy components [Hartree]           Total Energy ::           -0.375258667122
                                        Band Energy ::           -0.076317618391
                                     Kinetic Energy ::            0.771356566341
                                   Potential Energy ::           -1.146615233463
                                      Virial (-V/T) ::            1.486491829455
                                        Core Energy ::           -0.456090715790
                                          XC Energy ::           -0.314218627334
                                     Coulomb Energy ::            0.395050676003
                       Total Pseudopotential Energy ::           -1.238482237174
                       Local Pseudopotential Energy ::           -1.238482237174
                    Nonlocal Pseudopotential Energy ::            0.000000000000
                                        Confinement ::            0.110349550431

 Orbital energies  State     L     Occupation   Energy[a.u.]          Energy[eV]

                       1     0          1.000      -0.076318           -2.076708
 

 Total Electron Density at R=0:                                         0.425022
 Re-scaling the density matrix to get the right number of electrons
                  # Electrons              Trace(P)               Scaling factor
                            6                 6.000                        1.000


 SCF WAVEFUNCTION OPTIMIZATION

  ----------------------------------- OT ---------------------------------------
  Minimizer      : CG                  : conjugate gradient
  Preconditioner : FULL_ALL            : diagonalization, state selective
  Precond_solver : DEFAULT
  Line search    : 2PNT                : 2 energies, one gradient
  stepsize       :    0.15000000                  energy_gap     :    0.08000000
  eps_taylor     :   0.10000E-15                  max_taylor     :             4
  ----------------------------------- OT ---------------------------------------

  Step     Update method      Time    Convergence         Total energy    Change
  ------------------------------------------------------------------------------
     1 OT CG       0.15E+00    1.4     0.40914780        -5.7645437948 -5.76E+00
     2 OT LS       0.91E-01    0.9                       -6.0703386628
     3 OT CG       0.91E-01    1.8     0.17152102        -6.4857099112 -7.21E-01
     4 OT LS       0.10E+00    0.9                       -6.5831110892
     5 OT CG       0.10E+00    2.1     0.12908941        -6.5838420019 -9.81E-02
     6 OT LS       0.51E-01    0.9                       -6.5805863579
     7 OT CG       0.51E-01    1.8     0.07316528        -6.6119346994 -2.81E-02
     8 OT LS       0.11E+00    0.9                       -6.6262995137
     9 OT CG       0.11E+00    1.8     0.04793616        -6.6323556846 -2.04E-02
    10 OT LS       0.17E+00    0.9                       -6.6441198406
    11 OT CG       0.17E+00    1.8     0.07298319        -6.6445805602 -1.22E-02
    12 OT LS       0.53E-01    0.9                       -6.6149584477
    13 OT CG       0.53E-01    1.8     0.06217601        -6.6531262972 -8.55E-03
    14 OT LS       0.65E-01    0.9                       -6.6615150317
    15 OT CG       0.65E-01    1.8     0.04194800        -6.6618754043 -8.75E-03
    16 OT LS       0.95E-01    1.0                       -6.6671613912
    17 OT CG       0.95E-01    2.0     0.03003218        -6.6677194918 -5.84E-03
    18 OT LS       0.19E+00    0.9                       -6.6721126977
    19 OT CG       0.19E+00    1.8     0.02673529        -6.6735227860 -5.80E-03
    20 OT LS       0.13E+00    0.9                       -6.6757191323
    21 OT CG       0.13E+00    1.8     0.02613206        -6.6764547932 -2.93E-03
    22 OT LS       0.72E-01    0.9                       -6.6772074815
    23 OT CG       0.72E-01    1.8     0.01063559        -6.6781966245 -1.74E-03
    24 OT LS       0.16E+00    0.9                       -6.6786385276
    25 OT CG       0.16E+00    1.8     0.00543539        -6.6788412151 -6.45E-04
    26 OT LS       0.13E+00    0.9                       -6.6789640627
    27 OT CG       0.13E+00    2.1     0.00316550        -6.6789734545 -1.32E-04
    28 OT LS       0.67E-01    0.9                       -6.6789774934
    29 OT CG       0.67E-01    1.8     0.00177064        -6.6789967880 -2.33E-05
    30 OT LS       0.11E+00    0.9                       -6.6790068618
    31 OT CG       0.11E+00    1.9     0.00125541        -6.6790085930 -1.18E-05
    32 OT LS       0.17E+00    0.9                       -6.6790166751
    33 OT CG       0.17E+00    1.8     0.00081602        -6.6790178862 -9.29E-06
    34 OT LS       0.18E+00    0.9                       -6.6790220359
    35 OT CG       0.18E+00    1.8     0.00075186        -6.6790220503 -4.16E-06
    36 OT LS       0.80E-01    0.9                       -6.6790210813
    37 OT CG       0.80E-01    1.8     0.00053924        -6.6790236024 -1.55E-06
    38 OT LS       0.13E+00    1.2                       -6.6790247059
    39 OT CG       0.13E+00    1.8     0.00025765        -6.6790248926 -1.29E-06
    40 OT LS       0.14E+00    0.9                       -6.6790252114
    41 OT CG       0.14E+00    1.8     0.00012196        -6.6790252135 -3.21E-07
    42 OT LS       0.10E+00    0.9                       -6.6790252604
    43 OT CG       0.10E+00    1.8     0.00010290        -6.6790252668 -5.33E-08
    44 OT LS       0.83E-01    0.9                       -6.6790252950
    45 OT CG       0.83E-01    1.8     0.00004664        -6.6790252970 -3.02E-08
    46 OT LS       0.10E+00    0.9                       -6.6790253045
    47 OT CG       0.10E+00    1.8     0.00002548        -6.6790253048 -7.74E-09
    48 OT LS       0.18E+00    0.9                       -6.6790253080
    49 OT CG       0.18E+00    2.1     0.00001746        -6.6790253087 -3.95E-09
    50 OT LS       0.14E+00    0.9                       -6.6790253100
    51 OT CG       0.14E+00    2.0     0.00002093        -6.6790253101 -1.43E-09
    52 OT LS       0.11E+00    1.2                       -6.6790253116
    53 OT CG       0.11E+00    2.7     0.00000927        -6.6790253118 -1.60E-09
    54 OT LS       0.19E+00    1.2                       -6.6790253122
    55 OT CG       0.19E+00    2.3     0.00000575        -6.6790253123 -5.69E-10
    56 OT LS       0.11E+00    1.2                       -6.6790253124
    57 OT CG       0.11E+00    2.5     0.00000381        -6.6790253124 -1.20E-10

  *** SCF run converged in    57 steps ***


  Electronic density on regular grids:         -6.0000000000       -0.0000000000
  Core density on regular grids:                6.0000000000       -0.0000000000
  Total charge density on r-space grids:       -0.0000000000
  Total charge density g-space grids:          -0.0000000000

  Overlap energy of the core charge distribution:               0.00000106885009
  Self energy of the core charge distribution:                -16.15595584450399
  Core Hamiltonian energy:                                      4.99209602260495
  Hartree energy:                                               6.84150776214889
  Exchange-correlation energy:                                 -2.35665586742253
  Dispersion energy:                                           -0.00001845411728

  Total energy:                                                -6.67902531243988

  outer SCF iter =    1 RMS gradient =   0.38E-05 energy =         -6.6790253124
  outer SCF loop converged in   1 iterations or   57 steps


 !-----------------------------------------------------------------------------!
                     Mulliken Population Analysis

 #  Atom  Element  Kind  Atomic population                           Net charge
       1     C        1          4.044799                             -0.044799
       2     H        2          0.977595                              0.022405
       3     H        2          0.977606                              0.022394
 # Total charge                              6.000000                 -0.000000

 !-----------------------------------------------------------------------------!

 !-----------------------------------------------------------------------------!
                           Hirshfeld Charges

  #Atom  Element  Kind  Ref Charge     Population                    Net charge
      1       C      1       4.000          4.878                        -0.878
      2       H      2       1.000          0.557                         0.443
      3       H      2       1.000          0.557                         0.443

  Total Charge                                                            0.007
 !-----------------------------------------------------------------------------!

 ENERGY| Total FORCE_EVAL ( QS ) energy (a.u.):               -6.679025312466409


 --------  Informations at step =     0 ------------
  Optimization Method        =                 BFGS
  Total Energy               =        -6.6790253125
  Used time                  =               86.765
 ---------------------------------------------------

 --------------------------
 OPTIMIZATION STEP:      1
 --------------------------

 Number of electrons:                                                          6
 Number of occupied orbitals:                                                  3
 Number of molecular orbitals:                                                 3

 Number of orbital functions:                                                 23
 Number of independent orbital functions:                                     23

 Parameters for the always stable predictor-corrector (ASPC) method:

  ASPC order: 0

  B(1) =   1.000000

 Extrapolation method: ASPC


 SCF WAVEFUNCTION OPTIMIZATION

  ----------------------------------- OT ---------------------------------------
  Minimizer      : CG                  : conjugate gradient
  Preconditioner : FULL_ALL            : diagonalization, state selective
  Precond_solver : DEFAULT
  Line search    : 2PNT                : 2 energies, one gradient
  stepsize       :    0.15000000                  energy_gap     :    0.08000000
  eps_taylor     :   0.10000E-15                  max_taylor     :             4
  ----------------------------------- OT ---------------------------------------

  Step     Update method      Time    Convergence         Total energy    Change
  ------------------------------------------------------------------------------
     1 OT CG       0.15E+00    2.0     0.01302588        -6.6815984762 -6.68E+00
     2 OT LS       0.19E+00    1.2                       -6.6826489985
     3 OT CG       0.19E+00    2.4     0.00510961        -6.6826903765 -1.09E-03
     4 OT LS       0.15E+00    1.2                       -6.6828211614
     5 OT CG       0.15E+00    2.4     0.00024889        -6.6828277823 -1.37E-04
     6 OT LS       0.21E+00    1.1                       -6.6828281939
     7 OT CG       0.21E+00    2.5     0.00006076        -6.6828282235 -4.41E-07
     8 OT LS       0.12E+00    1.2                       -6.6828282316
     9 OT CG       0.12E+00    2.5     0.00001071        -6.6828282390 -1.56E-08
    10 OT LS       0.22E+00    1.2                       -6.6828282397
    11 OT CG       0.22E+00    2.5     0.00000276        -6.6828282399 -8.55E-10

  *** SCF run converged in    11 steps ***


  Electronic density on regular grids:         -6.0000000000        0.0000000000
  Core density on regular grids:                6.0000000000       -0.0000000000
  Total charge density on r-space grids:       -0.0000000000
  Total charge density g-space grids:          -0.0000000000

  Overlap energy of the core charge distribution:               0.00000037955958
  Self energy of the core charge distribution:                -16.15595584450399
  Core Hamiltonian energy:                                      4.91773614761021
  Hartree energy:                                               6.88879454920824
  Exchange-correlation energy:                                 -2.33338571261555
  Dispersion energy:                                           -0.00001775913387

  Total energy:                                                -6.68282823987537

  outer SCF iter =    1 RMS gradient =   0.28E-05 energy =         -6.6828282399
  outer SCF loop converged in   1 iterations or   11 steps


 !-----------------------------------------------------------------------------!
                     Mulliken Population Analysis

 #  Atom  Element  Kind  Atomic population                           Net charge
       1     C        1          4.071854                             -0.071854
       2     H        2          0.964064                              0.035936
       3     H        2          0.964082                              0.035918
 # Total charge                              6.000000                  0.000000

 !-----------------------------------------------------------------------------!

 !-----------------------------------------------------------------------------!
                           Hirshfeld Charges

  #Atom  Element  Kind  Ref Charge     Population                    Net charge
      1       C      1       4.000          4.870                        -0.870
      2       H      2       1.000          0.561                         0.439
      3       H      2       1.000          0.561                         0.439

  Total Charge                                                            0.008
 !-----------------------------------------------------------------------------!

 ENERGY| Total FORCE_EVAL ( QS ) energy (a.u.):               -6.682828239918281


 --------  Informations at step =     1 ------------
  Optimization Method        =                 BFGS
  Total Energy               =        -6.6828282399
  Real energy change         =        -0.0038029275
  Predicted change in energy =        -0.0029675889
  Scaling factor             =         0.0000000000
  Step size                  =         0.0677146975
  Trust radius               =         0.4724315332
  Decrease in energy         =                  YES
  Used time                  =               24.570

  Convergence check :
  Max. step size             =         0.0677146975
  Conv. limit for step size  =         0.0030000000
  Convergence in step size   =                   NO
  RMS step size              =         0.0388793482
  Conv. limit for RMS step   =         0.0015000000
  Convergence in RMS step    =                   NO
  Max. gradient              =         0.0094567689
  Conv. limit for gradients  =         0.0004500000
  Conv. for gradients        =                   NO
  RMS gradient               =         0.0064998089
  Conv. limit for RMS grad.  =         0.0003000000
  Conv. for gradients        =                   NO
 ---------------------------------------------------

 --------------------------
 OPTIMIZATION STEP:      2
 --------------------------

 Number of electrons:                                                          6
 Number of occupied orbitals:                                                  3
 Number of molecular orbitals:                                                 3

 Number of orbital functions:                                                 23
 Number of independent orbital functions:                                     23

 Parameters for the always stable predictor-corrector (ASPC) method:

  ASPC order: 0

  B(1) =   2.000000
  B(2) =  -1.000000

 Extrapolation method: ASPC


 SCF WAVEFUNCTION OPTIMIZATION

  ----------------------------------- OT ---------------------------------------
  Minimizer      : CG                  : conjugate gradient
  Preconditioner : FULL_ALL            : diagonalization, state selective
  Precond_solver : DEFAULT
  Line search    : 2PNT                : 2 energies, one gradient
  stepsize       :    0.15000000                  energy_gap     :    0.08000000
  eps_taylor     :   0.10000E-15                  max_taylor     :             4
  ----------------------------------- OT ---------------------------------------

  Step     Update method      Time    Convergence         Total energy    Change
  ------------------------------------------------------------------------------
     1 OT CG       0.15E+00    1.8     0.00893755        -6.6825811328 -6.68E+00
     2 OT LS       0.19E+00    1.3                       -6.6830742197
     3 OT CG       0.19E+00    2.7     0.00352424        -6.6830934992 -5.12E-04
     4 OT LS       0.15E+00    1.2                       -6.6831554003
     5 OT CG       0.15E+00    2.5     0.00023609        -6.6831586803 -6.52E-05
     6 OT LS       0.20E+00    1.2                       -6.6831590370
     7 OT CG       0.20E+00    2.4     0.00004589        -6.6831590554 -3.75E-07
     8 OT LS       0.14E+00    1.2                       -6.6831590641
     9 OT CG       0.14E+00    2.4     0.00001358        -6.6831590657 -1.02E-08
    10 OT LS       0.16E+00    1.2                       -6.6831590666
    11 OT CG       0.16E+00    2.5     0.00000166        -6.6831590667 -1.00E-09

  *** SCF run converged in    11 steps ***


  Electronic density on regular grids:         -6.0000000000        0.0000000000
  Core density on regular grids:                6.0000000000       -0.0000000000
  Total charge density on r-space grids:       -0.0000000000
  Total charge density g-space grids:          -0.0000000000

  Overlap energy of the core charge distribution:               0.00000024278585
  Self energy of the core charge distribution:                -16.15595584450399
  Core Hamiltonian energy:                                      4.88865376095008
  Hartree energy:                                               6.90817817858816
  Exchange-correlation energy:                                 -2.32401735434477
  Dispersion energy:                                           -0.00001805013482

  Total energy:                                                -6.68315906665950

  outer SCF iter =    1 RMS gradient =   0.17E-05 energy =         -6.6831590667
  outer SCF loop converged in   1 iterations or   11 steps


 !-----------------------------------------------------------------------------!
                     Mulliken Population Analysis

 #  Atom  Element  Kind  Atomic population                           Net charge
       1     C        1          4.079852                             -0.079852
       2     H        2          0.960065                              0.039935
       3     H        2          0.960083                              0.039917
 # Total charge                              6.000000                  0.000000

 !-----------------------------------------------------------------------------!

 !-----------------------------------------------------------------------------!
                           Hirshfeld Charges

  #Atom  Element  Kind  Ref Charge     Population                    Net charge
      1       C      1       4.000          4.867                        -0.867
      2       H      2       1.000          0.562                         0.438
      3       H      2       1.000          0.562                         0.438

  Total Charge                                                            0.008
 !-----------------------------------------------------------------------------!

 ENERGY| Total FORCE_EVAL ( QS ) energy (a.u.):               -6.683159066679702


 --------  Informations at step =     2 ------------
  Optimization Method        =                 BFGS
  Total Energy               =        -6.6831590667
  Real energy change         =        -0.0003308268
  Predicted change in energy =        -0.0003177916
  Scaling factor             =         0.0000000000
  Step size                  =         0.0209019539
  Trust radius               =         0.4724315332
  Decrease in energy         =                  YES
  Used time                  =               25.156

  Convergence check :
  Max. step size             =         0.0209019539
  Conv. limit for step size  =         0.0030000000
  Convergence in step size   =                   NO
  RMS step size              =         0.0117190971
  Conv. limit for RMS step   =         0.0015000000
  Convergence in RMS step    =                   NO
  Max. gradient              =         0.0012455836
  Conv. limit for gradients  =         0.0004500000
  Conv. for gradients        =                   NO
  RMS gradient               =         0.0006386700
  Conv. limit for RMS grad.  =         0.0003000000
  Conv. for gradients        =                   NO
 ---------------------------------------------------

 --------------------------
 OPTIMIZATION STEP:      3
 --------------------------

 Number of electrons:                                                          6
 Number of occupied orbitals:                                                  3
 Number of molecular orbitals:                                                 3

 Number of orbital functions:                                                 23
 Number of independent orbital functions:                                     23

 Parameters for the always stable predictor-corrector (ASPC) method:

  ASPC order: 1

  B(1) =   2.500000
  B(2) =  -2.000000
  B(3) =   0.500000

 Extrapolation method: ASPC


 SCF WAVEFUNCTION OPTIMIZATION

  ----------------------------------- OT ---------------------------------------
  Minimizer      : CG                  : conjugate gradient
  Preconditioner : FULL_ALL            : diagonalization, state selective
  Precond_solver : DEFAULT
  Line search    : 2PNT                : 2 energies, one gradient
  stepsize       :    0.15000000                  energy_gap     :    0.08000000
  eps_taylor     :   0.10000E-15                  max_taylor     :             4
  ----------------------------------- OT ---------------------------------------

  Step     Update method      Time    Convergence         Total energy    Change
  ------------------------------------------------------------------------------
     1 OT CG       0.15E+00    1.8     0.00085124        -6.6831629810 -6.68E+00
     2 OT LS       0.20E+00    1.2                       -6.6831677258
     3 OT CG       0.20E+00    2.4     0.00023500        -6.6831680851 -5.10E-06
     4 OT LS       0.15E+00    1.2                       -6.6831683320
     5 OT CG       0.15E+00    2.4     0.00005955        -6.6831683701 -2.85E-07
     6 OT LS       0.17E+00    1.2                       -6.6831683902
     7 OT CG       0.17E+00    2.5     0.00000752        -6.6831683904 -2.03E-08
     8 OT LS       0.26E+00    1.1                       -6.6831683908
     9 OT CG       0.26E+00    2.4     0.00000262        -6.6831683909 -4.99E-10

  *** SCF run converged in     9 steps ***


  Electronic density on regular grids:         -6.0000000000        0.0000000000
  Core density on regular grids:                6.0000000000       -0.0000000000
  Total charge density on r-space grids:       -0.0000000000
  Total charge density g-space grids:          -0.0000000000

  Overlap energy of the core charge distribution:               0.00000023403297
  Self energy of the core charge distribution:                -16.15595584450399
  Core Hamiltonian energy:                                      4.88636628238040
  Hartree energy:                                               6.90974424965531
  Exchange-correlation energy:                                 -2.32330487311339
  Dispersion energy:                                           -0.00001843933677

  Total energy:                                                -6.68316839088548

  outer SCF iter =    1 RMS gradient =   0.26E-05 energy =         -6.6831683909
  outer SCF loop converged in   1 iterations or    9 steps


 !-----------------------------------------------------------------------------!
                     Mulliken Population Analysis

 #  Atom  Element  Kind  Atomic population                           Net charge
       1     C        1          4.079902                             -0.079902
       2     H        2          0.960040                              0.039960
       3     H        2          0.960058                              0.039942
 # Total charge                              6.000000                 -0.000000

 !-----------------------------------------------------------------------------!

 !-----------------------------------------------------------------------------!
                           Hirshfeld Charges

  #Atom  Element  Kind  Ref Charge     Population                    Net charge
      1       C      1       4.000          4.867                        -0.867
      2       H      2       1.000          0.562                         0.438
      3       H      2       1.000          0.562                         0.438

  Total Charge                                                            0.008
 !-----------------------------------------------------------------------------!

 ENERGY| Total FORCE_EVAL ( QS ) energy (a.u.):               -6.683168390889129


 --------  Informations at step =     3 ------------
  Optimization Method        =                 BFGS
  Total Energy               =        -6.6831683909
  Real energy change         =        -0.0000093242
  Predicted change in energy =        -0.0000093560
  Scaling factor             =         0.0000000000
  Step size                  =         0.0075330992
  Trust radius               =         0.4724315332
  Decrease in energy         =                  YES
  Used time                  =               20.394

  Convergence check :
  Max. step size             =         0.0075330992
  Conv. limit for step size  =         0.0030000000
  Convergence in step size   =                   NO
  RMS step size              =         0.0040492739
  Conv. limit for RMS step   =         0.0015000000
  Convergence in RMS step    =                   NO
  Max. gradient              =         0.0001127505
  Conv. limit for gradients  =         0.0004500000
  Conv. in gradients         =                  YES
  RMS gradient               =         0.0000542703
  Conv. limit for RMS grad.  =         0.0003000000
  Conv. in RMS gradients     =                  YES
 ---------------------------------------------------

 --------------------------
 OPTIMIZATION STEP:      4
 --------------------------

 Number of electrons:                                                          6
 Number of occupied orbitals:                                                  3
 Number of molecular orbitals:                                                 3

 Number of orbital functions:                                                 23
 Number of independent orbital functions:                                     23

 Parameters for the always stable predictor-corrector (ASPC) method:

  ASPC order: 2

  B(1) =   2.800000
  B(2) =  -2.800000
  B(3) =   1.200000
  B(4) =  -0.200000

 Extrapolation method: ASPC


 SCF WAVEFUNCTION OPTIMIZATION

  ----------------------------------- OT ---------------------------------------
  Minimizer      : CG                  : conjugate gradient
  Preconditioner : FULL_ALL            : diagonalization, state selective
  Precond_solver : DEFAULT
  Line search    : 2PNT                : 2 energies, one gradient
  stepsize       :    0.15000000                  energy_gap     :    0.08000000
  eps_taylor     :   0.10000E-15                  max_taylor     :             4
  ----------------------------------- OT ---------------------------------------

  Step     Update method      Time    Convergence         Total energy    Change
  ------------------------------------------------------------------------------
     1 OT CG       0.15E+00    1.5     0.00199740        -6.6831406203 -6.68E+00
     2 OT LS       0.18E+00    0.9                       -6.6831645014
     3 OT CG       0.18E+00    1.9     0.00079498        -6.6831651004 -2.45E-05
     4 OT LS       0.16E+00    0.9                       -6.6831685001
     5 OT CG       0.16E+00    1.9     0.00004115        -6.6831685523 -3.45E-06
     6 OT LS       0.20E+00    0.9                       -6.6831685636
     7 OT CG       0.20E+00    1.9     0.00001157        -6.6831685642 -1.19E-08
     8 OT LS       0.12E+00    0.9                       -6.6831685646
     9 OT CG       0.12E+00    1.9     0.00000225        -6.6831685648 -5.74E-10

  *** SCF run converged in     9 steps ***


  Electronic density on regular grids:         -6.0000000000        0.0000000000
  Core density on regular grids:                6.0000000000       -0.0000000000
  Total charge density on r-space grids:       -0.0000000000
  Total charge density g-space grids:          -0.0000000000

  Overlap energy of the core charge distribution:               0.00000023333192
  Self energy of the core charge distribution:                -16.15595584450399
  Core Hamiltonian energy:                                      4.88617656658082
  Hartree energy:                                               6.90987179340055
  Exchange-correlation energy:                                 -2.32324287632605
  Dispersion energy:                                           -0.00001843728020

  Total energy:                                                -6.68316856479695

  outer SCF iter =    1 RMS gradient =   0.22E-05 energy =         -6.6831685648
  outer SCF loop converged in   1 iterations or    9 steps


 !-----------------------------------------------------------------------------!
                     Mulliken Population Analysis

 #  Atom  Element  Kind  Atomic population                           Net charge
       1     C        1          4.079962                             -0.079962
       2     H        2          0.960010                              0.039990
       3     H        2          0.960028                              0.039972
 # Total charge                              6.000000                  0.000000

 !-----------------------------------------------------------------------------!

 !-----------------------------------------------------------------------------!
                           Hirshfeld Charges

  #Atom  Element  Kind  Ref Charge     Population                    Net charge
      1       C      1       4.000          4.867                        -0.867
      2       H      2       1.000          0.562                         0.438
      3       H      2       1.000          0.562                         0.438

  Total Charge                                                            0.008
 !-----------------------------------------------------------------------------!

 ENERGY| Total FORCE_EVAL ( QS ) energy (a.u.):               -6.683168564827680


 --------  Informations at step =     4 ------------
  Optimization Method        =                 BFGS
  Total Energy               =        -6.6831685648
  Real energy change         =        -0.0000001739
  Predicted change in energy =        -0.0000000946
  Scaling factor             =         0.0000000000
  Step size                  =         0.0007275137
  Trust radius               =         0.4724315332
  Decrease in energy         =                  YES
  Used time                  =               16.364

  Convergence check :
  Max. step size             =         0.0007275137
  Conv. limit for step size  =         0.0030000000
  Convergence in step size   =                  YES
  RMS step size              =         0.0004373322
  Conv. limit for RMS step   =         0.0015000000
  Convergence in RMS step    =                  YES
  Max. gradient              =         0.0000868903
  Conv. limit for gradients  =         0.0004500000
  Conv. in gradients         =                  YES
  RMS gradient               =         0.0000417781
  Conv. limit for RMS grad.  =         0.0003000000
  Conv. in RMS gradients     =                  YES
 ---------------------------------------------------

 *******************************************************************************
 ***                    GEOMETRY OPTIMIZATION COMPLETED                      ***
 *******************************************************************************

                    Reevaluating energy at the minimum

 Number of electrons:                                                          6
 Number of occupied orbitals:                                                  3
 Number of molecular orbitals:                                                 3

 Number of orbital functions:                                                 23
 Number of independent orbital functions:                                     23

 Parameters for the always stable predictor-corrector (ASPC) method:

  ASPC order: 3

  B(1) =   3.000000
  B(2) =  -3.428571
  B(3) =   1.928571
  B(4) =  -0.571429
  B(5) =   0.071429

 Extrapolation method: ASPC


 SCF WAVEFUNCTION OPTIMIZATION

  ----------------------------------- OT ---------------------------------------
  Minimizer      : CG                  : conjugate gradient
  Preconditioner : FULL_ALL            : diagonalization, state selective
  Precond_solver : DEFAULT
  Line search    : 2PNT                : 2 energies, one gradient
  stepsize       :    0.15000000                  energy_gap     :    0.08000000
  eps_taylor     :   0.10000E-15                  max_taylor     :             4
  ----------------------------------- OT ---------------------------------------

  Step     Update method      Time    Convergence         Total energy    Change
  ------------------------------------------------------------------------------
     1 OT CG       0.15E+00    1.4     0.00154451        -6.6831514534 -6.68E+00
     2 OT LS       0.18E+00    0.9                       -6.6831660632
     3 OT CG       0.18E+00    1.8     0.00061053        -6.6831665734 -1.51E-05
     4 OT LS       0.15E+00    0.9                       -6.6831684707
     5 OT CG       0.15E+00    1.9     0.00004850        -6.6831685474 -1.97E-06
     6 OT LS       0.20E+00    0.9                       -6.6831685627
     7 OT CG       0.20E+00    1.9     0.00001420        -6.6831685635 -1.61E-08
     8 OT LS       0.16E+00    0.9                       -6.6831685646
     9 OT CG       0.16E+00    1.9     0.00000545        -6.6831685646 -1.09E-09
    10 OT LS       0.19E+00    1.0                       -6.6831685648
    11 OT CG       0.19E+00    2.1     0.00000116        -6.6831685648 -1.93E-10

  *** SCF run converged in    11 steps ***


  Electronic density on regular grids:         -6.0000000000        0.0000000000
  Core density on regular grids:                6.0000000000       -0.0000000000
  Total charge density on r-space grids:       -0.0000000000
  Total charge density g-space grids:          -0.0000000000

  Overlap energy of the core charge distribution:               0.00000023333192
  Self energy of the core charge distribution:                -16.15595584450399
  Core Hamiltonian energy:                                      4.88617306911887
  Hartree energy:                                               6.90987424617377
  Exchange-correlation energy:                                 -2.32324183166668
  Dispersion energy:                                           -0.00001843728020

  Total energy:                                                -6.68316856482632

  outer SCF iter =    1 RMS gradient =   0.12E-05 energy =         -6.6831685648
  outer SCF loop converged in   1 iterations or   11 steps


 !-----------------------------------------------------------------------------!
                     Mulliken Population Analysis

 #  Atom  Element  Kind  Atomic population                           Net charge
       1     C        1          4.079964                             -0.079964
       2     H        2          0.960009                              0.039991
       3     H        2          0.960027                              0.039973
 # Total charge                              6.000000                 -0.000000

 !-----------------------------------------------------------------------------!

 !-----------------------------------------------------------------------------!
                           Hirshfeld Charges

  #Atom  Element  Kind  Ref Charge     Population                    Net charge
      1       C      1       4.000          4.867                        -0.867
      2       H      2       1.000          0.562                         0.438
      3       H      2       1.000          0.562                         0.438

  Total Charge                                                            0.008
 !-----------------------------------------------------------------------------!

 ENERGY| Total FORCE_EVAL ( QS ) energy (a.u.):               -6.683168564826317


 -------------------------------------------------------------------------------
 -                                                                             -
 -                                DBCSR STATISTICS                             -
 -                                                                             -
 -------------------------------------------------------------------------------
 COUNTER                                    TOTAL       BLAS       SMM       ACC
 flops     3 x     3 x     3                29322     100.0%      0.0%      0.0%
 flops    13 x     5 x     3                46410     100.0%      0.0%      0.0%
 flops     5 x    13 x     3                46410     100.0%      0.0%      0.0%
 flops     3 x     3 x     5                51300     100.0%      0.0%      0.0%
 flops     5 x     5 x     3                53550     100.0%      0.0%      0.0%
 flops     3 x     3 x    13                66690     100.0%      0.0%      0.0%
 flops    13 x    13 x     3               120666     100.0%      0.0%      0.0%
 flops     5 x     3 x     5               130800     100.0%      0.0%      0.0%
 flops    23 x     3 x     3               162702     100.0%      0.0%      0.0%
 flops     5 x     3 x    13               170040     100.0%      0.0%      0.0%
 flops    13 x     3 x     5               170040     100.0%      0.0%      0.0%
 flops    23 x     3 x     5               173880     100.0%      0.0%      0.0%
 flops    13 x     3 x    13               221052     100.0%      0.0%      0.0%
 flops    23 x     3 x    13               226044     100.0%      0.0%      0.0%
 flops inhomo. stacks                           0       0.0%      0.0%      0.0%
 flops total                         1.668906E+06     100.0%      0.0%      0.0%
 flops max/rank                      1.633206E+06     100.0%      0.0%      0.0%
 matmuls inhomo. stacks                         0       0.0%      0.0%      0.0%
 matmuls total                               4845     100.0%      0.0%      0.0%
 number of processed stacks                  4072     100.0%      0.0%      0.0%
 average stack size                                     1.2       0.0       0.0
 marketing flops                     1.782070E+06
 -------------------------------------------------------------------------------
 # multiplications                           1690
 max memory usage/rank             679.194624E+06
 # max total images/rank                        5
 # max 3D layers                                1
 # MPI messages exchanged                 4258800
 MPI messages size (bytes):
  total size                        21.736224E+06
  min size                           0.000000E+00
  max size                           2.392000E+03
  average size                       5.103837E+00
 MPI breakdown and total messages size (bytes):
             size <=      128             4235607                  3061152
       128 < size <=     8192               23193                 18675072
      8192 < size <=    32768                   0                        0
     32768 < size <=   131072                   0                        0
    131072 < size <=  4194304                   0                        0
   4194304 < size <= 16777216                   0                        0
  16777216 < size                               0                        0
 -------------------------------------------------------------------------------

 *** WARNING in dbcsr/mm/dbcsr_mm.F:268 :: Using a non-square number of ***
 *** MPI ranks might lead to poor performance.                          ***
 *** Used ranks: 40                                                     ***
 *** Suggested: 36 81                                                   ***

 -------------------------------------------------------------------------------
 
 MEMORY| Estimated peak process memory [MiB]                                 648

 -------------------------------------------------------------------------------
 ----                             MULTIGRID INFO                            ----
 -------------------------------------------------------------------------------
 count for grid        1:          52030          cutoff [a.u.]          600.00
 count for grid        2:          87580          cutoff [a.u.]          200.00
 count for grid        3:          97857          cutoff [a.u.]           66.67
 count for grid        4:          66163          cutoff [a.u.]           22.22
 count for grid        5:          26188          cutoff [a.u.]            7.41
 total gridlevel count  :         329818

 -------------------------------------------------------------------------------
 -                                                                             -
 -                         MESSAGE PASSING PERFORMANCE                         -
 -                                                                             -
 -------------------------------------------------------------------------------

 ROUTINE             CALLS      AVE VOLUME [Bytes]
 MP_Group              152
 MP_Bcast              849                 435967.
 MP_Allreduce        11118                    225.
 MP_Sync                85
 MP_Alltoall          8781                4719590.
 MP_SendRecv           780                     21.
 MP_ISendRecv        20592                  99157.
 MP_Wait            202707
 MP_comm_split          80
 MP_ISend           239172                  38128.
 MP_IRecv           238364                  38081.
 MP_Recv                32                     72.
 MP_Memory          217922
 -------------------------------------------------------------------------------


 -------------------------------------------------------------------------------
 -                                                                             -
 -                           R E F E R E N C E S                               -
 -                                                                             -
 -------------------------------------------------------------------------------
 
 CP2K version 7.0 (Development Version), the CP2K developers group (2018).
 CP2K is freely available from https://www.cp2k.org/ .

 Schuett, Ole; Messmer, Peter; Hutter, Juerg; VandeVondele, Joost. 
 Electronic Structure Calculations on Graphics Processing Units, John Wiley & Sons, Ltd, 173-190 (2016). 
 GPU-Accelerated Sparse Matrix-Matrix Multiplication for Linear Scaling Density Functional Theory.
 http://dx.doi.org/10.1002/9781118670712.ch8


 Borstnik, U; VandeVondele, J; Weber, V; Hutter, J. 
 PARALLEL COMPUTING, 40 (5-6), 47-58 (2014). 
 Sparse matrix multiplication: The distributed block-compressed sparse
 row library.
 http://dx.doi.org/10.1016/j.parco.2014.03.012


 Hutter, J; Iannuzzi, M; Schiffmann, F; VandeVondele, J. 
 WILEY INTERDISCIPLINARY REVIEWS-COMPUTATIONAL MOLECULAR SCIENCE, 4 (1), 15-25 (2014). 
 CP2K: atomistic simulations of condensed matter systems.
 http://dx.doi.org/10.1002/wcms.1159


 Grimme, S; Ehrlich, S; Goerigk, L. 
 JOURNAL OF COMPUTATIONAL CHEMISTRY, 32, 1456 (2011). 
 Effect of the damping function in dispersion corrected density functional theory.
 http://dx.doi.org/10.1002/jcc.21759


 Grimme, S; Antony, J; Ehrlich, S; Krieg, H. 
 JOURNAL OF CHEMICAL PHYSICS, 132 (15), 154104 (2010). 
 A consistent and accurate ab initio parametrization of density
 functional dispersion correction (DFT-D) for the 94 elements H-Pu.
 http://dx.doi.org/10.1063/1.3382344


 VandeVondele, J; Hutter, J. 
 JOURNAL OF CHEMICAL PHYSICS, 127 (11), 114105 (2007). 
 Gaussian basis sets for accurate calculations on molecular systems in
 gas and condensed phases.
 http://dx.doi.org/10.1063/1.2770708


 Krack, M. 
 THEORETICAL CHEMISTRY ACCOUNTS, 114 (1-3), 145-152 (2005). 
 Pseudopotentials for H to Kr optimized for gradient-corrected
 exchange-correlation functionals.
 http://dx.doi.org/10.1007/s00214-005-0655-y


 VandeVondele, J; Krack, M; Mohamed, F; Parrinello, M; Chassaing, T;
 Hutter, J. COMPUTER PHYSICS COMMUNICATIONS, 167 (2), 103-128 (2005). 
 QUICKSTEP: Fast and accurate density functional calculations using a
 mixed Gaussian and plane waves approach.
 http://dx.doi.org/10.1016/j.cpc.2004.12.014


 Frigo, M; Johnson, SG. 
 PROCEEDINGS OF THE IEEE, 93 (2), 216-231 (2005). 
 The design and implementation of FFTW3.
 http://dx.doi.org/10.1109/JPROC.2004.840301


 Kolafa, J. 
 JOURNAL OF COMPUTATIONAL CHEMISTRY, 25 (3), 335-342 (2004). 
 Time-reversible always stable predictor-corrector method for molecular dynamics of polarizable molecules.
 http://dx.doi.org/10.1002/jcc.10385


 VandeVondele, J; Hutter, J. 
 JOURNAL OF CHEMICAL PHYSICS, 118 (10), 4365-4369 (2003). 
 An efficient orbital transformation method for electronic structure
 calculations.
 http://dx.doi.org/10.1063/1.1543154


 Hartwigsen, C; Goedecker, S; Hutter, J. 
 PHYSICAL REVIEW B, 58 (7), 3641-3662 (1998). 
 Relativistic separable dual-space Gaussian pseudopotentials from H to Rn.
 http://dx.doi.org/10.1103/PhysRevB.58.3641


 Lippert, G; Hutter, J; Parrinello, M. 
 MOLECULAR PHYSICS, 92 (3), 477-487 (1997). 
 A hybrid Gaussian and plane wave density functional scheme.
 http://dx.doi.org/10.1080/002689797170220


 Perdew, JP; Burke, K; Ernzerhof, M. 
 PHYSICAL REVIEW LETTERS, 77 (18), 3865-3868 (1996). 
 Generalized gradient approximation made simple.
 http://dx.doi.org/10.1103/PhysRevLett.77.3865


 Goedecker, S; Teter, M; Hutter, J. 
 PHYSICAL REVIEW B, 54 (3), 1703-1710 (1996). 
 Separable dual-space Gaussian pseudopotentials.
 http://dx.doi.org/10.1103/PhysRevB.54.1703


 -------------------------------------------------------------------------------
 -                                                                             -
 -                                T I M I N G                                  -
 -                                                                             -
 -------------------------------------------------------------------------------
 SUBROUTINE                       CALLS  ASD         SELF TIME        TOTAL TIME
                                MAXIMUM       AVERAGE  MAXIMUM  AVERAGE  MAXIMUM
 CP2K                                 1  1.0    0.011    0.016  190.973  190.974
 cp_geo_opt                           1  2.0    0.000    0.000  190.535  190.540
 geoopt_bfgs                          1  3.0    0.002    0.024  190.534  190.540
 cp_eval_at                           6  4.0    0.001    0.002  189.766  189.769
 qs_energies                          6  5.8    0.002    0.017  179.416  179.419
 qs_forces                            5  5.0    0.001    0.022  172.619  172.629
 scf_env_do_scf                       6  6.8    0.001    0.014  171.179  171.180
 scf_env_do_scf_inner_loop          108  7.9    0.004    0.016  161.392  161.402
 rebuild_ks_matrix                  113  9.8    0.000    0.001  118.178  118.208
 qs_ks_build_kohn_sham_matrix       113 10.8    0.015    0.027  118.178  118.208
 qs_ks_update_qs_env                114  8.9    0.001    0.001  107.919  107.949
 pw_transfer                       1875 13.2    0.194    0.231  103.761  104.576
 fft_wrap_pw1pw2                   1649 14.3    0.018    0.022  102.180  102.978
 fft_wrap_pw1pw2_600                945 15.6   11.361   11.551   95.823   96.465
 fft3d_ps                          1649 16.3   36.134   36.881   76.492   77.739
 qs_vxc_create                      113 11.8    0.002    0.003   76.291   76.360
 qs_rho_update_rho                  114  8.9    0.001    0.001   63.660   63.670
 calculate_rho_elec                 114  9.9    0.670    1.969   63.659   63.669
 density_rs2pw                      114 10.9    0.009    0.023   58.312   58.496
 xc_vxc_pw_create                    62 12.7    2.537    2.822   56.273   56.339
 rs_pw_transfer                     903 12.8    0.010    0.032   49.343   49.534
 xc_rho_set_and_dset_create         113 13.8    0.612    0.636   42.722   43.561
 mp_alltoall_z22v                  1649 18.3   28.947   30.273   28.947   30.273
 sum_up_and_integrate                62 11.7    0.432    0.468   26.882   26.903
 integrate_v_rspace                  62 12.7    0.079    0.588   26.450   26.478
 potential_pw2rs                     62 13.7    0.050    0.065   25.746   25.790
 mp_waitany                       18000 14.7   22.245   23.484   22.245   23.484
 x_to_yz                            763 18.0    6.677    6.810   22.454   22.914
 rs_pw_transfer_RS2PW_600           126 12.8    9.141   10.017   21.823   22.044
 xc_exc_calc                         51 12.9    0.229    0.240   20.016   20.030
 yz_to_x                            710 16.6    4.600    4.861   17.757   18.663
 rs_pw_transfer_PW2RS_600            73 15.0    4.943    5.341   13.167   13.302
 qs_ks_update_qs_env_forces           5  6.0    0.000    0.000   10.281   10.281
 init_scf_loop                        6  7.8    0.000    0.000    9.779    9.783
 mp_waitall_1                    184707 16.8    7.643    9.619    7.643    9.619
 pw_scatter_p                       825 17.0    8.292    8.478    8.292    8.478
 pw_poisson_solve                   113 11.8    3.438    3.535    6.083    6.092
 pw_derive                          540 14.3    5.824    6.024    5.824    6.024
 pw_gather_p                        824 15.5    5.508    5.845    5.508    5.845
 mp_sum_d                          1978 11.0    4.658    5.126    4.658    5.126
 fft_wrap_pw1pw2_200                176 14.9    0.425    0.466    4.861    5.116
 pw_copy                           1116 14.2    4.918    4.993    4.918    4.993
 rs_grid_zero                       717 11.9    4.392    4.519    4.392    4.519
 rs_pw_transfer_RS2PW_200           114 12.9    1.594    1.841    4.351    4.472
 rs_pw_transfer_RS2PW_70            114 12.9    0.598    0.624    3.782    3.886
 -------------------------------------------------------------------------------

 The number of warnings for this run is : 1
 
 -------------------------------------------------------------------------------
  **** **** ******  **  PROGRAM ENDED AT                 2019-05-23 13:09:27.289
 ***** ** ***  *** **   PROGRAM RAN ON            blg9144.int.ets1.calculquebec.
 **    ****   ******    PROGRAM RAN BY                                       rzk
 ***** **    ** ** **   PROGRAM PROCESS ID                                374602
  **** **  *******  **  PROGRAM STOPPED IN /lustre03/project/6004141/rzk/GaN-car
                                           bene/03-Carbene/00-vacuum-carbene
