     212
 i =        1, E =     -8504.8200134451
  N         0.0901715093        2.1145107007        2.5740958640
 Ga         0.0542165238        0.1577276681        2.9869405454
  N         0.0847221907        0.1289882457        5.1010688970
 Ga         0.0625943907        1.9520267760        5.8770550964
  N         0.0727371810        1.9693423396        7.8577751988
 Ga         0.0652705334        0.1147074875        8.4920953108
  N         0.0707439910        0.1192871281       10.4592260867
 Ga         0.0693796986        1.9579806174       11.1246196041
  N         0.0720618990        1.9400731170       13.1089055230
 Ga         0.0724481203        0.1213021812       13.9279779144
  N         0.0707285629        0.1211408294       16.1102262877
 Ga         0.0713697303        2.1728208689       16.5365793707
 Ga         0.1061130724        3.8271248439        1.4274379736
  N        -1.3927921409        4.6922717814        2.5270167076
 Ga        -1.6088670634        2.8411636865        3.3133601700
  N        -1.5343269064        2.9076823289        5.2888874375
 Ga        -1.5696816266        4.7727041886        5.8538580884
  N        -1.5452279823        4.7702411924        7.8397802903
 Ga        -1.5330228590        2.9120064828        8.4904644056
  N        -1.5254104648        2.9135569596       10.4746860994
 Ga        -1.5519705756        4.7728033472       11.1227008376
  N        -1.5679313924        4.7827143154       13.1082015733
 Ga        -1.5253949403        2.9125033278       13.6711575926
  N        -1.5526678704        2.8994513940       15.6254637405
 Ga        -1.3683891623        4.6690328017       16.5372597727
  N         0.0680859309        3.8351605174       17.6789748454
  N        -3.1445311816        7.6523033437        2.5427123977
 Ga        -3.1108820194        5.6689914886        2.8966646590
  N        -3.1400827612        5.6884424934        5.0510052656
 Ga        -3.1485201953        7.5088965930        5.8380282982
  N        -3.1452919531        7.5391143396        7.8244138688
 Ga        -3.1459926157        5.6925094476        8.4881592738
  N        -3.1443399057        5.6925267993       10.4560448311
 Ga        -3.1453523182        7.5305578524       11.1219451358
  N        -3.1439599426        7.5117743771       13.1072909908
 Ga        -3.1433770686        5.6925944899       13.9288707248
  N        -3.1419809849        5.6931771302       16.1122017749
 Ga        -3.1422524846        7.7419491520       16.5385435744
 Ga        -3.1661905207        9.3989254241        1.3753891493
  N        -4.6543345109       10.2896602186        2.5716222256
 Ga        -4.7949073202        8.4620759025        3.3278808832
  N        -4.7672115068        8.4668446553        5.2780020191
 Ga        -4.7824620072       10.3401662453        5.8681209076
  N        -4.7572518997       10.3343328289        7.8475047586
 Ga        -4.7453911122        8.4762716248        8.4847269766
  N        -4.7417354914        8.4811593118       10.4674856527
 Ga        -4.7709847938       10.3389800302       11.1236713297
  N        -4.7850890481       10.3519158983       13.1078974628
 Ga        -4.7417770141        8.4830808278       13.6723288955
  N        -4.7670141243        8.4665237421       15.6263163430
 Ga        -4.5839991959       10.2365341423       16.5377051002
  N        -3.1459890526        9.4029151845       17.6800485327
  N         3.2798905705        1.9701664570        2.6586014539
 Ga         3.2887954208        0.1291477299        3.3876581390
  N         3.2902831720        0.1337086528        5.3162242289
 Ga         3.2871932442        1.9748886981        5.9851140068
  N         3.2898550064        1.9763941490        7.9302443773
 Ga         3.2872013589        0.1020421121        8.5129625645
  N         3.2880009832        0.1069693741       10.4885740249
 Ga         3.2890197021        1.9782367357       11.0878764129
  N         3.2893162089        1.9786866598       13.0483368628
 Ga         3.2886104866        0.1064258449       13.6732237615
  N         3.2901384354        0.1404037514       15.6274725217
 Ga         3.2888358445        1.9788470246       15.9044473385
  N         1.5681477184        4.6946251445        2.6182169865
 Ga         1.6890731486        2.8868875682        3.3913932228
  N         1.7001233475        2.8945615806        5.3238329618
 Ga         1.7029793085        4.7777658697        5.8837224930
  N         1.6876143197        4.7679253656        7.8578927081
 Ga         1.6655558725        2.9133310340        8.5133313627
  N         1.6693053508        2.9136088606       10.4891551925
 Ga         1.6966986623        4.7763194361       11.1242000029
  N         1.7138694122        4.7836434194       13.1082893209
 Ga         1.6678259471        2.9144107017       13.6729840687
  N         1.6974024625        2.8994358852       15.6271748526
 Ga         1.5094805042        4.6679435649       16.5376889728
  N         0.0490267748        7.5437113630        2.6941949199
 Ga         0.0765548074        5.7064214992        3.3830602639
  N         0.0696385574        5.7078311084        5.3109152284
 Ga         0.0877157931        7.5584916622        5.9297093452
  N         0.0790677999        7.5538041822        7.8880028648
 Ga         0.0679097639        5.6852480864        8.4922639866
  N         0.0718522783        5.6806677110       10.4739716791
 Ga         0.0742225412        7.5496943292       11.0771027919
  N         0.0722402281        7.5488060160       13.0380584145
 Ga         0.0729917818        5.6802364520       13.6718253680
  N         0.0725035488        5.7117041615       15.6245642663
 Ga         0.0702402099        7.5480631243       15.9082863828
  N        -1.6422659744       10.2785568057        2.5665038723
 Ga        -1.5314702770        8.4732629593        3.3599699772
  N        -1.5252143940        8.4739167404        5.2910880312
 Ga        -1.4995363506       10.3510923612        5.8781778011
  N        -1.5310809374       10.3354524020        7.8543272356
 Ga        -1.5456856956        8.4765002305        8.4907229004
  N        -1.5468484453        8.4811919678       10.4724826258
 Ga        -1.5168924508       10.3406858037       11.1248002110
  N        -1.5018679193       10.3524877321       13.1087759513
 Ga        -1.5459041318        8.4833425031       13.6721796692
  N        -1.5191843810        8.4677068823       15.6249150666
 Ga        -1.7045008344       10.2342168940       16.5383616029
  N         6.4890946540        2.1065026846        2.5602042065
 Ga         6.5285173217        0.1094202484        2.9498595506
  N         6.4918850083        0.1288578137        5.1010981573
 Ga         6.5164698852        1.9446125361        5.8697134677
  N         6.5052879801        1.9716915854        7.8512549645
 Ga         6.5114685420        0.1174159087        8.4926446666
  N         6.5064918648        0.1201025656       10.4593817945
 Ga         6.5084971174        1.9587689412       11.1241473264
  N         6.5055512233        1.9402059712       13.1092156920
 Ga         6.5050194233        0.1211482720       13.9288835087
  N         6.5059207574        0.1190727150       16.1116041707
 Ga         6.5065436720        2.1668444480       16.5332641569
 Ga         6.4797674930        3.8484516347        1.5302307936
  N         5.0013992737        4.7112310559        2.6248019616
 Ga         4.8635444123        2.8728531299        3.3879366153
  N         4.8808507245        2.8938125176        5.3132755691
 Ga         4.8824730176        4.7818477674        5.8701030662
  N         4.8931456753        4.7675998856        7.8473764208
 Ga         4.9134221054        2.9147406111        8.5112998956
  N         4.9087207863        2.9142964424       10.4875754415
 Ga         4.8835001216        4.7777040894       11.1217005548
  N         4.8645860912        4.7838990045       13.1071372234
 Ga         4.9098994993        2.9147814405       13.6732902451
  N         4.8824090443        2.8992035822       15.6298262599
 Ga         5.0603016534        4.6714380310       16.5339234172
  N         6.5076203871        3.8370526885       17.6667834765
  N         3.2947652133        7.6244559310        2.5522513637
  N         3.2905679616        5.6697689651        5.1036564376
 Ga         3.2948146096        7.5354619512        5.8055594405
  N         3.2900715071        7.5459087414        7.8049790722
 Ga         3.2912259330        5.7041769294        8.4884132399
  N         3.2895301592        5.6952427699       10.4558114705
 Ga         3.2903213924        7.5328806667       11.1215934795
  N         3.2890551775        7.5112861611       13.1066971890
 Ga         3.2888286556        5.6921738712       13.9287211918
  N         3.2866605365        5.6945964319       16.1114122115
 Ga         3.2878196589        7.7419838177       16.5273982975
 Ga         3.2794214099        9.4307104667        1.3014062810
  N         1.7620612082       10.2917575550        2.5841882594
 Ga         1.6708069953        8.4984044202        3.2752822569
  N         1.6705365998        8.4776890978        5.2505574897
 Ga         1.6529478772       10.3475263002        5.8422943202
  N         1.6708940529       10.3311750476        7.8330774154
 Ga         1.6973694402        8.4841818640        8.4871231975
  N         1.6939102383        8.4829800938       10.4699530814
 Ga         1.6683449284       10.3428901741       11.1190700080
  N         1.6485167977       10.3529404449       13.1055895398
 Ga         1.6906407632        8.4833193166       13.6681145724
  N         1.6598080467        8.4658203874       15.6212119937
 Ga         1.8469560832       10.2376858098       16.5276386684
  N         3.2894847842        9.4065332733       17.6626411347
  N         9.7310280548        1.9770741983        2.6304145334
 Ga         9.6998100081        0.2054127255        3.2953938141
  N         9.7138856784        0.1131303584        5.2803862652
 Ga         9.7226873003        1.9691806908        5.9025069222
  N         9.7195699013        1.9756692340        7.8789980800
 Ga         9.7205873497        0.1062385485        8.4723214226
  N         9.7207115158        0.1071448147       10.4625138836
 Ga         9.7207287591        1.9753814385       11.0737157533
  N         9.7203348949        1.9785972047       13.0367930293
 Ga         9.7211063902        0.1100030661       13.6680491335
  N         9.7198784157        0.1459892448       15.6219910122
 Ga         9.7209583198        1.9817098563       15.9084145782
  N         8.0041843834        4.7197025304        2.5447521131
 Ga         8.2207044154        2.8454639656        3.3086739903
  N         8.1095074666        2.9056513515        5.2755443639
 Ga         8.1439001602        4.7757822737        5.8340932074
  N         8.1208965629        4.7700415051        7.8248390765
 Ga         8.1093444853        2.9147501317        8.4876522598
  N         8.1026810816        2.9146789225       10.4724028222
 Ga         8.1271285379        4.7739022237       11.1207154053
  N         8.1447284755        4.7829237422       13.1072925602
 Ga         8.1026208148        2.9130991499       13.6716313768
  N         8.1283091701        2.8995979671       15.6276303870
 Ga         7.9526270597        4.6714715353       16.5338228778
  N         6.5238404820        7.5609256269        2.6329893228
 Ga         6.5053206259        5.7830165945        3.3556304499
  N         6.5089223947        5.7204208663        5.2935243367
 Ga         6.4858848282        7.5686638607        5.9306250968
  N         6.4971967716        7.5550033952        7.8858011623
 Ga         6.5107639591        5.6880349384        8.4813438088
  N         6.5060803064        5.6821017468       10.4655034905
 Ga         6.5036534751        7.5494966141       11.0731058976
  N         6.5051683670        7.5480563676       13.0352764272
 Ga         6.5047518593        5.6804686142       13.6724481170
  N         6.5055348496        5.7099997433       15.6281955566
 Ga         6.5070509029        7.5482306439       15.9094380256
  N         4.8200807699       10.2992352256        2.5431211656
 Ga         4.9399903935        8.4840678332        3.2412316574
  N         4.9115677216        8.4767932510        5.2274179038
 Ga         4.9124885386       10.3416430144        5.8267558561
  N         4.9046775024       10.3321582623        7.8226218464
 Ga         4.8824484785        8.4850645187        8.4818562805
  N         4.8849409718        8.4826495629       10.4655465946
 Ga         4.9088831919       10.3414672068       11.1175068491
  N         4.9287420333       10.3527317688       13.1044134677
 Ga         4.8873132029        8.4834137075       13.6676007801
  N         4.9169290169        8.4650770446       15.6215500756
 Ga         4.7306548993       10.2388530310       16.5272842919
  O         0.7538467924        3.7080873584       -0.2911047775
  H         2.5571548392        3.3894794462        0.1845300766
  C         0.1653527416        2.7353308894       -1.1729594507
  H         0.0322921782        1.7539600379       -0.6866960495
  H        -0.8121554807        3.0769726515       -1.5465752038
  H         0.8447142920        2.6152868522       -2.0289371229
 Ga         3.2599359704        5.6725120145        3.0109008310
  O         3.4485872444        3.0673771587        0.4733234364
  H         0.0150982554        7.5050118558        1.6685037175
  C         3.2847242545        1.8427645042        1.1619495369
  H         4.1365788912        1.2015262394        0.8873488611
  H         6.5503020119        7.5487914964        1.5895971632
  H         2.3498140179        1.3439878274        0.8587866112
     212
 i =        2, E =     -8504.8276019365
  N         0.0878066524        2.1115142290        2.5771486322
 Ga         0.0532204169        0.1502909921        2.9576181965
  N         0.0755880437        0.1292329975        5.0861686138
 Ga         0.0635664099        1.9503822842        5.8743008319
  N         0.0726857748        1.9698357543        7.8549236250
 Ga         0.0662826903        0.1166836874        8.4937527684
  N         0.0712563251        0.1190452526       10.4593062738
 Ga         0.0685603822        1.9583103024       11.1250731495
  N         0.0717749153        1.9395970696       13.1087267058
 Ga         0.0712301440        0.1205823889       13.9304142846
  N         0.0712734479        0.1211012522       16.1090840874
 Ga         0.0710701069        2.1724917941       16.5375596424
 Ga         0.1072579691        3.8257057906        1.4295553293
  N        -1.3966303211        4.6943183067        2.5243930578
 Ga        -1.6082715669        2.8487765220        3.3107816417
  N        -1.5341649534        2.9060175428        5.2869439663
 Ga        -1.5663963182        4.7698341287        5.8565349708
  N        -1.5453293573        4.7703294030        7.8406464369
 Ga        -1.5319886214        2.9120178627        8.4920147491
  N        -1.5257878119        2.9141932592       10.4742836697
 Ga        -1.5530677559        4.7729023781       11.1225243108
  N        -1.5685217201        4.7830500579       13.1063038931
 Ga        -1.5259221456        2.9130551438       13.6711766391
  N        -1.5540570406        2.9000001725       15.6248045489
 Ga        -1.3664313012        4.6677503413       16.5385738884
  N         0.0695433640        3.8331401689       17.6787015478
  N        -3.1487467476        7.6561507590        2.5437982265
 Ga        -3.1122895448        5.6704305490        2.8958556495
  N        -3.1377933363        5.6857453527        5.0521011015
 Ga        -3.1466210774        7.5056296465        5.8430481989
  N        -3.1458993796        7.5381985318        7.8268894529
 Ga        -3.1450094047        5.6915794418        8.4909477932
  N        -3.1449079832        5.6928186071       10.4559290318
 Ga        -3.1442117146        7.5291649228       11.1234701757
  N        -3.1440148129        7.5114365582       13.1062797866
 Ga        -3.1427328656        5.6929860057       13.9293849294
  N        -3.1421654124        5.6933545339       16.1123005019
 Ga        -3.1423434611        7.7442118117       16.5394941144
 Ga        -3.1557011975        9.4057192913        1.3302095883
  N        -4.6528732643       10.2816332819        2.5672025827
 Ga        -4.7685477162        8.4748870586        3.3338050890
  N        -4.7675191913        8.4682857389        5.2728580834
 Ga        -4.7875549939       10.3491357863        5.8639514144
  N        -4.7583616304       10.3339410734        7.8432503027
 Ga        -4.7410410864        8.4796914050        8.4936942662
  N        -4.7401663303        8.4811985695       10.4725048333
 Ga        -4.7707492295       10.3397042447       11.1257655113
  N        -4.7853679454       10.3516367891       13.1086239620
 Ga        -4.7414580470        8.4823376409       13.6725658207
  N        -4.7672024502        8.4650342196       15.6255969276
 Ga        -4.5844804472       10.2364344324       16.5383218389
  N        -3.1471321882        9.4050736206       17.6795484025
  N         3.2782826059        1.9702861365        2.6618845003
 Ga         3.2870856215        0.1289719408        3.3787190630
  N         3.2897370513        0.1323643333        5.3088206013
 Ga         3.2875879526        1.9745056177        5.9809575034
  N         3.2899717743        1.9770013275        7.9265026903
 Ga         3.2876959502        0.1024955313        8.5120297237
  N         3.2879235044        0.1063325725       10.4872404424
 Ga         3.2892320590        1.9782917832       11.0878403744
  N         3.2897561260        1.9785460544       13.0472581326
 Ga         3.2888267838        0.1064877851       13.6738682370
  N         3.2907670172        0.1410274338       15.6273729924
 Ga         3.2880759027        1.9783842944       15.9094675426
  N         1.5669390845        4.7010381270        2.6166287951
 Ga         1.6907178502        2.8912126285        3.3886249052
  N         1.6997819211        2.8939223985        5.3215440554
 Ga         1.7078357593        4.7776738051        5.8793758548
  N         1.6871414611        4.7677206597        7.8542483108
 Ga         1.6657111733        2.9133969930        8.5142187027
  N         1.6688622666        2.9137273756       10.4892508330
 Ga         1.6968595664        4.7768174906       11.1241685433
  N         1.7140846431        4.7841551105       13.1074745720
 Ga         1.6681074546        2.9144816493       13.6734387153
  N         1.6983658734        2.8995760963       15.6271432708
 Ga         1.5087221595        4.6676663596       16.5389635131
  N         0.0599995786        7.5433387635        2.7065783165
 Ga         0.0710076264        5.7001065874        3.3811229661
  N         0.0714170270        5.7095095803        5.3092471321
 Ga         0.0784408929        7.5551762476        5.9432049603
  N         0.0751054475        7.5512470887        7.8970222771
 Ga         0.0684165823        5.6822266756        8.4967005475
  N         0.0710008048        5.6800313943       10.4758332257
 Ga         0.0734275279        7.5493705604       11.0763446693
  N         0.0721655578        7.5491894054       13.0359345381
 Ga         0.0724081820        5.6805376929       13.6715690218
  N         0.0719654229        5.7124691824       15.6237761825
 Ga         0.0721336295        7.5491278015       15.9081973168
  N        -1.6409056388       10.2785161454        2.5667783870
 Ga        -1.5319291667        8.4733208731        3.3490641229
  N        -1.5272649222        8.4729164250        5.2830863881
 Ga        -1.4993495610       10.3521268899        5.8736719743
  N        -1.5294620334       10.3359071549        7.8505767032
 Ga        -1.5472003815        8.4788300736        8.4942554432
  N        -1.5480357897        8.4810446927       10.4734037921
 Ga        -1.5174649671       10.3400197237       11.1257649129
  N        -1.5017241570       10.3521910683       13.1084094865
 Ga        -1.5460896749        8.4827664464       13.6721072768
  N        -1.5188240184        8.4668233681       15.6240709860
 Ga        -1.7050993909       10.2335944259       16.5392913982
  N         6.4888711599        2.1056349043        2.5641053098
 Ga         6.5198225900        0.1111811483        2.9444499853
  N         6.4999874356        0.1261262058        5.0941168961
 Ga         6.5145333004        1.9447070960        5.8676502572
  N         6.5051521971        1.9707205071        7.8487968082
 Ga         6.5097389026        0.1187925797        8.4984296518
  N         6.5056267768        0.1208137903       10.4627662014
 Ga         6.5091755151        1.9598431898       11.1254599590
  N         6.5059446053        1.9399514573       13.1099409597
 Ga         6.5061303102        0.1196744694       13.9299819013
  N         6.5057117826        0.1193870336       16.1109956987
 Ga         6.5066577978        2.1647795029       16.5308542161
 Ga         6.4788415019        3.8350301333        1.4956813721
  N         5.0122078434        4.7180385665        2.6174982945
 Ga         4.8590610754        2.8791471358        3.3796005122
  N         4.8819372889        2.8949521944        5.3060723207
 Ga         4.8716665736        4.7820375989        5.8651050834
  N         4.8939254867        4.7680483905        7.8421804243
 Ga         4.9133595961        2.9145838047        8.5115564279
  N         4.9095440242        2.9147437515       10.4870375696
 Ga         4.8825172164        4.7773371329       11.1236900118
  N         4.8644533531        4.7844771733       13.1083549794
 Ga         4.9098533735        2.9147114037       13.6734890834
  N         4.8812261478        2.8985071756       15.6304489101
 Ga         5.0585299816        4.6726187822       16.5315055568
  N         6.5056077043        3.8360641524       17.6617588449
  N         3.2922707261        7.6503388568        2.5422010579
  N         3.2880727187        5.6810236984        5.0864545217
 Ga         3.2924409563        7.5301109609        5.8179010202
  N         3.2911724388        7.5441127038        7.8125382932
 Ga         3.2907726373        5.7011713235        8.4891193333
  N         3.2901728386        5.6952173836       10.4549128085
 Ga         3.2894695449        7.5319283570       11.1225299953
  N         3.2892349381        7.5117775941       13.1050487521
 Ga         3.2880983350        5.6939426389       13.9303987809
  N         3.2871251647        5.6944207935       16.1109866170
 Ga         3.2878195809        7.7455896465       16.5329616459
 Ga         3.2831829366        9.4466811917        1.2334305509
  N         1.7673495887       10.2778969760        2.5702567846
 Ga         1.6783257759        8.4838494851        3.3081875766
  N         1.6635677392        8.4693728968        5.2640203312
 Ga         1.6591424711       10.3472075359        5.8445156868
  N         1.6707382348       10.3342981990        7.8337279643
 Ga         1.6963216902        8.4839384998        8.4877587660
  N         1.6938491905        8.4822412555       10.4696139352
 Ga         1.6682509026       10.3424916555       11.1189499941
  N         1.6489159384       10.3527131595       13.1033573427
 Ga         1.6907135395        8.4833479667       13.6686950092
  N         1.6617413085        8.4668442173       15.6197025326
 Ga         1.8500261837       10.2357479355       16.5332204165
  N         3.2901602030        9.4068955941       17.6731228652
  N         9.7277306090        1.9807197992        2.6453498942
 Ga         9.7141296403        0.2092769620        3.2857376057
  N         9.7162830340        0.1204701721        5.2709851375
 Ga         9.7221262692        1.9748358013        5.9070110428
  N         9.7194622417        1.9775627997        7.8809029350
 Ga         9.7210670773        0.1088181518        8.4772788244
  N         9.7211642162        0.1082615983       10.4649418163
 Ga         9.7205561401        1.9771272121       11.0739968028
  N         9.7199488716        1.9785853531       13.0354589462
 Ga         9.7210533654        0.1099085590       13.6688609270
  N         9.7194657895        0.1438757906       15.6206916824
 Ga         9.7219124227        1.9791351326       15.9099167700
  N         7.9991415928        4.7195424710        2.5418875419
 Ga         8.2157457199        2.8502853439        3.3090618087
  N         8.1069689967        2.9089166409        5.2753234801
 Ga         8.1466848531        4.7763331926        5.8401426903
  N         8.1207706737        4.7712868027        7.8271625260
 Ga         8.1080393691        2.9142423776        8.4886019160
  N         8.1025515873        2.9154714037       10.4714100511
 Ga         8.1290464586        4.7731122734       11.1222876927
  N         8.1452331710        4.7832536217       13.1071057684
 Ga         8.1030964123        2.9135766398       13.6715336587
  N         8.1300868032        2.8994042816       15.6278043284
 Ga         7.9528185506        4.6716047941       16.5314137066
  N         6.5139639143        7.5632749848        2.6594469875
 Ga         6.5141159261        5.7505129123        3.3620970502
  N         6.5070151777        5.7206462973        5.2888631515
 Ga         6.4962545167        7.5630713910        5.9480365844
  N         6.5007437571        7.5524852465        7.8960896717
 Ga         6.5098063495        5.6822318289        8.4911568986
  N         6.5068705721        5.6804398429       10.4711422282
 Ga         6.5040203979        7.5491607944       11.0743132969
  N         6.5051803364        7.5480213541       13.0345940469
 Ga         6.5054390886        5.6807187688       13.6723141421
  N         6.5062696370        5.7116587891       15.6282795126
 Ga         6.5053613324        7.5502800226       15.9109154413
  N         4.8099894515       10.2785870494        2.5444885421
 Ga         4.9051432428        8.4870419749        3.2880370958
  N         4.9208398670        8.4667683239        5.2446889310
 Ga         4.9124979819       10.3452463875        5.8287578429
  N         4.9046675829       10.3330547100        7.8227474726
 Ga         4.8806011128        8.4863080421        8.4878027405
  N         4.8844391095        8.4827419618       10.4687310102
 Ga         4.9093082681       10.3422660006       11.1189246635
  N         4.9285265687       10.3523391636       13.1032344246
 Ga         4.8872365941        8.4833375507       13.6687372037
  N         4.9150585831        8.4656169532       15.6203346045
 Ga         4.7284620953       10.2374663341       16.5325186405
  O         0.7522475683        3.7079666965       -0.2888165741
  H         2.5572464180        3.3902530707        0.1838187569
  C         0.1664817714        2.7362828750       -1.1747980224
  H         0.0329271775        1.7559520333       -0.6875571621
  H        -0.8121130673        3.0748449024       -1.5476423580
  H         0.8434657216        2.6114779524       -2.0313596918
 Ga         3.2625105037        5.6876539215        2.9733145705
  O         3.4470038447        3.0645569690        0.4733431218
  H         0.0170763053        7.5075474887        1.6797681893
  C         3.2851630566        1.8427323394        1.1659558419
  H         4.1347470202        1.2021306006        0.8837161886
  H         6.5533574312        7.5418584507        1.6310279125
  H         2.3522279169        1.3445940314        0.8572018385
     212
 i =        3, E =     -8504.8291653272
  N         0.0869527627        2.1105631849        2.5745048297
 Ga         0.0558008054        0.1459082897        2.9449273560
  N         0.0749212653        0.1288766187        5.0821339791
 Ga         0.0633899427        1.9491917443        5.8691302385
  N         0.0732027236        1.9694288341        7.8516504391
 Ga         0.0671973242        0.1178412864        8.4938154503
  N         0.0715232718        0.1193376605       10.4591976136
 Ga         0.0690863948        1.9585482694       11.1260228316
  N         0.0717534959        1.9400730093       13.1097139968
 Ga         0.0709590231        0.1207438210       13.9317352031
  N         0.0713588730        0.1210694989       16.1094846237
 Ga         0.0716686511        2.1720599338       16.5371416997
 Ga         0.1073340497        3.8247252979        1.4265088813
  N        -1.3967318748        4.6947157154        2.5247066850
 Ga        -1.6087139572        2.8505303495        3.3116791307
  N        -1.5337830120        2.9078087450        5.2887897776
 Ga        -1.5660457466        4.7690396424        5.8589408611
  N        -1.5453144279        4.7698763024        7.8425433027
 Ga        -1.5310023512        2.9109716493        8.4914957092
  N        -1.5255067138        2.9138767056       10.4740290842
 Ga        -1.5527166914        4.7723815227       11.1233865579
  N        -1.5686371329        4.7830262534       13.1068408586
 Ga        -1.5260622333        2.9132880518       13.6713882742
  N        -1.5543070494        2.8998405094       15.6250419056
 Ga        -1.3660469106        4.6671942689       16.5382480468
  N         0.0698028378        3.8324387450       17.6773544443
  N        -3.1461688476        7.6560591981        2.5438279133
 Ga        -3.1132664027        5.6730499395        2.8971624327
  N        -3.1376933984        5.6845566672        5.0554668360
 Ga        -3.1443016108        7.5054858905        5.8455164594
  N        -3.1454319975        7.5380048222        7.8289602449
 Ga        -3.1443479466        5.6916189613        8.4926382704
  N        -3.1447569566        5.6925877223       10.4572071122
 Ga        -3.1438533916        7.5289142765       11.1252815986
  N        -3.1437162804        7.5110791735       13.1075701870