     156
 i =        1, E =     -6136.6286973621
 Ga        -0.0031973094       -0.0158329516       -0.5375928888
  N        -0.0002729783        1.8584780961        0.6070016569
 Ga        -0.0003340691        1.8280287746        2.6383726026
  N        -0.0033776790       -0.0156159021        3.2696735684
 Ga        -0.0021653658       -0.0150504259        5.2603920089
  N         0.0008176737        1.8596741762        5.8482860120
 Ga         0.0022940155        1.8581491175        7.8482554373
  N         0.0008331476       -0.0150042794        8.4505854626
 Ga         0.0037458993       -0.0157236938       10.4497961677
  N         0.0042775542        1.8600689297       11.0415800053
 Ga         0.0095793328        1.8622377362       13.0320544587
  N         0.0153268015       -0.0087446762       13.6325346111
 Ga         0.0304021870       -0.0177791159       15.6248447354
  N         0.0199440871        1.8574966756       16.2216413777
 Ga         0.0448955924        1.8471974157       18.2877770320
  N         0.0483948724       -0.0267956791       18.6985370533
 Ga        -1.6230535629        2.7898791010        0.3238573862
  N        -1.6248091917        4.6597399319        0.6067027230
 Ga        -1.5956874200        4.6757304489        2.6367580441
  N        -1.6231061271        2.7899847305        3.2283122942
 Ga        -1.6217674427        2.7906184829        5.2398599516
  N        -1.6212820109        4.6608903375        5.8464761595
 Ga        -1.6191121775        4.6615336847        7.8452159316
  N        -1.6203685534        2.7918368557        8.4511867964
 Ga        -1.6194696898        2.7953435435       10.4471876662
  N        -1.6174698787        4.6668724977       11.0552052478
 Ga        -1.6181995717        4.6714018967       13.0527754232
  N        -1.6072543834        2.7998199477       13.6583929567
 Ga        -1.6007289848        2.8162987849       15.6629285675
  N        -1.5864517388        4.6838364109       16.3114718304
 Ga        -1.5142509452        4.6811319136       18.3866580725
  N        -1.5542664830        2.7884867781       18.7559442461
 Ga        -3.2437384828        5.5955549534        0.3237758840
  N        -3.2373750921        7.4661485443        0.6072596008
 Ga        -3.2641812745        7.4807093424        2.6385116843
  N        -3.2426866841        5.5950413989        3.2286508732
 Ga        -3.2419167429        5.5960176072        5.2401081635
  N        -3.2357830702        7.4663008760        5.8469767715
 Ga        -3.2358778170        7.4670851755        7.8461507146
  N        -3.2398788972        5.5961822150        8.4495052936
 Ga        -3.2389589230        5.5972456618       10.4449747270
  N        -3.2308436730        7.4658271368       11.0556630868
 Ga        -3.2219305320        7.4629679287       13.0544672406
  N        -3.2355948280        5.5972922384       13.6928506632
 Ga        -3.2227783097        5.5920075292       15.7299135411
  N        -3.2086488517        7.4743083844       16.2704200301
 Ga        -3.1859453286        7.4477959316       18.3277014618
  N        -3.1592561120        5.5860795252       18.8508753760
 Ga         3.2425512309       -0.0154444922        0.3241630482
  N         3.2414640767        1.8548065849        0.6064033069
 Ga         3.2696603346        1.8704494503        2.6372712910
  N         3.2428081599       -0.0153018093        3.2283134359
 Ga         3.2440037163       -0.0146002101        5.2399858005
  N         3.2446612765        1.8555405007        5.8474785533
 Ga         3.2471213871        1.8563016978        7.8468967737
  N         3.2448897053       -0.0146524372        8.4498391868
 Ga         3.2477473405       -0.0140908755       10.4454004778
  N         3.2516253378        1.8569308838       11.0512625812
 Ga         3.2584322502        1.8540043080       13.0486251186
  N         3.2577922659       -0.0166440215       13.6599096901
 Ga         3.2697250183       -0.0187222580       15.6657666853
  N         3.2837244228        1.8547491697       16.2307667041
 Ga         3.3198207420        1.8604298176       18.2551720742
  N         3.3062790409       -0.0255916731       18.7101175615
 Ga         1.6221356823        2.7905839486        0.3237595619
  N         1.6293374573        4.6603703867        0.6070235462
 Ga         1.6011635453        4.6758752145        2.6371219492
  N         1.6229364397        2.7900955290        3.2290479472
 Ga         1.6243016524        2.7909480505        5.2409105343
  N         1.6297316256        4.6611463439        5.8483944073
 Ga         1.6302403089        4.6616183738        7.8483585211
  N         1.6261115601        2.7902911032        8.4496095023
 Ga         1.6296901004        2.7921024439       10.4450708724
  N         1.6277794748        4.6624094514       11.0491113792
 Ga         1.6291793246        4.6646888899       13.0447792836
  N         1.6312529706        2.7873525245       13.6464474558
 Ga         1.6546468400        2.7849239121       15.6411015350
  N         1.6292512269        4.6649655967       16.1843208950
 Ga         1.6785282878        4.6402058685       18.1815436768
  N         1.6849262773        2.7775605170       18.6348026640
 Ga         0.0031267269        5.5957808793       -0.5460653424
  N         0.0059631093        7.4707668318        0.6066895030
 Ga         0.0060798261        7.4382899780        2.6368384921
  N         0.0030123768        5.5951899754        3.2695620149
 Ga         0.0046922891        5.5962070284        5.2598019362
  N         0.0074733173        7.4707308410        5.8477453256
 Ga         0.0089325634        7.4693610123        7.8473774718
  N         0.0049620097        5.5956921195        8.4474858483
 Ga         0.0067247544        5.5972408556       10.4447708920
  N         0.0116956336        7.4694124413       11.0449803134
 Ga         0.0151594084        7.4714420192       13.0370842926
  N         0.0057153225        5.6027655347       13.6455914956
 Ga         0.0065153765        5.6014662307       15.6418179923
  N         0.0373075498        7.4659982182       16.2690779261
 Ga         0.0724540406        7.4320939013       18.3565992544
  N         0.1396720678        5.5808221278       18.9008621059
 Ga         6.4873193657       -0.0150112547        0.3233774828
  N         6.4933547161        1.8552431888        0.6060755313
 Ga         6.4660944473        1.8703009508        2.6370707992
  N         6.4880554958       -0.0152152124        3.2289269678
 Ga         6.4897977869       -0.0146100342        5.2408821713
  N         6.4945649928        1.8559331378        5.8479430771
 Ga         6.4944337931        1.8568654935        7.8475011750
  N         6.4910158516       -0.0135251659        8.4515729348
 Ga         6.4945805438       -0.0112812188       10.4481805530
  N         6.4964378382        1.8611464291       11.0529475781
 Ga         6.5008747573        1.8654487222       13.0501394062
  N         6.4899725026       -0.0070108738       13.6381415786
 Ga         6.5090359875       -0.0000681957       15.6389985228
  N         6.5163572548        1.8736514497       16.2290382374
 Ga         6.5724072294        1.8766327931       18.2702509236
  N         6.5610042856       -0.0215221781       18.6561687431
 Ga         4.8675978349        2.7916176194       -0.5407211842
  N         4.8709926261        4.6643843672        0.6069489451
 Ga         4.8708433358        4.6332332774        2.6375475667
  N         4.8683123975        2.7899033327        3.2693033189
 Ga         4.8696074305        2.7911734111        5.2595448445
  N         4.8722548956        4.6651826709        5.8481330511
 Ga         4.8727491173        4.6640316979        7.8478208484
  N         4.8709690460        2.7914537967        8.4504565045
 Ga         4.8737822007        2.7956360746       10.4497081255
  N         4.8796214165        4.6660279188       11.0584295568
 Ga         4.8809817339        4.6697773141       13.0609215119
  N         4.8759868702        2.7957708065       13.6539695123
 Ga         4.8829285509        2.8016669072       15.6676495290
  N         4.8620126746        4.6739092082       16.1683730110
 Ga         4.9325814810        4.6623639533       19.0935948527
  N         4.9399329308        2.7838668916       18.7400024494
 Ga         3.2489113897        5.5950410162        0.3233205260
  N         3.2480355274        7.4655300783        0.6067702971
 Ga         3.2754811787        7.4805718761        2.6380888841
  N         3.2486685210        5.5952812169        3.2291019747
 Ga         3.2500910057        5.5963526547        5.2407771914
  N         3.2504882388        7.4661954415        5.8494247634
 Ga         3.2531343432        7.4666197420        7.8498678259
  N         3.2515170693        5.5960001902        8.4551850091
 Ga         3.2549090920        5.5976550214       10.4543169620
  N         3.2566818260        7.4714411769       11.0506995089
 Ga         3.2573552059        7.4729140857       13.0479166373
  N         3.2491348752        5.5987093626       13.6294855089
 Ga         3.2565256060        5.6059139960       15.6352832098
  N         3.2799703711        7.4864975886       16.1587122341
 Ga         3.3269739654        7.4923595722       18.1720101173
  N         3.3628219344        5.5701431116       18.4641775989
  O         1.6069296248        5.1255098634       21.2170938112
  H         0.9845465451        5.4074952452       20.4659611869
  C         0.8192117226        3.9470431914       21.9067005322
  H         0.1046240427        3.5319146920       21.1796221970
  H         1.5590418648        3.1904041615       22.1968425176
  H         0.3063488845        4.3729451357       22.7819867294
  O         4.2411663743        4.7159238408       21.0730080483
  H         3.2334996835        4.8654460573       21.0738118633
  C         4.5514430511        3.5968090634       21.9430785888
  H         4.1179848336        2.6626143244       21.5600300488
  H         5.6432074855        3.5046656430       21.9647309473
  H         4.1785982448        3.8116477956       22.9525950785
     156
 i =        2, E =     -6136.6340478593
 Ga        -0.0031908845       -0.0158411273       -0.5424298566
  N        -0.0002289875        1.8587245232        0.6074324300
 Ga        -0.0002269554        1.8277071658        2.6380206334
  N        -0.0033204790       -0.0156318978        3.2702265103
 Ga        -0.0021233610       -0.0150360474        5.2604437889
  N         0.0009401445        1.8597711353        5.8486644358
 Ga         0.0025231654        1.8583375157        7.8485306166
  N         0.0010313060       -0.0150709835        8.4498000287
 Ga         0.0042660155       -0.0153840236       10.4486497617
  N         0.0043322380        1.8599042371       11.0455811695
 Ga         0.0108805591        1.8617939705       13.0372716797
  N         0.0168655627       -0.0091755820       13.6386523219
 Ga         0.0332389345       -0.0256925730       15.6318135812
  N         0.0257431997        1.8563134860       16.2181873623
 Ga         0.0469551595        1.8515541417       18.2815390913
  N         0.0432221785       -0.0202029720       18.6899054845
 Ga        -1.6226476203        2.7897082918        0.3241294406
  N        -1.6246968623        4.6597414434        0.6064114588
 Ga        -1.5958522039        4.6756277820        2.6366924406
  N        -1.6229521481        2.7898747578        3.2283639481
 Ga        -1.6217017914        2.7907365375        5.2398494065
  N        -1.6211359790        4.6610314062        5.8468497336
 Ga        -1.6190250678        4.6618863977        7.8455045029
  N        -1.6203866681        2.7920270003        8.4510100251
 Ga        -1.6191727137        2.7955310447       10.4468107494
  N        -1.6176567249        4.6666280905       11.0561612903
 Ga        -1.6189323761        4.6704446567       13.0540553006
  N        -1.6058859181        2.7993400714       13.6634377125
 Ga        -1.6017942249        2.8149307779       15.6680443906
  N        -1.5890561229        4.6797491753       16.3113661790
 Ga        -1.5158296542        4.6816925646       18.3871170975
  N        -1.5522058089        2.7869333263       18.7414712066
 Ga        -3.2436226864        5.5959138457        0.3240831399
  N        -3.2370544470        7.4660110605        0.6076905435
 Ga        -3.2643774557        7.4808123946        2.6381917525
  N        -3.2426722987        5.5951273680        3.2286979264
 Ga        -3.2418453333        5.5960097972        5.2400376385
  N        -3.2356302527        7.4663526555        5.8471578812
 Ga        -3.2356027626        7.4670275679        7.8461523041
  N        -3.2398347063        5.5963439022        8.4500928783
 Ga        -3.2390635022        5.5972819882       10.4457916259
  N        -3.2310152552        7.4661536122       11.0554189736
 Ga        -3.2225189344        7.4622434744       13.0541851153
  N        -3.2365176785        5.5968982107       13.6924056008
 Ga        -3.2240771327        5.5902633123       15.7299486855
  N        -3.2040041490        7.4659328106       16.2753342448
 Ga        -3.1920092041        7.4446060621       18.3317491966
  N        -3.1559667405        5.5859032665       18.8576655391
 Ga         3.2423365393       -0.0156579437        0.3244387609
  N         3.2416808165        1.8549013289        0.6060665586
 Ga         3.2696081094        1.8703756718        2.6373054782
  N         3.2427493938       -0.0153579380        3.2283498356
 Ga         3.2442092638       -0.0145683098        5.2399047740
  N         3.2447175226        1.8555589011        5.8477472533
 Ga         3.2472741180        1.8562939350        7.8469556915
  N         3.2448544047       -0.0145260249        8.4499773805
 Ga         3.2475450098       -0.0138955889       10.4453926840
  N         3.2519798520        1.8570952318       11.0514607070
 Ga         3.2594495053        1.8531041189       13.0484934989
  N         3.2558565148       -0.0165819017       13.6608972101
 Ga         3.2645068611       -0.0183292733       15.6670721017
  N         3.2842601362        1.8513341131       16.2369329069
 Ga         3.3232154170        1.8608833523       18.2630763825
  N         3.2994353351       -0.0232744677       18.7269033614
 Ga         1.6218380877        2.7904327902        0.3241163401
  N         1.6293093484        4.6603817413        0.6067832739
 Ga         1.6015081823        4.6757165295        2.6370743365
  N         1.6229230512        2.7899985196        3.2291100241
 Ga         1.6244235639        2.7910883248        5.2408317206
  N         1.6297778021        4.6612381561        5.8486780191
 Ga         1.6303072998        4.6618419798        7.8484806343
  N         1.6264759483        2.7905323216        8.4496825985
 Ga         1.6296921185        2.7921430647       10.4450895609
  N         1.6277976763        4.6625982140       11.0475470859
 Ga         1.6266788186        4.6653611278       13.0430752986
  N         1.6338929129        2.7884636412       13.6470773915
 Ga         1.6589779768        2.7876757395       15.6407137789
  N         1.6265251556        4.6637198099       16.1784831417
 Ga         1.6789536878        4.6425043957       18.1765022549
  N         1.6850194914        2.7811230857       18.6250153302
 Ga         0.0032289269        5.5957160939       -0.5447041427
  N         0.0060126777        7.4706781512        0.6064652610
 Ga         0.0061481446        7.4385465290        2.6368335204
  N         0.0031140678        5.5951762044        3.2691183325
 Ga         0.0048262175        5.5962806334        5.2595664940
  N         0.0075543065        7.4707077626        5.8482752457
 Ga         0.0088942631        7.4693765015        7.8478180087
  N         0.0051035968        5.5957245778        8.4476211860
 Ga         0.0063976032        5.5970475469       10.4448734266
  N         0.0116754529        7.4695615642       11.0442784436
 Ga         0.0144246442        7.4726828722       13.0364282194
  N         0.0041565574        5.6041398722       13.6449978230
 Ga         0.0063769583        5.5987636887       15.6425457751
  N         0.0398712881        7.4711490360       16.2600246195
 Ga         0.0619883146        7.4372793747       18.3495418477
  N         0.1380116777        5.5847560953       18.8931522296
 Ga         6.4876519720       -0.0152329118        0.3236888263
  N         6.4932408446        1.8553421317        0.6057340018
 Ga         6.4662379258        1.8701787591        2.6370883494
  N         6.4882320727       -0.0152755006        3.2290038970
 Ga         6.4897973178       -0.0146377785        5.2408209011
  N         6.4946571997        1.8559035821        5.8482196688
 Ga         6.4943855672        1.8569118123        7.8476186691
  N         6.4910323890       -0.0134275288        8.4512520401
 Ga         6.4945817958       -0.0105805197       10.4478061933
  N         6.4967076621        1.8618126323       11.0544462377
 Ga         6.5014415787        1.8671825832       13.0520652738
  N         6.4913979661       -0.0058863257       13.6340730272
 Ga         6.5108719358        0.0015525042       15.6336401370
  N         6.5166501752        1.8715531384       16.2344446911
 Ga         6.5713762225        1.8732262408       18.2766025866
  N         6.5575752061       -0.0249300570       18.6632722584
 Ga         4.8676610016        2.7915151215       -0.5385837477
  N         4.8710564884        4.6641488146        0.6065850070
 Ga         4.8708721386        4.6333699882        2.6375624899
  N         4.8683802460        2.7899155099        3.2691245076
 Ga         4.8696860585        2.7912424428        5.2594768854
  N         4.8723341683        4.6652619766        5.8484575460
 Ga         4.8728375756        4.6642432606        7.8480392574
  N         4.8709877275        2.7915877361        8.4503778772
 Ga         4.8739804175        2.7956818189       10.4494176967
  N         4.8790960004        4.6658131974       11.0582384365
 Ga         4.8805499847        4.6699557343       13.0613395919
  N         4.8752824136        2.7965341119       13.6575774358
 Ga         4.8826563864        2.7990868439       15.6734453104
  N         4.8558770697        4.6738746970       16.1586295598
 Ga         4.9386412568        4.6597799857       19.0968511470
  N         4.9420277820        2.7838748295       18.7441848511
 Ga         3.2488932658        5.5953656817        0.3236824607
  N         3.2478228331        7.4653632839        0.6072976661
 Ga         3.2757798159        7.4806521147        2.6378426241
  N         3.2487632228        5.5953685853        3.2292221631
 Ga         3.2501518949        5.5963588692        5.2407528090
  N         3.2505033805        7.4662128706        5.8496818625
 Ga         3.2531092311        7.4665777884        7.8499953520
  N         3.2515380397        5.5960510780        8.4548720163
 Ga         3.2548703664        5.5979566566       10.4539742479
  N         3.2570940688        7.4722469065       11.0491245031
 Ga         3.2586152639        7.4746342496       13.0463147946
  N         3.2467905618        5.6004279130       13.6234393411
 Ga         3.2549052683        5.6078770925       15.6289619357
  N         3.2776385770        7.4856321208       16.1595654805
 Ga         3.3231871448        7.4905903652       18.1731516037
  N         3.3738101187        5.5649556601       18.4490850585
  O         1.6249125719        5.1655569951       21.2174012695
  H         0.9934598279        5.4159632508       20.4586970154
  C         0.8000800943        3.9188496447       21.9217985721
  H         0.0987803460        3.5239759788       21.1760676467
  H         1.5610146829        3.1835372223       22.2000790539
  H         0.3014901418        4.3650435693       22.7886563955
  O         4.2374874852        4.7133560774       21.0728154600
  H         3.2305901180        4.8783455553       21.0656427833
  C         4.5576838785        3.5975017099       21.9420314580
  H         4.1193246387        2.6647103570       21.5602302271
  H         5.6480651402        3.4968762664       21.9705774510
  H         4.1793578457        3.8114222596       22.9500829162
     156
 i =        3, E =     -6136.6346567540
 Ga        -0.0031654934       -0.0158520086       -0.5442454312
  N        -0.0001848869        1.8588485069        0.6074192307
 Ga        -0.0001925586        1.8274426065        2.6378348686
  N        -0.0032390687       -0.0156494593        3.2705109709
 Ga        -0.0019992793       -0.0149314385        5.2606786068
  N         0.0010008579        1.8598690527        5.8483600351
 Ga         0.0026249417        1.8585727982        7.8480638895
  N         0.0012810253       -0.0146150934        8.4497804451
 Ga         0.0047653564       -0.0144643824       10.4485125326
  N         0.0045159781        1.8598926245       11.0483462433
 Ga         0.0117038261        1.8606531173       13.0410209437
  N         0.0176900995       -0.0105576775       13.6415842756
 Ga         0.0345589367       -0.0292307185       15.6351308994
  N         0.0291145270        1.8550442024       16.2159789687
 Ga         0.0476817332        1.8534795887       18.2768252327
  N         0.0398758107       -0.0178014397       18.6848085885
 Ga        -1.6223826975        2.7898454328        0.3243550576
  N        -1.6244390011        4.6598537974        0.6065516791
 Ga        -1.5958111726        4.6755752011        2.6369393603
  N        -1.6227775370        2.7898053453        3.2284371863
 Ga        -1.6215327064        2.7907997699        5.2400420144
  N        -1.6211203584        4.6610689441        5.8466987422
 Ga        -1.6190556308        4.6617738710        7.8454863643
  N        -1.6200526482        2.7919777224        8.4518334507
 Ga        -1.6185713108        2.7953347833       10.4477099204
  N        -1.6178622025        4.6661587548       11.0567972749
 Ga        -1.6195021567        4.6698563162       13.0549007638
  N        -1.6048731469        2.7990755431       13.6666412420
 Ga        -1.6016193589        2.8131578031       15.6715678015
  N        -1.5905950476        4.6768938088       16.3110277243
 Ga        -1.5162995259        4.6842887150       18.3876124610
  N        -1.5504800584        2.7875275366       18.7330245735
 Ga        -3.2433257030        5.5960207646        0.3242645060
  N        -3.2368490421        7.4659195475        0.6076251747
 Ga        -3.2645344564        7.4809374606        2.6379458758
  N        -3.2425982885        5.5952627067        3.2286574957
 Ga        -3.2417031525        5.5960999711        5.2401228197
  N        -3.2355601574        7.4663356414        5.8470035491
 Ga        -3.2355767109        7.4670618082        7.8460313426
  N        -3.2396622519        5.5964661429        8.4504279267
 Ga        -3.2390092764        5.5970934069       10.4464394848
  N        -3.2313771375        7.4661402163       11.0552633871
 Ga        -3.2227341137        7.4620984579       13.0540808886
  N        -3.2373778816        5.5965167765       13.6910898403
 Ga        -3.2240650504        5.5893093357       15.7287722323
  N        -3.2027374702        7.4612105423       16.2780403054
 Ga        -3.1957781021        7.4431417498       18.3345904212
  N        -3.1534777748        5.5865458764       18.8656774655
 Ga         3.2424228290       -0.0159301517        0.3246258102
  N         3.2416680440        1.8548457464        0.6058581572
 Ga         3.2696228840        1.8703227822        2.6375361026
  N         3.2427142072       -0.0154389471        3.2283606399
 Ga         3.2441982067       -0.0145897357        5.2400589421
  N         3.2448106185        1.8555923966        5.8475059232
 Ga         3.2472308438        1.8564781717        7.8468742419
  N         3.2447853204       -0.0143680985        8.4500119334
 Ga         3.2472693384       -0.0137738909       10.4455873976
  N         3.2524162199        1.8571531027       11.0515484524
 Ga         3.2597094974        1.8536649137       13.0485774262
  N         3.2546987232       -0.0157503249       13.6604416250
 Ga         3.2622015590       -0.0186409743       15.6669447429
  N         3.2847347583        1.8492633813       16.2408135810
 Ga         3.3232947135        1.8621943543       18.2685233109
  N         3.2967548032       -0.0225156747       18.7345981977
 Ga         1.6216681910        2.7905532416        0.3243170705
  N         1.6291762850        4.6604708056        0.6069646925
 Ga         1.6015806030        4.6756820503        2.6373584884
  N         1.6228909600        2.7898933501        3.2291235445
 Ga         1.6244164030        2.7910827311        5.2409924162
  N         1.6298243814        4.6612584963        5.8484994292
 Ga         1.6303124049        4.6617491837        7.8485845743
  N         1.6263744818        2.7903799728        8.4503592467
 Ga         1.6295685667        2.7918245664       10.4460263622
  N         1.6273024183        4.6626294019       11.0461602954
 Ga         1.6254818308        4.6659205181       13.0413422068
  N         1.6348746206        2.7895057749       13.6468747963
 Ga         1.6616694182        2.7878830788       15.6402270478
  N         1.6243792802        4.6637798261       16.1737390608
 Ga         1.6802549131        4.6450924128       18.1715579914
  N         1.6838953835        2.7849713654       18.6205782177
 Ga         0.0032972055        5.5956777225       -0.5449933268
  N         0.0060660045        7.4704223945        0.6065924796
 Ga         0.0062082903        7.4385589303        2.6370494904
  N         0.0031522548        5.5951903211        3.2692057324
 Ga         0.0048403682        5.5962867414        5.2597489266
  N         0.0076146808        7.4707616934        5.8480873124
 Ga         0.0089472939        7.4694850704        7.8478656650
  N         0.0049515177        5.5957444374        8.4476732891
 Ga         0.0058155851        5.5971259614       10.4451463729
  N         0.0115463060        7.4698800870       11.0443176135
 Ga         0.0137124818        7.4730657645       13.0368534742
  N         0.0032525245        5.6041868824       13.6442673592
 Ga         0.0053079380        5.5986931639       15.6422522966
  N         0.0397580709        7.4737688005       16.2585549309
 Ga         0.0558546249        7.4395365380       18.3466733194
  N         0.1396829145        5.5859726335       18.8874024691
 Ga         6.4876797873       -0.0155165218        0.3238812337
  N         6.4933600780        1.8552689947        0.6055349371
 Ga         6.4663895419        1.8701609843        2.6373322620
  N         6.4883705227       -0.0153328459        3.2290358002
 Ga         6.4899243190       -0.0146107182        5.2410130936
  N         6.4947785734        1.8559814848        5.8479040269
 Ga         6.4946929123        1.8571790164        7.8473920338
  N         6.4910615627       -0.0130565154        8.4516140179
 Ga         6.4947476702       -0.0097861318       10.4485531606
  N         6.4968607744        1.8628551422       11.0549342754
 Ga         6.5022156925        1.8684863884       13.0526857595
  N         6.4919502276       -0.0046140190       13.6322885401
 Ga         6.5099992069        0.0019843571       15.6312364580
  N         6.5171720756        1.8700147864       16.2373948546
 Ga         6.5714564431        1.8701120688       18.2810370150
  N         6.5560377438       -0.0287771370       18.6666957289
 Ga         4.8677340533        2.7914615844       -0.5370504618
  N         4.8711061314        4.6642187803        0.6063505691
 Ga         4.8709733222        4.6334103563        2.6377673843
  N         4.8684480898        2.7898999292        3.2691723351
 Ga         4.8697909662        2.7913059218        5.2597152956
  N         4.8725080187        4.6653393587        5.8482593747
 Ga         4.8729956253        4.6643366727        7.8480718310
  N         4.8711581630        2.7915246645        8.4504796803
 Ga         4.8741028759        2.7959205644       10.4496473100
  N         4.8788782274        4.6658419419       11.0581457568
 Ga         4.8796851356        4.6691406535       13.0616787923
  N         4.8754735915        2.7960842606       13.6597383620
 Ga         4.8824732445        2.7966309509       15.6772637483
  N         4.8518883405        4.6749604974       16.1520995981
 Ga         4.9428274274        4.6562577746       19.0967841103
  N         4.9440575602        2.7798338436       18.7515923850
 Ga         3.2487058748        5.5954711338        0.3238608582
  N         3.2477250417        7.4652604287        0.6072926179
 Ga         3.2760616666        7.4807959284        2.6376368873
  N         3.2488659002        5.5954879732        3.2292319740
 Ga         3.2502324676        5.5964426225        5.2409630122
  N         3.2506190261        7.4662980303        5.8494833831
 Ga         3.2532509029        7.4668495816        7.8499473453
  N         3.2515889109        5.5962293004        8.4547322506
 Ga         3.2547602492        5.5980662129       10.4541764799
  N         3.2579087755        7.4728981387       11.0475756255
 Ga         3.2588787954        7.4764351748       13.0443906012
  N         3.2452940754        5.6022953663       13.6189415295
 Ga         3.2533690097        5.6095148371       15.6240536402
  N         3.2753212569        7.4856546583       16.1592945718
 Ga         3.3206255386        7.4889006020       18.1728629174
  N         3.3823205588        5.5611641564       18.4361393702
  O         1.6326538528        5.1792688927       21.2200540539
  H         1.0045532545        5.4242500636       20.4578893018
  C         0.7941211549        3.9083240228       21.9293783284