     156
 i =        1, E =     -6136.6135183276
 Ga        -0.0031978424       -0.0158022789       -0.5364518555
  N        -0.0002786012        1.8585053840        0.6067623434
 Ga        -0.0003374158        1.8279645195        2.6382626763
  N        -0.0033936890       -0.0156209110        3.2697010719
 Ga        -0.0021780759       -0.0150483875        5.2604352155
  N         0.0008145505        1.8596431267        5.8482430213
 Ga         0.0022700477        1.8581494069        7.8481471553
  N         0.0008129302       -0.0150243197        8.4504078615
 Ga         0.0037580399       -0.0155446682       10.4496916762
  N         0.0042354846        1.8600287310       11.0428116140
 Ga         0.0094735740        1.8624596344       13.0337417757
  N         0.0153733485       -0.0091617589       13.6314132444
 Ga         0.0294165540       -0.0141985589       15.6228046236
  N         0.0179271715        1.8571108689       16.2226614251
 Ga         0.0449272642        1.8455877714       18.2871753290
  N         0.0493351434       -0.0285795756       18.7016029634
 Ga        -1.6231071659        2.7899672984        0.3239480153
  N        -1.6247661014        4.6597674206        0.6067724196
 Ga        -1.5957061429        4.6757309686        2.6367700102
  N        -1.6230441208        2.7899607752        3.2283731948
 Ga        -1.6217563863        2.7906112305        5.2399361632
  N        -1.6212849559        4.6608990195        5.8464522180
 Ga        -1.6191266709        4.6614692609        7.8451192505
  N        -1.6203701081        2.7918080237        8.4509793541
 Ga        -1.6193378898        2.7951985247       10.4470652755
  N        -1.6174529679        4.6668063129       11.0553713526
 Ga        -1.6181858161        4.6710667335       13.0528795382
  N        -1.6080776893        2.7998672097       13.6570691950
 Ga        -1.5987931366        2.8144816322       15.6605029475
  N        -1.5868495827        4.6826807779       16.3080758273
 Ga        -1.5162729715        4.6820924507       18.3861608553
  N        -1.5541782511        2.7874689797       18.7611334682
 Ga        -3.2436886559        5.5954633241        0.3238699163
  N        -3.2373620527        7.4661365571        0.6070057083
 Ga        -3.2642517344        7.4807487272        2.6383910052
  N        -3.2426870817        5.5951287374        3.2287062442
 Ga        -3.2419128610        5.5960198778        5.2401588421
  N        -3.2358046820        7.4663016667        5.8469418358
 Ga        -3.2358943299        7.4670905763        7.8460460806
  N        -3.2398918303        5.5961768172        8.4492611637
 Ga        -3.2389145985        5.5972447241       10.4447578078
  N        -3.2308385320        7.4658341181       11.0557903018
 Ga        -3.2221212946        7.4631563033       13.0543421541
  N        -3.2349486315        5.5978379043       13.6933091041
 Ga        -3.2234016912        5.5926763290       15.7300618209
  N        -3.2108038906        7.4768444474       16.2670732239
 Ga        -3.1851886659        7.4475596456       18.3254716263
  N        -3.1677590350        5.5840390033       18.8530956176
 Ga         3.2426494945       -0.0154343795        0.3242429192
  N         3.2413519571        1.8547487876        0.6063896664
 Ga         3.2696153109        1.8704398125        2.6372285815
  N         3.2427340796       -0.0153508657        3.2283667273
 Ga         3.2439940839       -0.0146186155        5.2400341037
  N         3.2446371473        1.8555258841        5.8474524143
 Ga         3.2470763651        1.8562874153        7.8468194495
  N         3.2448970288       -0.0146822184        8.4496121405
 Ga         3.2477450022       -0.0140220671       10.4452006323
  N         3.2515186661        1.8569231972       11.0515363753
 Ga         3.2583337366        1.8541414256       13.0488209940
  N         3.2574342855       -0.0165629450       13.6600731700
 Ga         3.2707357147       -0.0175103737       15.6657410123
  N         3.2831811648        1.8572421665       16.2273619998
 Ga         3.3194241005        1.8615585455       18.2514912054
  N         3.3069641228       -0.0251636823       18.7089063246
 Ga         1.6221774477        2.7906708681        0.3238490601
  N         1.6292749754        4.6604008590        0.6070814594
 Ga         1.6011629390        4.6758697056        2.6371202981
  N         1.6228510251        2.7900841708        3.2291095979
 Ga         1.6242679336        2.7909415411        5.2409711370
  N         1.6297250113        4.6611497074        5.8483647333
 Ga         1.6301940735        4.6615513861        7.8482286333
  N         1.6260797963        2.7902758492        8.4494081499
 Ga         1.6295201698        2.7918673820       10.4449294378
  N         1.6277603379        4.6623395893       11.0491385464
 Ga         1.6293608072        4.6639960695       13.0445498897
  N         1.6317013225        2.7873346032       13.6465657946
 Ga         1.6515918477        2.7821747186       15.6409173307
  N         1.6310884686        4.6643790976       16.1830865662
 Ga         1.6804303026        4.6396506436       18.1815402251
  N         1.6847324929        2.7765894148       18.6387285615
 Ga         0.0031189953        5.5957756341       -0.5466128161
  N         0.0059559600        7.4707165379        0.6067545979
 Ga         0.0060700746        7.4383027531        2.6368540491
  N         0.0030077352        5.5951903767        3.2696388659
 Ga         0.0046852596        5.5962025416        5.2598571834
  N         0.0074662782        7.4707234680        5.8476994229
 Ga         0.0089031982        7.4693576929        7.8472241617
  N         0.0049556827        5.5957082754        8.4471867147
 Ga         0.0066558687        5.5972292539       10.4444690980
  N         0.0117114931        7.4693991701       11.0455043808
 Ga         0.0150029153        7.4716942497       13.0378133515
  N         0.0060912972        5.6025201746       13.6456506984
 Ga         0.0062695823        5.6018090776       15.6417124028
  N         0.0367133943        7.4652707095       16.2696241622
 Ga         0.0749097311        7.4315562381       18.3577750746
  N         0.1447820959        5.5785679593       18.9133000224
 Ga         6.4872093938       -0.0150003082        0.3234609797
  N         6.4934513202        1.8551894686        0.6060538717
 Ga         6.4661126792        1.8702821537        2.6370229177
  N         6.4881143913       -0.0152736337        3.2289711840
 Ga         6.4897830251       -0.0146331166        5.2409121699
  N         6.4945504094        1.8559069016        5.8479066785
 Ga         6.4944566288        1.8568835417        7.8474112008
  N         6.4910006788       -0.0135621030        8.4512907932
 Ga         6.4945508715       -0.0112315240       10.4478946413
  N         6.4965214049        1.8610886143       11.0533192620
 Ga         6.5005087845        1.8656172379       13.0504419663
  N         6.4901009449       -0.0071072295       13.6390267654
 Ga         6.5083808916        0.0007813740       15.6399781780
  N         6.5176956714        1.8748729841       16.2269766387
 Ga         6.5713363051        1.8781609496       18.2681449646
  N         6.5633740572       -0.0203664077       18.6565680057
 Ga         4.8675852326        2.7916215935       -0.5410880866
  N         4.8709831155        4.6645075461        0.6069299712
 Ga         4.8708296918        4.6332745944        2.6374968968
  N         4.8683022412        2.7899133960        3.2693506352
 Ga         4.8695891893        2.7911528746        5.2596010425
  N         4.8722204069        4.6651917815        5.8480838261
 Ga         4.8727626525        4.6639919060        7.8477037801
  N         4.8709480284        2.7914271083        8.4502951575
 Ga         4.8737785581        2.7954797884       10.4496467865
  N         4.8796388725        4.6660152831       11.0587245602
 Ga         4.8815053946        4.6696016249       13.0612873810
  N         4.8756723360        2.7955134066       13.6537840784
 Ga         4.8836632604        2.8009938851       15.6664919014
  N         4.8628825166        4.6728251141       16.1695399558
 Ga         4.9222306830        4.6630427792       19.1294781201
  N         4.9390304669        2.7873059857       18.7416437347
 Ga         3.2488480674        5.5949538827        0.3234104878
  N         3.2480107321        7.4655248091        0.6065019210
 Ga         3.2755328029        7.4806111035        2.6379528324
  N         3.2486429727        5.5953693833        3.2291442186
 Ga         3.2500511814        5.5963616307        5.2407972812
  N         3.2504808264        7.4661876438        5.8493711166
 Ga         3.2531468224        7.4666465052        7.8497122624
  N         3.2514869034        5.5959987859        8.4549129457
 Ga         3.2549376838        5.5976390714       10.4540282889
  N         3.2566673445        7.4714246518       11.0513059064
 Ga         3.2576722519        7.4726995890       13.0485136901
  N         3.2491104501        5.5980177928       13.6304925919
 Ga         3.2579377797        5.6064488764       15.6362066310
  N         3.2802678970        7.4876737580       16.1573524302
 Ga         3.3283018932        7.4919860262       18.1708032539
  N         3.3639826631        5.5701831406       18.4670236321
  O         1.8273727178        4.9605860132       21.1641551328
  H         1.0647558028        5.3644776338       20.5628129582
  C         0.8964655728        4.0479100825       21.8467479349
  H         0.1426632827        3.5618341656       21.2033606582
  H         1.5348390707        3.2245500386       22.1818932307
  H         0.3342392388        4.3677569360       22.7396452059
  O         4.0513716959        4.7114749895       21.0611204951
  H         3.0261943844        4.8794749285       21.1176969196
  C         4.5387904976        3.6275328215       21.9206672753
  H         4.1240826094        2.6744654987       21.5650925085
  H         5.6306548838        3.5051600537       21.9648459594
  H         4.1839991037        3.8065737584       22.9433135054
     156
 i =        2, E =     -6136.6554848140
 Ga        -0.0031990031       -0.0158316570       -0.5388281017
  N        -0.0002613336        1.8585340309        0.6071193680
 Ga        -0.0003081695        1.8279738171        2.6382977189
  N        -0.0033618846       -0.0156149871        3.2697770088
 Ga        -0.0021560823       -0.0150476337        5.2603574642
  N         0.0008460957        1.8597031330        5.8483844695
 Ga         0.0023529176        1.8581790484        7.8482995943
  N         0.0008739097       -0.0150147163        8.4504247350
 Ga         0.0038242193       -0.0157168315       10.4495722122
  N         0.0043315214        1.8600229101       11.0422130484
 Ga         0.0099137603        1.8620397142       13.0328686791
  N         0.0155403874       -0.0087562416       13.6343168150
 Ga         0.0313234088       -0.0202670311       15.6268335035
  N         0.0218358685        1.8572211487       16.2201558877
 Ga         0.0450762149        1.8482017404       18.2858245281
  N         0.0469442344       -0.0248323392       18.6971818653
 Ga        -1.6229759382        2.7898382624        0.3239554585
  N        -1.6247724692        4.6597461873        0.6066527718
 Ga        -1.5957196033        4.6757084572        2.6367363587
  N        -1.6230700124        2.7899681556        3.2283212150
 Ga        -1.6217529989        2.7906467622        5.2398050260
  N        -1.6212480049        4.6609153917        5.8465758929
 Ga        -1.6190857325        4.6616313262        7.8452738198
  N        -1.6203681577        2.7918751420        8.4511682369
 Ga        -1.6194380950        2.7954083176       10.4471627976
  N        -1.6175279405        4.6668674455       11.0554058486
 Ga        -1.6183491690        4.6712132272       13.0531264750
  N        -1.6067271876        2.7996636118       13.6598709365
 Ga        -1.6012702763        2.8163476966       15.6647160728
  N        -1.5864908430        4.6837062025       16.3124873310
 Ga        -1.5129364606        4.6824721461       18.3895000072
  N        -1.5535829416        2.7881386839       18.7537892901
 Ga        -3.2437207628        5.5956230175        0.3238734665
  N        -3.2373026628        7.4661177795        0.6073759858
 Ga        -3.2642105492        7.4807230317        2.6384484048
  N        -3.2426723841        5.5950532850        3.2286657436
 Ga        -3.2419015270        5.5960160175        5.2400567351
  N        -3.2357477508        7.4663169675        5.8470295164
 Ga        -3.2358229288        7.4670772496        7.8461358409
  N        -3.2398774362        5.5962225895        8.4496202525
 Ga        -3.2390109165        5.5972726095       10.4451588500
  N        -3.2308900259        7.4659111580       11.0556712623
 Ga        -3.2221030162        7.4628801662       13.0545744810
  N        -3.2360983881        5.5970623457       13.6925018913
 Ga        -3.2229656934        5.5916715078       15.7297807181
  N        -3.2070960788        7.4720611711       16.2721322525
 Ga        -3.1881302280        7.4458571202       18.3295074932
  N        -3.1629319977        5.5828757594       18.8543267644
 Ga         3.2425100254       -0.0154788326        0.3242558443
  N         3.2415209388        1.8548316896        0.6063811155
 Ga         3.2696439051        1.8704295528        2.6372848849
  N         3.2428057617       -0.0153166557        3.2283229395
 Ga         3.2440507445       -0.0145909096        5.2399259645
  N         3.2446736883        1.8555483941        5.8475472323
 Ga         3.2471620691        1.8563032199        7.8468833525
  N         3.2448746108       -0.0146130903        8.4498717729
 Ga         3.2477217880       -0.0140705972       10.4454340361
  N         3.2517381143        1.8569702660       11.0513819221
 Ga         3.2586077515        1.8538572010       13.0487568282
  N         3.2574456497       -0.0166002669       13.6600642699
 Ga         3.2684947536       -0.0188799218       15.6659580697
  N         3.2839024145        1.8534297826       16.2328810669
 Ga         3.3212176639        1.8610675952       18.2582067755
  N         3.3047186226       -0.0255287115       18.7154906491
 Ga         1.6220855901        2.7905474390        0.3238732079
  N         1.6293219681        4.6603769114        0.6069888296
 Ga         1.6012388844        4.6758393881        2.6371063366
  N         1.6229357559        2.7900802355        3.2290617131
 Ga         1.6243335114        2.7909832074        5.2408440726
  N         1.6297416979        4.6611613846        5.8484802774
 Ga         1.6302732730        4.6616886085        7.8483863763
  N         1.6261954711        2.7903437552        8.4496384670
 Ga         1.6297448574        2.7921937469       10.4451098897
  N         1.6278328345        4.6624734761       11.0488691198
 Ga         1.6287520198        4.6649247024       13.0445556071
  N         1.6316461968        2.7876329966       13.6467121716
 Ga         1.6563307495        2.7860227144       15.6410395985
  N         1.6280052445        4.6647907229       16.1823658013
 Ga         1.6775328020        4.6405573844       18.1789590671
  N         1.6845752849        2.7784088894       18.6320071689
 Ga         0.0031545300        5.5957662953       -0.5459061222
  N         0.0059741429        7.4707328336        0.6066571426
 Ga         0.0060960781        7.4383427432        2.6368321307
  N         0.0030362912        5.5951861364        3.2694553800
 Ga         0.0047250177        5.5962239748        5.2597076990
  N         0.0074917743        7.4707297063        5.8478858785
 Ga         0.0089366455        7.4693641400        7.8474833797
  N         0.0050026189        5.5956931156        8.4475638241
 Ga         0.0067106400        5.5972281540       10.4448979101
  N         0.0116882146        7.4694765015       11.0448275991
 Ga         0.0151152718        7.4717213162       13.0369420203
  N         0.0054352952        5.6030899892       13.6448546929
 Ga         0.0067894347        5.6011948510       15.6410165746
  N         0.0380546699        7.4671752730       16.2664782907
 Ga         0.0699731096        7.4307510432       18.3551403688
  N         0.1439079655        5.5807259641       18.9163348157
 Ga         6.4873879330       -0.0150483007        0.3234835883
  N         6.4933240938        1.8552683771        0.6060541544
 Ga         6.4661343039        1.8702710331        2.6370824642
  N         6.4880845860       -0.0152303941        3.2289497592
 Ga         6.4898021732       -0.0146145184        5.2408337582
  N         6.4945912561        1.8559332853        5.8480201356
 Ga         6.4944157754        1.8568596120        7.8475144018
  N         6.4910315734       -0.0134996710        8.4515348809
 Ga         6.4945944284       -0.0111801514       10.4481655036
  N         6.4964332057        1.8612782761       11.0532371487
 Ga         6.5011365433        1.8657163267       13.0505852647
  N         6.4903575230       -0.0067703749       13.6371334941
 Ga         6.5095895454       -0.0001282676       15.6375212833
  N         6.5159733390        1.8727431170       16.2300919562
 Ga         6.5722098094        1.8759452718       18.2717688175
  N         6.5596580315       -0.0225280979       18.6597616649
 Ga         4.8676157056        2.7915896430       -0.5405575765
  N         4.8710080986        4.6643199304        0.6069204891
 Ga         4.8708516063        4.6332695761        2.6375592548
  N         4.8683285045        2.7899028792        3.2692561132
 Ga         4.8696267516        2.7911934352        5.2594831488
  N         4.8722783540        4.6651971291        5.8482214797
 Ga         4.8727521876        4.6640933540        7.8478546351
  N         4.8709738133        2.7914909221        8.4504130578
 Ga         4.8738136983        2.7956888604       10.4496140778
  N         4.8794749291        4.6659955079       11.0583230903
 Ga         4.8806125967        4.6698704811       13.0608834058
  N         4.8759799328        2.7960771517       13.6548366500
 Ga         4.8825555398        2.8012389232       15.6691555760
  N         4.8600597403        4.6744310881       16.1647459332
 Ga         4.9239464189        4.6642744987       19.1171647986
  N         4.9410176469        2.7874817303       18.7415087637
 Ga         3.2489167732        5.5950989727        0.3234317245
  N         3.2479873446        7.4654899475        0.6069134697
 Ga         3.2755358691        7.4805808891        2.6380463877
  N         3.2486823803        5.5952921978        3.2291383340
 Ga         3.2501088966        5.5963530568        5.2407445117
  N         3.2504956519        7.4662030502        5.8495051393
 Ga         3.2531258722        7.4666005310        7.8498981114
  N         3.2515292196        5.5960170555        8.4551353356
 Ga         3.2548763048        5.5977452097       10.4542732318
  N         3.2567682581        7.4715941349       11.0503211623
 Ga         3.2575626874        7.4733282218       13.0475265759
  N         3.2486577848        5.5993104361       13.6280854292
 Ga         3.2554024855        5.6065119611       15.6335196624
  N         3.2795396984        7.4860767483       16.1582293419
 Ga         3.3259229994        7.4934363477       18.1711751152
  N         3.3650167347        5.5698852389       18.4538280661
  O         1.6626171524        4.9996646773       21.2079751891
  H         1.0742433958        5.4041439867       20.4819577659
  C         0.8870496763        3.9753051579       21.8799647750
  H         0.1438670172        3.5716737636       21.1715119547
  H         1.5651115302        3.1821364082       22.2020691256
  H         0.3480823421        4.4091849132       22.7419126472
  O         4.1399494845        4.7158360256       21.0703106704
  H         3.0892749668        4.8618221267       21.1239617248
  C         4.5263021365        3.6108913907       21.9336490984
  H         4.1192215088        2.6609032039       21.5615236944
  H         5.6232177263        3.5264817961       21.9489792668
  H         4.1787260517        3.8121550683       22.9543711195
     156
 i =        3, E =     -6136.6569803143
 Ga        -0.0031978935       -0.0158337907       -0.5396392745
  N        -0.0002360951        1.8585707584        0.6069943056
 Ga        -0.0002539976        1.8276553260        2.6380262340
  N        -0.0033251526       -0.0156429706        3.2700565773
 Ga        -0.0021168690       -0.0150140071        5.2604880293
  N         0.0009128202        1.8597514508        5.8484952121
 Ga         0.0024764012        1.8583181794        7.8484649705
  N         0.0010180764       -0.0149867455        8.4499527647
 Ga         0.0041684021       -0.0153018356       10.4490033179
  N         0.0043373249        1.8599729992       11.0449026126
 Ga         0.0107295365        1.8618361001       13.0365092426
  N         0.0165437954       -0.0091948259       13.6372803439
 Ga         0.0330745875       -0.0238164459       15.6303614885
  N         0.0245046850        1.8566525103       16.2193664533
 Ga         0.0464743078        1.8500831903       18.2832517105
  N         0.0439466235       -0.0218994096       18.6926736154
 Ga        -1.6227223941        2.7899486779        0.3242458818
  N        -1.6246293010        4.6597897461        0.6067219150
 Ga        -1.5958373130        4.6756283235        2.6368508129
  N        -1.6228903860        2.7898019591        3.2283193483
 Ga        -1.6216852285        2.7907151628        5.2399301293
  N        -1.6211782892        4.6609956088        5.8467124681
 Ga        -1.6190472742        4.6617818747        7.8454933779
  N        -1.6203174335        2.7919743433        8.4510983622
 Ga        -1.6191585724        2.7954195661       10.4470439172
  N        -1.6176584440        4.6666070794       11.0557670817
 Ga        -1.6188730065        4.6705849260       13.0535907493
  N        -1.6061013071        2.7995943841       13.6627575285
 Ga        -1.6015637938        2.8157993051       15.6678734521
  N        -1.5871839143        4.6816625116       16.3154643739
 Ga        -1.5127487980        4.6847206970       18.3947349128
  N        -1.5523366034        2.7876940391       18.7443696170
 Ga        -3.2434583905        5.5957391682        0.3241795827
  N        -3.2371935560        7.4660811052        0.6072278755
 Ga        -3.2644288001        7.4808508796        2.6381580364
  N        -3.2427112625        5.5952416778        3.2286374093
 Ga        -3.2418311349        5.5960385544        5.2401284476
  N        -3.2356864521        7.4663483552        5.8470494801
 Ga        -3.2356703629        7.4670530874        7.8461838602
  N        -3.2398209890        5.5963281515        8.4498916382
 Ga        -3.2390183752        5.5972477458       10.4456524083
  N        -3.2310650134        7.4660430029       11.0554370141
 Ga        -3.2223744144        7.4624401074       13.0544113541
  N        -3.2364800167        5.5967539248       13.6923967431
 Ga        -3.2231758477        5.5905920336       15.7304464430
  N        -3.2049625274        7.4674968677       16.2750237017
 Ga        -3.1921176318        7.4430262831       18.3322396153
  N        -3.1641235033        5.5813757320       18.8618000287
 Ga         3.2425632827       -0.0157295728        0.3245484531
  N         3.2414358800        1.8547562573        0.6060470223
 Ga         3.2696245760        1.8703851439        2.6373115426
  N         3.2426389411       -0.0153747701        3.2282976759
 Ga         3.2441339160       -0.0145971972        5.2399987917
  N         3.2447164941        1.8555564536        5.8475959214
 Ga         3.2472138299        1.8563206313        7.8469899930
  N         3.2448481690       -0.0145363287        8.4499125588
 Ga         3.2475700125       -0.0139174675       10.4455187237
  N         3.2519142393        1.8570915284       11.0514143366
 Ga         3.2592287248        1.8535030008       13.0487119891
  N         3.2563065633       -0.0164566624       13.6606956110
 Ga         3.2660701934       -0.0186616115       15.6671460173
  N         3.2842674709        1.8517719570       16.2367318706
 Ga         3.3230851699        1.8617067944       18.2632827364
  N         3.3010582346       -0.0250957000       18.7242202151
 Ga         1.6218963986        2.7906590787        0.3241972525
  N         1.6292388763        4.6604164266        0.6070883311
 Ga         1.6014594428        4.6757384284        2.6372306876
  N         1.6228469544        2.7899184255        3.2290508549
 Ga         1.6243731177        2.7910466850        5.2409251969
  N         1.6297758418        4.6612174035        5.8485487308
 Ga         1.6302796089        4.6617680956        7.8485184526
  N         1.6263539393        2.7904493253        8.4497157272
 Ga         1.6296525365        2.7920713521       10.4452718573
  N         1.6277652566        4.6625314518       11.0477007326
 Ga         1.6273690626        4.6651012466       13.0432272630
  N         1.6333783373        2.7883807047       13.6471497096
 Ga         1.6583939604        2.7865310431       15.6410721845
  N         1.6258095598        4.6642528821       16.1766723009
 Ga         1.6778231432        4.6407948834       18.1717767655
  N         1.6845838578        2.7805684396       18.6262558380
 Ga         0.0032197780        5.5957547785       -0.5465609268
  N         0.0060065736        7.4705927766        0.6067690064
 Ga         0.0061365316        7.4385172597        2.6369738383
  N         0.0030924313        5.5951821557        3.2692976773
 Ga         0.0047834625        5.5962635962        5.2597277657
  N         0.0075450004        7.4707402384        5.8480836491
 Ga         0.0089046054        7.4693775202        7.8477804475
  N         0.0050486578        5.5957160395        8.4475742342
 Ga         0.0064207540        5.5971108659       10.4449785947
  N         0.0116657289        7.4695627104       11.0443158626
 Ga         0.0145466347        7.4725868505       13.0365656302
  N         0.0045545859        5.6037432496       13.6437875269
 Ga         0.0059785006        5.5999510269       15.6402179748
  N         0.0392920902        7.4689341387       16.2627329114
 Ga         0.0646381642        7.4334995090       18.3518129063
  N         0.1488226922        5.5836648077       18.9197045668
 Ga         6.4874078510       -0.0153040709        0.3238004208
  N         6.4934743530        1.8551932909        0.6057201014
 Ga         6.4662265304        1.8702114150        2.6371060618
  N         6.4883227267       -0.0152877590        3.2289425529
 Ga         6.4898354615       -0.0146349877        5.2409144706
  N         6.4946512252        1.8559190341        5.8480676784
 Ga         6.4944560155        1.8569402113        7.8476317855
  N         6.4910280885       -0.0134066291        8.4513538402
 Ga         6.4946147032       -0.0106385269       10.4481102521
  N         6.4967081611        1.8617931286       11.0541292681
 Ga         6.5012916328        1.8668755491       13.0518748129
  N         6.4910694315       -0.0061090800       13.6349989573
 Ga         6.5097508518        0.0012348104       15.6349837918
  N         6.5167699236        1.8719590000       16.2335912747
 Ga         6.5707413252        1.8745782416       18.2759201376
  N         6.5579841235       -0.0244235641       18.6644696501
 Ga         4.8676566067        2.7915312873       -0.5387861321
  N         4.8710471736        4.6644352278        0.6065664961
 Ga         4.8708811249        4.6333393326        2.6375688858
  N         4.8683719097        2.7899092526        3.2691514730
 Ga         4.8696852775        2.7912366893        5.2595881784
  N         4.8723379792        4.6652581682        5.8482878566
 Ga         4.8728410052        4.6642035477        7.8480271522
  N         4.8710010628        2.7915439423        8.4503975831
 Ga         4.8739693837        2.7956739689       10.4496662679
  N         4.8791795039        4.6659406224       11.0581383273
 Ga         4.8803600013        4.6697491635       13.0611822176
  N         4.8754731046        2.7964176304       13.6569671179
 Ga         4.8827798225        2.7988217360       15.6726621180
  N         4.8560531978        4.6744314854       16.1573370111
 Ga         4.9208564361        4.6642551063       19.1283246411
  N         4.9418949177        2.7889959724       18.7460020214
 Ga         3.2487178099        5.5951975351        0.3237708675
  N         3.2479453436        7.4654353298        0.6068219726
 Ga         3.2758211009        7.4807014490        2.6377964387
  N         3.2487994538        5.5954822949        3.2291459355
 Ga         3.2501414242        5.5963852539        5.2408427641
  N         3.2505398028        7.4662322759        5.8495504992
 Ga         3.2531367980        7.4666382712        7.8500106023
  N         3.2515325343        5.5960670056        8.4548641145
 Ga         3.2548372761        5.5979237167       10.4541142794
  N         3.2571171867        7.4721008080       11.0493324719
 Ga         3.2582811362        7.4744287828       13.0466186533
  N         3.2471477052        5.6002583320       13.6244521433
 Ga         3.2541638342        5.6084502508       15.6299706057
  N         3.2780657247        7.4866808807       16.1573247468
 Ga         3.3235822104        7.4935104241       18.1699788778
  N         3.3700152151        5.5678644443       18.4400148145
  O         1.6785395132        5.0161851421       21.2214914940
  H         1.0856870863        5.3907275066       20.4842457744
  C         0.8867753470        3.9856409794       21.8644189988