     156
 i =      253, E =     -6136.8200031343
 Ga         0.0552109662       -0.1328338954       -0.6415244465
  N         0.0589554919        1.7428868144        0.5143943255
 Ga         0.0583530796        1.7098117204        2.5421015375
  N         0.0553899681       -0.1341974015        3.1758357369
 Ga         0.0554824274       -0.1339251162        5.1634977189
  N         0.0585985297        1.7398211806        5.7566805406
 Ga         0.0581647939        1.7372120877        7.7527547047
  N         0.0562167000       -0.1361145628        8.3595126442
 Ga         0.0572941416       -0.1357991122       10.3545121132
  N         0.0574704514        1.7341261613       10.9654948373
 Ga         0.0537124856        1.7343213919       12.9654449935
  N         0.0559754094       -0.1348356351       13.5873823972
 Ga         0.0876478521       -0.1124610513       15.6111953737
  N         0.0743989496        1.7557497061       16.1825819739
 Ga         0.0394574344        1.7882622359       18.3470408210
  N         0.0851826155       -0.0843291300       18.7961956832
 Ga        -1.5634960300        2.6720673317        0.2280917484
  N        -1.5658250482        4.5414658663        0.5138899198
 Ga        -1.5369785782        4.5568838428        2.5417275150
  N        -1.5640604910        2.6714645114        3.1376913754
 Ga        -1.5639263178        2.6712868983        5.1457078031
  N        -1.5635534136        4.5417336323        5.7563814480
 Ga        -1.5632474928        4.5404230236        7.7520584485
  N        -1.5635091075        2.6705225922        8.3605822932
 Ga        -1.5619771690        2.6698245266       10.3535814283
  N        -1.5662211484        4.5446134076       10.9615248193
 Ga        -1.5653860277        4.5349660130       12.9518226560
  N        -1.5571293147        2.6817565305       13.5700535752
 Ga        -1.5267775743        2.6978079255       15.5892971518
  N        -1.5586740789        4.5812850761       16.2133336019
 Ga        -1.5721483126        4.6055989582       18.2979917119
  N        -1.5718297656        2.7676596915       18.7075911777
 Ga        -3.1840586118        5.4779786821        0.2285967042
  N        -3.1762611976        7.3474970238        0.5141698669
 Ga        -3.2049604771        7.3624498597        2.5420242939
  N        -3.1837343850        5.4767325035        3.1367896812
 Ga        -3.1836068457        5.4766221738        5.1444071370
  N        -3.1788471419        7.3468196743        5.7550360734
 Ga        -3.1808386855        7.3456189064        7.7499587049
  N        -3.1854199949        5.4751572321        8.3588459192
 Ga        -3.1852826924        5.4773943913       10.3490627795
  N        -3.1833074021        7.3421001058       10.9731707772
 Ga        -3.1891284423        7.3508683921       12.9708485008
  N        -3.2002936686        5.4634563878       13.5988944458
 Ga        -3.0842756996        5.5545134544       15.5735000400
  N        -3.1875612512        7.3411449998       16.2330474476
 Ga        -3.1227379473        7.4673785673       18.3794547722
  N        -2.8797393409        5.7098537226       19.1159408181
 Ga         3.3019301069       -0.1335429903        0.2283432684
  N         3.2990875602        1.7358370170        0.5144123919
 Ga         3.3280660982        1.7512884590        2.5420874690
  N         3.3013214200       -0.1339810038        3.1378324895
 Ga         3.3018227440       -0.1339085584        5.1458082429
  N         3.3017788690        1.7358849584        5.7583659687
 Ga         3.3020934407        1.7343505568        7.7551583489
  N         3.2991720580       -0.1380522171        8.3607177327
 Ga         3.2985546284       -0.1409628679       10.3538879259
  N         3.3015547542        1.7315483243       10.9531604427
 Ga         3.2925129769        1.7189469064       12.9414030357
  N         3.2957931470       -0.1420714067       13.5781004651
 Ga         3.2989287449       -0.1560829590       15.6037650665
  N         3.3006712428        1.7474525073       16.1219553885
 Ga         3.1087770177        1.7004415261       18.1120890512
  N         3.3783037121       -0.0195353487       18.6937368784
 Ga         1.6811624423        2.6728129673        0.2286134728
  N         1.6890830650        4.5421284857        0.5148736889
 Ga         1.6602574106        4.5572069963        2.5424226415
  N         1.6816130136        2.6713786176        3.1377999668
 Ga         1.6818310477        2.6713776512        5.1458787030
  N         1.6865114473        4.5415877817        5.7566744390
 Ga         1.6841622935        4.5400655784        7.7524695017
  N         1.6804018056        2.6699804580        8.3609588831
 Ga         1.6785994109        2.6685536342       10.3539675155
  N         1.6858604636        4.5447230509       10.9562849601
 Ga         1.6799136776        4.5404805694       12.9421860686
  N         1.6835865805        2.6753189871       13.5414686879
 Ga         1.6654963496        2.6585877566       15.5276939663
  N         1.6750572315        4.5635545084       16.1308231873
 Ga         1.4545836420        4.3926572098       18.0546863475
  N         1.7000648985        2.7281861399       18.7839424963
 Ga         0.0630920303        5.4793299610       -0.6418871468
  N         0.0652072098        7.3538764724        0.5150924486
 Ga         0.0648589861        7.3206469400        2.5424281035
  N         0.0616466257        5.4768209129        3.1766561797
 Ga         0.0620096522        5.4771941691        5.1646662283
  N         0.0649307492        7.3510726200        5.7574199105
 Ga         0.0642803197        7.3481095724        7.7536190573
  N         0.0605873562        5.4748694966        8.3590440454
 Ga         0.0595112912        5.4791473771       10.3534352522
  N         0.0641030809        7.3488001680       10.9619277884
 Ga         0.0617639784        7.3536001419       12.9571272325
  N         0.0577445036        5.4744649783       13.5479953223
 Ga         0.0384364483        5.5185163832       15.5337245282
  N         0.0794288022        7.3523753174       16.1470511513
 Ga         0.1001401722        7.5016139795       18.2025386567
  N         0.1564718190        5.5834633734       18.7424809424
 Ga         6.5464323726       -0.1329857864        0.2280405606
  N         6.5545006673        1.7363372591        0.5145256214
 Ga         6.5256907972        1.7511838051        2.5422240969
  N         6.5468482567       -0.1339746849        3.1381240381
 Ga         6.5470152910       -0.1341038796        5.1460669871
  N         6.5522871790        1.7358686372        5.7578812113
 Ga         6.5515108777        1.7346961897        7.7543968581
  N         6.5473331762       -0.1367781050        8.3620072225
 Ga         6.5484509236       -0.1373405920       10.3560583501
  N         6.5544100789        1.7347980773       10.9595678094
 Ga         6.5730464915        1.7307621404       12.9527367209
  N         6.5554063049       -0.1428253224       13.5560828423
 Ga         6.5526520664       -0.1447234076       15.5606513774
  N         6.5752577019        1.7381516192       16.0905853394
 Ga         6.6588023225        1.8275364972       18.1001294974
  N         6.5356119597        0.0202583189       18.6895075833
 Ga         4.9274203240        2.6725714005       -0.6413982439
  N         4.9301831536        4.5481717893        0.5146883797
 Ga         4.9296778985        4.5148856729        2.5423164320
  N         4.9270975130        2.6708967271        3.1767042058
 Ga         4.9271963619        2.6704125590        5.1648437560
  N         4.9300769255        4.5450273686        5.7554738736
 Ga         4.9298204801        4.5410337326        7.7504710391
  N         4.9272707947        2.6692515166        8.3599835614
 Ga         4.9285101647        2.6650398560       10.3542855617
  N         4.9287975766        4.5415943032       10.9605488667
 Ga         4.9281455870        4.5348357279       12.9421887893
  N         4.9261030221        2.6596714516       13.5219528560
 Ga         4.9436960290        2.5417485303       15.4753874366
  N         4.8337148241        4.4086915595       16.2136619970
 Ga         5.3046246380        4.9162083195       19.6041930391
  N         4.9914467989        3.3526882019       18.3006232945
 Ga         3.3077756768        5.4776224389        0.2285107409
  N         3.3051920863        7.3468432705        0.5144932801
 Ga         3.3337189012        7.3621953891        2.5421202415
  N         3.3074004322        5.4768583663        3.1377481762
 Ga         3.3071691836        5.4769159602        5.1456033225
  N         3.3082314848        7.3470822707        5.7564477866
 Ga         3.3092553585        7.3465708571        7.7519553097
  N         3.3077192222        5.4746544022        8.3570288420
 Ga         3.3074140579        5.4771380205       10.3461554515
  N         3.3139177782        7.3436148285       10.9633087467
 Ga         3.3218588164        7.3546065985       12.9550660313
  N         3.3128190051        5.4713623903       13.5742080446
 Ga         3.2515062686        5.5354724507       15.5377797494
  N         3.3272650296        7.3403475422       16.2009184462
 Ga         3.3287510330        7.7610788869       18.1651620046
  N         4.7031582359        4.3845546369       17.5512526380
  O         1.1173038549        4.7142247838       21.4006479539
  H         0.2546624779        5.4957999512       19.7729485432
  C         0.5674837128        3.4745973111       21.8864227686
  H         0.8494491807        2.6323315179       21.2383407521
  H         0.8958282849        3.2730782517       22.9173500010
  H        -0.5249976810        3.5731673251       21.8718994023
  O         3.7887982410        5.2812797445       20.5405175962
  H         2.0414715225        4.5512325308       21.1132747596
  C         3.8482639827        6.4019525054       21.4760735469
  H         4.3421769582        6.0929289934       22.4074494034
  H         4.3692538347        7.2677591064       21.0397455567
  H         2.8098691923        6.6842364649       21.6951342836
     156
 i =      127, E =     -6136.6612525119
 Ga         0.0021422000       -0.0261488046       -0.5396983419
  N         0.0050648757        1.8481033692        0.6030102141
 Ga         0.0045872462        1.8168269580        2.6344140479
  N         0.0014917233       -0.0267225255        3.2654295155
 Ga         0.0018345710       -0.0261529235        5.2558624555
  N         0.0048778429        1.8484627492        5.8438036114
 Ga         0.0058360757        1.8454765328        7.8433433666
  N         0.0048621765       -0.0273768001        8.4442032908
 Ga         0.0069790139       -0.0282042055       10.4422691465
  N         0.0054014511        1.8442365276       11.0443638802
 Ga         0.0123362542        1.8400833768       13.0384254663
  N         0.0206437336       -0.0325936254       13.6323634240
 Ga         0.0389982144       -0.0545403446       15.6255734951
  N         0.0355966384        1.8266492163       16.2010590618
 Ga         0.0582250140        1.8076330337       18.2547717426
  N         0.0489127851       -0.0645418628       18.6581680393
 Ga        -1.6180124953        2.7785775090        0.3206779938
  N        -1.6184405351        4.6489131436        0.6027852816
 Ga        -1.5909712061        4.6643662831        2.6340704424
  N        -1.6178975891        2.7788011527        3.2245433199
 Ga        -1.6175487852        2.7793561387        5.2358667945
  N        -1.6173062059        4.6492518980        5.8424151558
 Ga        -1.6165151943        4.6488529972        7.8409030515
  N        -1.6169230607        2.7786827203        8.4474480666
 Ga        -1.6173685825        2.7797656983       10.4434974415
  N        -1.6184730187        4.6499265360       11.0516379280
 Ga        -1.6227204739        4.6478270198       13.0496276852
  N        -1.6045414219        2.7789262076       13.6656817530
 Ga        -1.5989713661        2.7906090942       15.6751797594
  N        -1.5903381335        4.6557487107       16.3076375039
 Ga        -1.4896147079        4.6466582919       18.3884489010
  N        -1.5360395358        2.7466109644       18.6995075472
 Ga        -3.2383519585        5.5840752326        0.3207614901
  N        -3.2312791333        7.4546788454        0.6029406091
 Ga        -3.2592814505        7.4697748010        2.6343239345
  N        -3.2377163452        5.5841653244        3.2246513110
 Ga        -3.2376774277        5.5843117068        5.2360793531
  N        -3.2316859586        7.4548116687        5.8416995625
 Ga        -3.2327967381        7.4544029084        7.8401730709
  N        -3.2371905897        5.5837399475        8.4439151734
 Ga        -3.2374580442        5.5816071676       10.4385743525
  N        -3.2288095471        7.4502049683       11.0493287510
 Ga        -3.2208059949        7.4426730080       13.0474865218
  N        -3.2409122878        5.5757855143       13.6887737208
 Ga        -3.2213874646        5.5706153209       15.7264124242
  N        -3.1987108304        7.4354235059       16.2839268597
 Ga        -3.1804744175        7.3964585163       18.3467833766
  N        -3.1278745690        5.5387276674       18.8804671958
 Ga         3.2482788658       -0.0263019703        0.3209677120
  N         3.2465837279        1.8433277226        0.6036508054
 Ga         3.2747066489        1.8593154381        2.6338341249
  N         3.2475291120       -0.0265955635        3.2244504869
 Ga         3.2483939777       -0.0258409702        5.2359599106
  N         3.2486995351        1.8442032601        5.8428081512
 Ga         3.2497812179        1.8437110426        7.8415880766
  N         3.2471095336       -0.0271050029        8.4435863128
 Ga         3.2491382578       -0.0282240229       10.4378044097
  N         3.2558684482        1.8415726956       11.0459140641
 Ga         3.2632960153        1.8340394060       13.0424106688
  N         3.2530930728       -0.0335490677       13.6645474330
 Ga         3.2643038097       -0.0393534975       15.6755068307
  N         3.2895241230        1.8269273132       16.2567296447
 Ga         3.3416749065        1.8199714328       18.2950740060
  N         3.3116472117       -0.0691871293       18.7454739335
 Ga         1.6279925667        2.7791465909        0.3207836891
  N         1.6337766591        4.6495158961        0.6031670862
 Ga         1.6062593117        4.6645275079        2.6344301765
  N         1.6275906566        2.7789142594        3.2253343778
 Ga         1.6283912197        2.7798065241        5.2371232407
  N         1.6334383388        4.6495785672        5.8451885880
 Ga         1.6326706515        4.6491130526        7.8456421624
  N         1.6291871816        2.7767567038        8.4457892535
 Ga         1.6306100368        2.7753845475       10.4415750450
  N         1.6261506512        4.6467942760       11.0360390303
 Ga         1.6221078210        4.6462911811       13.0295525172
  N         1.6384199901        2.7676410780       13.6331656378
 Ga         1.6671736359        2.7571932094       15.6245027160
  N         1.6218820410        4.6380657337       16.1262539705
 Ga         1.6992240654        4.6002125896       18.1054112224
  N         1.6933787094        2.7503847538       18.6020226231
 Ga         0.0082908227        5.5844183298       -0.5432922490
  N         0.0113641301        7.4583591317        0.6029864252
 Ga         0.0110087260        7.4275284207        2.6343644849
  N         0.0078784442        5.5840415288        3.2657928152
 Ga         0.0087570975        5.5846908214        5.2562478152
  N         0.0115768559        7.4593456461        5.8435572283
 Ga         0.0116097200        7.4573905941        7.8429797851
  N         0.0065319901        5.5836127113        8.4424563257
 Ga         0.0048741886        5.5827883436       10.4395678109
  N         0.0120765336        7.4561779586       11.0381139075
 Ga         0.0111573136        7.4588477519       13.0301297488
  N        -0.0010630598        5.5882279028       13.6275346898
 Ga        -0.0007275105        5.5765489466       15.6220967547
  N         0.0408235696        7.4431148098       16.2563931816
 Ga         0.0677801076        7.3984096158       18.3448342522
  N         0.1845847506        5.5395863493       18.8796336619
 Ga         6.4923530563       -0.0256715624        0.3204328457
  N         6.4992857683        1.8438698816        0.6036323981
 Ga         6.4710074977        1.8593227535        2.6337471611
  N         6.4930236019       -0.0264136148        3.2253540991
 Ga         6.4938650041       -0.0256703346        5.2372533648
  N         6.4988415797        1.8448055537        5.8432794255
 Ga         6.4978428319        1.8448453337        7.8420988765
  N         6.4931775932       -0.0248373366        8.4461252425
 Ga         6.4944886952       -0.0214266499       10.4424644253
  N         6.4971705969        1.8500714395       11.0524507990
 Ga         6.5009395730        1.8547937913       13.0515299538
  N         6.4889737684       -0.0187158857       13.6268878705
 Ga         6.5046592507       -0.0142189425       15.6271295794
  N         6.5136057109        1.8522638810       16.2420582569
 Ga         6.5790930866        1.8180298812       18.2928794796
  N         6.5786859227       -0.0851030992       18.6594067169
 Ga         4.8737745920        2.7799044802       -0.5503940626
  N         4.8764290874        4.6537386956        0.6040760636
 Ga         4.8758280915        4.6219593925        2.6340552425
  N         4.8731845113        2.7788315538        3.2657800304
 Ga         4.8738362814        2.7798980900        5.2555825160
  N         4.8762292195        4.6538791092        5.8437262453
 Ga         4.8751486983        4.6522728152        7.8431468689
  N         4.8738706286        2.7787731447        8.4436801698
 Ga         4.8762111217        2.7807771296       10.4412202396
  N         4.8799191952        4.6501804314       11.0484132419
 Ga         4.8787803372        4.6510793080       13.0487608417
  N         4.8737231693        2.7829021538       13.6628946604
 Ga         4.8779927789        2.7764442714       15.6836831940
  N         4.8383556026        4.6674972033       16.1479334652
 Ga         4.9701861907        4.5985727412       19.1052212473
  N         4.9610309559        2.7126344370       18.8274393083
 Ga         3.2544407508        5.5836756773        0.3206140297
  N         3.2526292845        7.4541911748        0.6027764542
 Ga         3.2803686661        7.4697499280        2.6342496617
  N         3.2534026844        5.5844834273        3.2256142088
 Ga         3.2538111994        5.5850274814        5.2375738152
  N         3.2544880852        7.4551685175        5.8454375580
 Ga         3.2561064379        7.4548693018        7.8461256006
  N         3.2539596993        5.5839792941        8.4494291981
 Ga         3.2545618755        5.5841839558       10.4486781781
  N         3.2582089889        7.4611575845       11.0374045024
 Ga         3.2577590571        7.4648505011       13.0321415031
  N         3.2433093001        5.5877224420       13.5912150816
 Ga         3.2421107041        5.5965926912       15.5851746489
  N         3.2733605152        7.4671862517       16.1309781879
 Ga         3.3346830116        7.4383589767       18.1356484673
  N         3.4448346288        5.4846070640       18.3227560506
  O         1.5993664491        5.0939509107       21.2278148882
  H         1.0174171979        5.3793394054       20.4370050955
  C         1.0186883529        3.8016236003       21.6801666852
  H         1.2593698900        3.0056693700       20.9556114971
  H         1.4582588724        3.5758696900       22.6578081518
  H        -0.0702507173        3.8989346761       21.7691986548
  O         4.2188217455        4.8325684681       21.0359204587
  H         3.1967048186        4.9551227650       21.0447763533
  C         4.5983578095        3.8505556466       22.0335349721
  H         4.2822779636        2.8413858825       21.7353546668
  H         5.6908029690        3.8759188879       22.1195286860
  H         4.1500706331        4.1257936497       22.9962677870
     156
 i =      303, E =     -6136.8126950670
 Ga         0.0737489218       -0.1684822885       -0.5954043042
  N         0.0769095517        1.7071876790        0.5592399260
 Ga         0.0764540500        1.6746992353        2.5872587878
  N         0.0735731301       -0.1693488400        3.2205634029
 Ga         0.0741786797       -0.1682438195        5.2082125176
  N         0.0771939466        1.7055847112        5.8013111371
 Ga         0.0774242735        1.7040039239        7.7973533262
  N         0.0753906489       -0.1691170722        8.4043320101
 Ga         0.0770123819       -0.1678536616       10.3994370425
  N         0.0770698295        1.7019372412       11.0104767288
 Ga         0.0732891687        1.7029963827       13.0106097031
  N         0.0753231055       -0.1661637857       13.6319198536
 Ga         0.1068594397       -0.1442216720       15.6556509065
  N         0.0934713464        1.7251554801       16.2252278137
 Ga         0.0592207397        1.7586220025       18.3848338430
  N         0.1056109122       -0.1120185755       18.8371363361
 Ga        -1.5456825617        2.6360945007        0.2720953122
  N        -1.5481077236        4.5054271403        0.5587890813
 Ga        -1.5191954521        4.5215837755        2.5868773566
  N        -1.5460917802        2.6362495858        3.1826378002
 Ga        -1.5455442652        2.6367932416        5.1904428846
  N        -1.5450048202        4.5074259577        5.8010473222
 Ga        -1.5440461130        4.5076543552        7.7966686632
  N        -1.5441912937        2.6376197998        8.4051394352
 Ga        -1.5423296892        2.6373600718       10.3981193581
  N        -1.5465967651        4.5122714115       11.0057674585
 Ga        -1.5454881235        4.5039829899       12.9957123782
  N        -1.5377926669        2.6505093482       13.6139928806
 Ga        -1.5080117686        2.6668779878       15.6331860119
  N        -1.5399425615        4.5496422917       16.2579574987
 Ga        -1.5564473673        4.5747881069       18.3442733672
  N        -1.5539980075        2.7362170487       18.7542316849
 Ga        -3.1661863847        5.4419561651        0.2724778299
  N        -3.1580574359        7.3115563497        0.5588032140
 Ga        -3.1866250575        7.3272407078        2.5868544094
  N        -3.1657666080        5.4415893514        3.1816822600
 Ga        -3.1650289191        5.4421915038        5.1891150441
  N        -3.1602158845        7.3125244995        5.7997753986
 Ga        -3.1618123324        7.3126044931        7.7947178540
  N        -3.1662050669        5.4422703851        8.4036758194
 Ga        -3.1656596135        5.4451644171       10.3938273137
  N        -3.1637410597        7.3100638906       11.0178794983
 Ga        -3.1694424705        7.3201013388       13.0156681406
  N        -3.1803635036        5.4324459230       13.6418309017
 Ga        -3.0644039284        5.5232701362       15.6162057917
  N        -3.1676080785        7.3100598848       16.2760017168
 Ga        -3.1018682899        7.4400618282       18.4225532379
  N        -2.8684897024        5.6798240498       19.1564133589
 Ga         3.3200427848       -0.1695525432        0.2716577961
  N         3.3171495921        1.6997026933        0.5591471412
 Ga         3.3461756399        1.7157535410        2.5870851678
  N         3.3193846768       -0.1692198738        3.1828591553
 Ga         3.3203712478       -0.1682881131        5.1906105400
  N         3.3204002837        1.7014543636        5.8032538395
 Ga         3.3209767395        1.7013229600        7.7999942830
  N         3.3182924614       -0.1710846187        8.4055535117
 Ga         3.3182015318       -0.1734804071       10.3988195095
  N         3.3211963723        1.6992112360       10.9972902432
 Ga         3.3116536637        1.6880330336       12.9852940268
  N         3.3156940356       -0.1731020094       13.6220168684
 Ga         3.3192115953       -0.1881297505       15.6479975487
  N         3.3204798395        1.7155860438       16.1640130311
 Ga         3.1331808472        1.6726451571       18.1546278362
  N         3.3991021553       -0.0482824937       18.7371968775
 Ga         1.6993554728        2.6366451928        0.2724646894
  N         1.7070590004        4.5059737074        0.5593910940
 Ga         1.6783806045        4.5217450152        2.5873838208
  N         1.6998195353        2.6361421736        3.1827189017
 Ga         1.7005391394        2.6367247348        5.1906001602
  N         1.7051392883        4.5072882322        5.8012289144
 Ga         1.7035184938        4.5072246874        7.7969642122
  N         1.6994621237        2.6371623972        8.4056780357
 Ga         1.6982395700        2.6359121237       10.3987619578
  N         1.7054889244        4.5123762961       11.0005745647
 Ga         1.6992548076        4.5095655030       12.9861749797
  N         1.7030900620        2.6445159987       13.5858530932
 Ga         1.6856347734        2.6279150393       15.5723881098
  N         1.6957233229        4.5324070609       16.1776786875
 Ga         1.4742165763        4.3639048282       18.1034982321
  N         1.7201714237        2.6965073421       18.8272296528
 Ga         0.0803362920        5.4429395763       -0.5957119341
  N         0.0830723475        7.3178012203        0.5595334751
 Ga         0.0827441196        7.2856757138        2.5874261819
  N         0.0797464833        5.4416664179        3.2213766549
 Ga         0.0804196731        5.4428369264        5.2093724445
  N         0.0834827822        7.3167787990        5.8020825075
 Ga         0.0833854119        7.3150375856        7.7982295922
  N         0.0799346775        5.4419361793        8.4037001040
 Ga         0.0790755863        5.4467098586       10.3979922972
  N         0.0837989409        7.3163656107       11.0065402816
 Ga         0.0814820262        7.3221239921       13.0017392289
  N         0.0773825401        5.4430314324       13.5930468331
 Ga         0.0580352066        5.4866088194       15.5797534831
  N         0.0996109718        7.3206102584       16.1920851616
 Ga         0.1199800556        7.4686457076       18.2491468863
  N         0.1711956609        5.5511947727       18.7885961764
 Ga         6.5641746958       -0.1689113973        0.2717132867
  N         6.5723770925        1.7003860015        0.5593242326
 Ga         6.5436225222        1.7158357554        2.5872833190
  N         6.5649076238       -0.1692065808        3.1830055606
 Ga         6.5653653270       -0.1683250432        5.1907780616
  N         6.5708550036        1.7015411397        5.8026681411
 Ga         6.5705414136        1.7016638937        7.7991411054
  N         6.5666107282       -0.1698869310        8.4065087155
 Ga         6.5679331270       -0.1697783337       10.4004992157
  N         6.5742736436        1.7022844852       11.0033070182
 Ga         6.5931081875        1.6989976126       12.9959456423
  N         6.5752785541       -0.1743704006       13.5998853648
 Ga         6.5727385848       -0.1773306864       15.6044556193
  N         6.5951700649        1.7054491921       16.1347577892
 Ga         6.6774589656        1.7940988982       18.1448029431
  N         6.5557511621       -0.0124721728       18.7364597927
 Ga         4.9453660134        2.6357556563       -0.5954310990
  N         4.9482281392        4.5120726910        0.5592503418
 Ga         4.9477932766        4.4794390798        2.5872802770
  N         4.9451100417        2.6355882200        3.2217607024
 Ga         4.9457664588        2.6357526132        5.2099122436
  N         4.9487398966        4.5105722935        5.8002052749
 Ga         4.9488678472        4.5083477200        7.7951934525
  N         4.9463508987        2.6364009159        8.4046136052
 Ga         4.9482809531        2.6322949832       10.3989927402
  N         4.9485901672        4.5091620070       11.0046563861
 Ga         4.9480199891        4.5039698581       12.9858722029
  N         4.9461344519        2.6279708828       13.5636465794
 Ga         4.9639734647        2.5080473666       15.5160202720
  N         4.8567034190        4.3752077104       16.2506883081
 Ga         5.2993784231        4.9039156778       19.6214444632
  N         5.0038172573        3.3139168964       18.3381513774
 Ga         3.3258073634        5.4415084374        0.2725599409
  N         3.3230486419        7.3109624434        0.5589682933
 Ga         3.3517451079        7.3270692400        2.5869904459
  N         3.3255396262        5.4416838601        3.1824148947
 Ga         3.3258780533        5.4424350919        5.1901330650
  N         3.3268893209        7.3128493306        5.8009429803
 Ga         3.3286130188        7.3134273715        7.7964705045
  N         3.3269280021        5.4417684506        8.4018050059
 Ga         3.3272683202        5.4445914073       10.3908028681
  N         3.3336054575        7.3113953435       11.0075425463
 Ga         3.3417040404        7.3233223984       12.9988684767
  N         3.3324174678        5.4399704152       13.6177544504
 Ga         3.2709047527        5.5035564362       15.5811182949
  N         3.3473560763        7.3077669911       16.2458139224
 Ga         3.3486640541        7.7279499750       18.2109492070
  N         4.7262564791        4.3490938761       17.5879462219
  O         1.0622188971        4.7143932772       21.4555027640
  H         0.2697761558        5.4605033849       19.8211454494
  C         0.4729003400        3.3492789515       21.8648907084