 DBCSR| Multiplication driver                                               BLAS
 DBCSR| Multrec recursion limit                                              512
 DBCSR| Multiplication stack size                                           1000
 DBCSR| Maximum elements for images                                    UNLIMITED
 DBCSR| Multiplicative factor virtual images                                   1
 DBCSR| Multiplication size stacks                                             3
 DBCSR| Number of 3D layers                                               SINGLE
 DBCSR| Use MPI memory allocation                                              T
 DBCSR| Use RMA algorithm                                                      F
 DBCSR| Use Communication thread                                               T
 DBCSR| Communication thread load                                             87


  **** **** ******  **  PROGRAM STARTED AT               2019-05-23 12:31:45.012
 ***** ** ***  *** **   PROGRAM STARTED ON        blg7220.int.ets1.calculquebec.
 **    ****   ******    PROGRAM STARTED BY                                   rzk
 ***** **    ** ** **   PROGRAM PROCESS ID                                405384
  **** **  *******  **  PROGRAM STARTED IN /lustre03/project/6004141/rzk/GaN-car
                                           bene/03-Carbene/02-NC

 CP2K| version string:                    CP2K version 7.0 (Development Version)
 CP2K| source code revision number:                                    svn:18619
 CP2K| cp2kflags: libint fftw3 libxc parallel mpi3 scalapack mkl                
 CP2K| is freely available from                            https://www.cp2k.org/
 CP2K| Program compiled at                          Sun Apr  7 00:48:11 EDT 2019
 CP2K| Program compiled on                      beluga2.int.ets1.calculquebec.ca
 CP2K| Program compiled for                    Beluga-Linux-x86-64-intel-openmpi
 CP2K| Data directory path    /home/rzk/projects/def-rzk/group/cp2k/cp2k-mcgill/
 CP2K| Input file name                                                 start.inp
 
 GLOBAL| Force Environment number                                              1
 GLOBAL| Basis set file name                                        BASIS_MOLOPT
 GLOBAL| Potential file name                                      GTH_POTENTIALS
 GLOBAL| MM Potential file name                                     MM_POTENTIAL
 GLOBAL| Coordinate file name                                      __STD_INPUT__
 GLOBAL| Method name                                                        CP2K
 GLOBAL| Project name                                                       TEST
 GLOBAL| Preferred FFT library                                             FFTW3
 GLOBAL| Preferred diagonalization lib.                                       SL
 GLOBAL| Run type                                                        GEO_OPT
 GLOBAL| All-to-all communication in single precision                          F
 GLOBAL| FFTs using library dependent lengths                                  F
 GLOBAL| Global print level                                               MEDIUM
 GLOBAL| MPI I/O enabled                                                       T
 GLOBAL| Total number of message passing processes                            80
 GLOBAL| Number of threads for this process                                    1
 GLOBAL| This output is from process                                           0
 GLOBAL| CPU model name :  Intel(R) Xeon(R) Gold 6148 CPU @ 2.40GHz

 MEMORY| system memory details [Kb]
 MEMORY|                        rank 0           min           max       average
 MEMORY| MemTotal            196614300     196614300     196614300     196614300
 MEMORY| MemFree             180760604     179396172     180766512     180109905
 MEMORY| Buffers                     0             0            24            12
 MEMORY| Cached                1502608       1502608       1551032       1526820
 MEMORY| Slab                  1399560       1399560       1944056       1671808
 MEMORY| SReclaimable           204104        204104        258904        231504
 MEMORY| MemLikelyFree       182467316     181206132     182473224     181868241


 *** Fundamental physical constants (SI units) ***

 *** Literature: B. J. Mohr and B. N. Taylor,
 ***             CODATA recommended values of the fundamental physical
 ***             constants: 2006, Web Version 5.1
 ***             http://physics.nist.gov/constants

 Speed of light in vacuum [m/s]                             2.99792458000000E+08
 Magnetic constant or permeability of vacuum [N/A**2]       1.25663706143592E-06
 Electric constant or permittivity of vacuum [F/m]          8.85418781762039E-12
 Planck constant (h) [J*s]                                  6.62606896000000E-34
 Planck constant (h-bar) [J*s]                              1.05457162825177E-34
 Elementary charge [C]                                      1.60217648700000E-19
 Electron mass [kg]                                         9.10938215000000E-31
 Electron g factor [ ]                                     -2.00231930436220E+00
 Proton mass [kg]                                           1.67262163700000E-27
 Fine-structure constant                                    7.29735253760000E-03
 Rydberg constant [1/m]                                     1.09737315685270E+07
 Avogadro constant [1/mol]                                  6.02214179000000E+23
 Boltzmann constant [J/K]                                   1.38065040000000E-23
 Atomic mass unit [kg]                                      1.66053878200000E-27
 Bohr radius [m]                                            5.29177208590000E-11

 *** Conversion factors ***

 [u] -> [a.u.]                                              1.82288848426455E+03
 [Angstrom] -> [Bohr] = [a.u.]                              1.88972613288564E+00
 [a.u.] = [Bohr] -> [Angstrom]                              5.29177208590000E-01
 [a.u.] -> [s]                                              2.41888432650478E-17
 [a.u.] -> [fs]                                             2.41888432650478E-02
 [a.u.] -> [J]                                              4.35974393937059E-18
 [a.u.] -> [N]                                              8.23872205491840E-08
 [a.u.] -> [K]                                              3.15774647902944E+05
 [a.u.] -> [kJ/mol]                                         2.62549961709828E+03
 [a.u.] -> [kcal/mol]                                       6.27509468713739E+02
 [a.u.] -> [Pa]                                             2.94210107994716E+13
 [a.u.] -> [bar]                                            2.94210107994716E+08
 [a.u.] -> [atm]                                            2.90362800883016E+08
 [a.u.] -> [eV]                                             2.72113838565563E+01
 [a.u.] -> [Hz]                                             6.57968392072181E+15
 [a.u.] -> [1/cm] (wave numbers)                            2.19474631370540E+05
 [a.u./Bohr**2] -> [1/cm]                                   5.14048714338585E+03
 

 CELL_TOP| Volume [angstrom^3]:                                         2519.385
 CELL_TOP| Vector a [angstrom     9.737     0.000     0.000    |a| =       9.737
 CELL_TOP| Vector b [angstrom    -4.859     8.416     0.000    |b| =       9.718
 CELL_TOP| Vector c [angstrom     0.000     0.000    30.744    |c| =      30.744
 CELL_TOP| Angle (b,c), alpha [degree]:                                   90.000
 CELL_TOP| Angle (a,c), beta  [degree]:                                   90.000
 CELL_TOP| Angle (a,b), gamma [degree]:                                  120.000
 CELL_TOP| Numerically orthorhombic:                                          NO
 
 GENERATE|  Preliminary Number of Bonds generated:                             0
 GENERATE|  Achieved consistency in connectivity generation.

 CELL| Volume [angstrom^3]:                                             2519.385
 CELL| Vector a [angstrom]:       9.737     0.000     0.000    |a| =       9.737
 CELL| Vector b [angstrom]:      -4.859     8.416     0.000    |b| =       9.718
 CELL| Vector c [angstrom]:       0.000     0.000    30.744    |c| =      30.744
 CELL| Angle (b,c), alpha [degree]:                                       90.000
 CELL| Angle (a,c), beta  [degree]:                                       90.000
 CELL| Angle (a,b), gamma [degree]:                                      120.000
 CELL| Numerically orthorhombic:                                              NO

 CELL_REF| Volume [angstrom^3]:                                         2432.344
 CELL_REF| Vector a [angstrom     9.558     0.000     0.000    |a| =       9.558
 CELL_REF| Vector b [angstrom    -4.779     8.277     0.000    |b| =       9.558
 CELL_REF| Vector c [angstrom     0.000     0.000    30.744    |c| =      30.744
 CELL_REF| Angle (b,c), alpha [degree]:                                   90.000
 CELL_REF| Angle (a,c), beta  [degree]:                                   90.000
 CELL_REF| Angle (a,b), gamma [degree]:                                  120.000
 CELL_REF| Numerically orthorhombic:                                          NO

 *******************************************************************************
 *******************************************************************************
 **                                                                           **
 **     #####                         ##              ##                      **
 **    ##   ##            ##          ##              ##                      **
 **   ##     ##                       ##            ######                    **
 **   ##     ##  ##   ##  ##   #####  ##  ##   ####   ##    #####    #####    **
 **   ##     ##  ##   ##  ##  ##      ## ##   ##      ##   ##   ##  ##   ##   **
 **   ##  ## ##  ##   ##  ##  ##      ####     ###    ##   ######   ######    **
 **    ##  ###   ##   ##  ##  ##      ## ##      ##   ##   ##       ##        **
 **     #######   #####   ##   #####  ##  ##  ####    ##    #####   ##        **
 **           ##                                                    ##        **
 **                                                                           **
 **                                                ... make the atoms dance   **
 **                                                                           **
 **            Copyright (C) by CP2K developers group (2000 - 2018)           **
 **                                                                           **
 *******************************************************************************

 DFT| Spin restricted Kohn-Sham (RKS) calculation                            RKS
 DFT| Multiplicity                                                             1
 DFT| Number of spin states                                                    1
 DFT| Charge                                                                   0
 DFT| Self-interaction correction (SIC)                                       NO
 DFT| Cutoffs: density                                              1.000000E-10
 DFT|          gradient                                             1.000000E-10
 DFT|          tau                                                  1.000000E-10
 DFT|          cutoff_smoothing_range                               0.000000E+00
 DFT| XC density smoothing                                                  NONE
 DFT| XC derivatives                                                          PW
 FUNCTIONAL| ROUTINE=NEW
 FUNCTIONAL| PBE:
 FUNCTIONAL| J.P.Perdew, K.Burke, M.Ernzerhof, Phys. Rev. Letter, vol. 77, n 18,
 FUNCTIONAL|  pp. 3865-3868, (1996){spin unpolarized}                           
 vdW POTENTIAL|                                                   Pair Potential
 vdW POTENTIAL|          DFT-D3 (Version 3.1)
 vdW POTENTIAL|          Potential Form: S. Grimme et al, JCP 132: 154104 (2010)
 vdW POTENTIAL|          Zero Damping
 vdW POTENTIAL|          Cutoff Radius [Bohr]:                             18.90
 vdW POTENTIAL|          s6 Scaling Factor:                               1.0000
 vdW POTENTIAL|          sr6 Scaling Factor:                              1.2170
 vdW POTENTIAL|          s8 Scaling Factor:                               0.7220
 vdW POTENTIAL|          Cutoff for CN calculation:                   0.1000E-05

 QS| Method:                                                                 GPW
 QS| Density plane wave grid type                        NON-SPHERICAL FULLSPACE
 QS| Number of grid levels:                                                    5
 QS| Density cutoff [a.u.]:                                                600.0
 QS| Multi grid cutoff [a.u.]: 1) grid level                               600.0
 QS|                           2) grid level                               200.0
 QS|                           3) grid level                                66.7
 QS|                           4) grid level                                22.2
 QS|                           5) grid level                                 7.4
 QS| Grid level progression factor:                                          3.0
 QS| Relative density cutoff [a.u.]:                                        20.0
 QS| Consistent realspace mapping and integration 
 QS| Interaction thresholds: eps_pgf_orb:                                1.0E-07
 QS|                         eps_filter_matrix:                          0.0E+00
 QS|                         eps_core_charge:                            1.0E-16
 QS|                         eps_rho_gspace:                             1.0E-14
 QS|                         eps_rho_rspace:                             1.0E-14
 QS|                         eps_gvg_rspace:                             1.0E-07
 QS|                         eps_ppl:                                    1.0E-02
 QS|                         eps_ppnl:                                   1.0E-09


 ATOMIC KIND INFORMATION

  1. Atomic kind: Ga                                    Number of atoms:      72

     Orbital Basis Set                                    DZVP-MOLOPT-SR-GTH-q13

       Number of orbital shell sets:                                           1
       Number of orbital shells:                                               7
       Number of primitive Cartesian functions:                                6
       Number of Cartesian basis functions:                                   30
       Number of spherical basis functions:                                   25
       Norm type:                                                              2

       Normalised Cartesian orbitals:

                        Set   Shell   Orbital            Exponent    Coefficient

                          1       1    2s                7.066654       0.013136
                                                         3.428369      -0.094392
                                                         1.430064       0.265435
                                                         0.571611       0.056465
                                                         0.232197      -0.192187
                                                         0.076562      -0.044987

                          1       2    3s                7.066654      -0.098564
                                                         3.428369       0.010390
                                                         1.430064       0.351249
                                                         0.571611       0.182615
                                                         0.232197      -0.425358
                                                         0.076562       0.190349

                          1       3    3px               7.066654       0.002364
                                                         3.428369       0.019222
                                                         1.430064       0.250132
                                                         0.571611      -0.058486
                                                         0.232197      -0.159451
                                                         0.076562      -0.020696
                          1       3    3py               7.066654       0.002364
                                                         3.428369       0.019222
                                                         1.430064       0.250132
                                                         0.571611      -0.058486
                                                         0.232197      -0.159451
                                                         0.076562      -0.020696
                          1       3    3pz               7.066654       0.002364
                                                         3.428369       0.019222
                                                         1.430064       0.250132
                                                         0.571611      -0.058486
                                                         0.232197      -0.159451
                                                         0.076562      -0.020696

                          1       4    4px               7.066654       0.492448
                                                         3.428369      -0.614736
                                                         1.430064      -0.191654
                                                         0.571611       0.037801
                                                         0.232197       0.302315
                                                         0.076562      -0.071336
                          1       4    4py               7.066654       0.492448
                                                         3.428369      -0.614736
                                                         1.430064      -0.191654
                                                         0.571611       0.037801
                                                         0.232197       0.302315
                                                         0.076562      -0.071336
                          1       4    4pz               7.066654       0.492448
                                                         3.428369      -0.614736
                                                         1.430064      -0.191654
                                                         0.571611       0.037801
                                                         0.232197       0.302315
                                                         0.076562      -0.071336

                          1       5    4dx2              7.066654     -15.264855
                                                         3.428369      -5.345726
                                                         1.430064      -1.022732
                                                         0.571611      -0.123148
                                                         0.232197      -0.006983
                                                         0.076562      -0.000022
                          1       5    4dxy              7.066654     -26.439504
                                                         3.428369      -9.259069
                                                         1.430064      -1.771423
                                                         0.571611      -0.213299
                                                         0.232197      -0.012094
                                                         0.076562      -0.000037
                          1       5    4dxz              7.066654     -26.439504
                                                         3.428369      -9.259069
                                                         1.430064      -1.771423
                                                         0.571611      -0.213299
                                                         0.232197      -0.012094
                                                         0.076562      -0.000037
                          1       5    4dy2              7.066654     -15.264855
                                                         3.428369      -5.345726
                                                         1.430064      -1.022732
                                                         0.571611      -0.123148
                                                         0.232197      -0.006983
                                                         0.076562      -0.000022
                          1       5    4dyz              7.066654     -26.439504
                                                         3.428369      -9.259069
                                                         1.430064      -1.771423
                                                         0.571611      -0.213299
                                                         0.232197      -0.012094
                                                         0.076562      -0.000037
                          1       5    4dz2              7.066654     -15.264855
                                                         3.428369      -5.345726
                                                         1.430064      -1.022732
                                                         0.571611      -0.123148
                                                         0.232197      -0.006983
                                                         0.076562      -0.000022

                          1       6    5dx2              7.066654      -5.739265
                                                         3.428369      -2.129289
                                                         1.430064      -0.700423
                                                         0.571611       0.161606
                                                         0.232197       0.043513
                                                         0.076562       0.011205
                          1       6    5dxy              7.066654      -9.940698
                                                         3.428369      -3.688037
                                                         1.430064      -1.213168
                                                         0.571611       0.279909
                                                         0.232197       0.075368
                                                         0.076562       0.019407
                          1       6    5dxz              7.066654      -9.940698
                                                         3.428369      -3.688037
                                                         1.430064      -1.213168
                                                         0.571611       0.279909
                                                         0.232197       0.075368
                                                         0.076562       0.019407
                          1       6    5dy2              7.066654      -5.739265
                                                         3.428369      -2.129289
                                                         1.430064      -0.700423
                                                         0.571611       0.161606
                                                         0.232197       0.043513
                                                         0.076562       0.011205
                          1       6    5dyz              7.066654      -9.940698
                                                         3.428369      -3.688037
                                                         1.430064      -1.213168
                                                         0.571611       0.279909
                                                         0.232197       0.075368
                                                         0.076562       0.019407
                          1       6    5dz2              7.066654      -5.739265
                                                         3.428369      -2.129289
                                                         1.430064      -0.700423
                                                         0.571611       0.161606
                                                         0.232197       0.043513
                                                         0.076562       0.011205

                          1       7    5fx3              7.066654       0.705879
                                                         3.428369      -0.273976
                                                         1.430064       0.113667
                                                         0.571611       0.132480
                                                         0.232197       0.012437
                                                         0.076562       0.003241
                          1       7    5fx2y             7.066654       1.578393
                                                         3.428369      -0.612629
                                                         1.430064       0.254167
                                                         0.571611       0.296234
                                                         0.232197       0.027811
                                                         0.076562       0.007246
                          1       7    5fx2z             7.066654       1.578393
                                                         3.428369      -0.612629
                                                         1.430064       0.254167
                                                         0.571611       0.296234
                                                         0.232197       0.027811
                                                         0.076562       0.007246
                          1       7    5fxy2             7.066654       1.578393
                                                         3.428369      -0.612629
                                                         1.430064       0.254167
                                                         0.571611       0.296234
                                                         0.232197       0.027811
                                                         0.076562       0.007246
                          1       7    5fxyz             7.066654       2.733856
                                                         3.428369      -1.061105
                                                         1.430064       0.440230
                                                         0.571611       0.513092
                                                         0.232197       0.048170
                                                         0.076562       0.012551
                          1       7    5fxz2             7.066654       1.578393
                                                         3.428369      -0.612629
                                                         1.430064       0.254167
                                                         0.571611       0.296234
                                                         0.232197       0.027811
                                                         0.076562       0.007246
                          1       7    5fy3              7.066654       0.705879
                                                         3.428369      -0.273976
                                                         1.430064       0.113667
                                                         0.571611       0.132480
                                                         0.232197       0.012437
                                                         0.076562       0.003241
                          1       7    5fy2z             7.066654       1.578393
                                                         3.428369      -0.612629
                                                         1.430064       0.254167
                                                         0.571611       0.296234
                                                         0.232197       0.027811
                                                         0.076562       0.007246
                          1       7    5fyz2             7.066654       1.578393
                                                         3.428369      -0.612629
                                                         1.430064       0.254167
                                                         0.571611       0.296234
                                                         0.232197       0.027811
                                                         0.076562       0.007246
                          1       7    5fz3              7.066654       0.705879
                                                         3.428369      -0.273976
                                                         1.430064       0.113667
                                                         0.571611       0.132480
                                                         0.232197       0.012437
                                                         0.076562       0.003241

     GTH Potential information for                                   GTH-PBE-q13

       Description:                       Goedecker-Teter-Hutter pseudopotential
                                           Goedecker et al., PRB 54, 1703 (1996)
                                          Hartwigsen et al., PRB 58, 3641 (1998)
                                                      Krack, TCA 114, 145 (2005)

       Gaussian exponent of the core charge distribution:               2.082466
       Electronic configuration (s p d ...):                           2   1  10

       Parameters of the local part of the GTH pseudopotential:

                          rloc        C1          C2          C3          C4
                        0.490000

       Parameters of the non-local part of the GTH pseudopotential:

                   l      r(l)      h(i,j,l)

                   0    0.416777   10.475690   -4.921768    0.870706
                                   -4.921768    7.770178   -2.248152
                                    0.870706   -2.248152    1.784415
                   1    0.569627    1.777985    0.195860
                                    0.195860   -0.231744
                   2    0.238126  -16.248680

  2. Atomic kind: N                                     Number of atoms:      72

     Orbital Basis Set                                     DZVP-MOLOPT-SR-GTH-q5

       Number of orbital shell sets:                                           1
       Number of orbital shells:                                               5
       Number of primitive Cartesian functions:                                5
       Number of Cartesian basis functions:                                   14
       Number of spherical basis functions:                                   13
       Norm type:                                                              2

       Normalised Cartesian orbitals:

                        Set   Shell   Orbital            Exponent    Coefficient

                          1       1    2s                7.341988       0.360561
                                                         2.542637       0.139177
                                                         0.888575      -0.289383
                                                         0.333802      -0.182244
                                                         0.112012      -0.019197

                          1       2    3s                7.341988       0.282000
                                                         2.542637       0.177875
                                                         0.888575      -0.278381
                                                         0.333802       0.008577
                                                         0.112012       0.154176

                          1       3    3px               7.341988      -1.188719
                                                         2.542637      -0.973969
                                                         0.888575      -0.501079
                                                         0.333802      -0.144894
                                                         0.112012      -0.013986
                          1       3    3py               7.341988      -1.188719
                                                         2.542637      -0.973969
                                                         0.888575      -0.501079
                                                         0.333802      -0.144894
                                                         0.112012      -0.013986
                          1       3    3pz               7.341988      -1.188719
                                                         2.542637      -0.973969
                                                         0.888575      -0.501079
                                                         0.333802      -0.144894
                                                         0.112012      -0.013986

                          1       4    4px               7.341988      -0.094798
                                                         2.542637       0.050069
                                                         0.888575      -0.114797
                                                         0.333802       0.144793
                                                         0.112012       0.066710
                          1       4    4py               7.341988      -0.094798
                                                         2.542637       0.050069
                                                         0.888575      -0.114797
                                                         0.333802       0.144793
                                                         0.112012       0.066710
                          1       4    4pz               7.341988      -0.094798
                                                         2.542637       0.050069
                                                         0.888575      -0.114797
                                                         0.333802       0.144793
                                                         0.112012       0.066710

                          1       5    4dx2              7.341988       1.354688
                                                         2.542637       0.690378
                                                         0.888575       0.855359
                                                         0.333802       0.091746
                                                         0.112012       0.001253
                          1       5    4dxy              7.341988       2.346389
                                                         2.542637       1.195770
                                                         0.888575       1.481524
                                                         0.333802       0.158910
                                                         0.112012       0.002169
                          1       5    4dxz              7.341988       2.346389
                                                         2.542637       1.195770
                                                         0.888575       1.481524
                                                         0.333802       0.158910
                                                         0.112012       0.002169
                          1       5    4dy2              7.341988       1.354688
                                                         2.542637       0.690378
                                                         0.888575       0.855359
                                                         0.333802       0.091746
                                                         0.112012       0.001253
                          1       5    4dyz              7.341988       2.346389
                                                         2.542637       1.195770
                                                         0.888575       1.481524
                                                         0.333802       0.158910
                                                         0.112012       0.002169
                          1       5    4dz2              7.341988       1.354688
                                                         2.542637       0.690378
                                                         0.888575       0.855359
                                                         0.333802       0.091746
                                                         0.112012       0.001253

     GTH Potential information for                                    GTH-PBE-q5

       Description:                       Goedecker-Teter-Hutter pseudopotential
                                           Goedecker et al., PRB 54, 1703 (1996)
                                          Hartwigsen et al., PRB 58, 3641 (1998)
                                                      Krack, TCA 114, 145 (2005)

       Gaussian exponent of the core charge distribution:               6.208322
       Electronic configuration (s p d ...):                               2   3

       Parameters of the local part of the GTH pseudopotential:

                          rloc        C1          C2          C3          C4
                        0.283791  -12.415226    1.868096

       Parameters of the non-local part of the GTH pseudopotential:

                   l      r(l)      h(i,j,l)

                   0    0.255405   13.630263
                   1    0.245495

  3. Atomic kind: C                                     Number of atoms:       1

     Orbital Basis Set                                     DZVP-MOLOPT-SR-GTH-q4

       Number of orbital shell sets:                                           1
       Number of orbital shells:                                               5
       Number of primitive Cartesian functions:                                5
       Number of Cartesian basis functions:                                   14
       Number of spherical basis functions:                                   13
       Norm type:                                                              2

       Normalised Cartesian orbitals:

                        Set   Shell   Orbital            Exponent    Coefficient

                          1       1    2s                5.605331       0.322515
                                                         2.113016       0.213043
                                                         0.769911      -0.209686
                                                         0.348157      -0.219794
                                                         0.128212      -0.022789

                          1       2    3s                5.605331       0.552234
                                                         2.113016       0.082072
                                                         0.769911       0.007843
                                                         0.348157       0.136893
                                                         0.128212       0.074283

                          1       3    3px               5.605331      -0.703879
                                                         2.113016      -0.642521
                                                         0.769911      -0.374851
                                                         0.348157      -0.139743
                                                         0.128212      -0.027849
                          1       3    3py               5.605331      -0.703879
                                                         2.113016      -0.642521
                                                         0.769911      -0.374851
                                                         0.348157      -0.139743
                                                         0.128212      -0.027849
                          1       3    3pz               5.605331      -0.703879
                                                         2.113016      -0.642521
                                                         0.769911      -0.374851
                                                         0.348157      -0.139743
                                                         0.128212      -0.027849

                          1       4    4px               5.605331      -0.480376
                                                         2.113016      -0.552894
                                                         0.769911      -0.316145
                                                         0.348157       0.210505
                                                         0.128212       0.076095
                          1       4    4py               5.605331      -0.480376
                                                         2.113016      -0.552894
                                                         0.769911      -0.316145
                                                         0.348157       0.210505
                                                         0.128212       0.076095
                          1       4    4pz               5.605331      -0.480376
                                                         2.113016      -0.552894
                                                         0.769911      -0.316145
                                                         0.348157       0.210505
                                                         0.128212       0.076095

                          1       5    4dx2              5.605331       0.640026
                                                         2.113016       0.274300
                                                         0.769911       0.446711
                                                         0.348157       0.028674
                                                         0.128212       0.029790
                          1       5    4dxy              5.605331       1.108557
                                                         2.113016       0.475102
                                                         0.769911       0.773726
                                                         0.348157       0.049666
                                                         0.128212       0.051599
                          1       5    4dxz              5.605331       1.108557
                                                         2.113016       0.475102
                                                         0.769911       0.773726
                                                         0.348157       0.049666
                                                         0.128212       0.051599
                          1       5    4dy2              5.605331       0.640026
                                                         2.113016       0.274300
                                                         0.769911       0.446711
                                                         0.348157       0.028674
                                                         0.128212       0.029790
                          1       5    4dyz              5.605331       1.108557
                                                         2.113016       0.475102
                                                         0.769911       0.773726
                                                         0.348157       0.049666
                                                         0.128212       0.051599
                          1       5    4dz2              5.605331       0.640026
                                                         2.113016       0.274300
                                                         0.769911       0.446711
                                                         0.348157       0.028674
                                                         0.128212       0.029790

     GTH Potential information for                                    GTH-PBE-q4

       Description:                       Goedecker-Teter-Hutter pseudopotential
                                           Goedecker et al., PRB 54, 1703 (1996)
                                          Hartwigsen et al., PRB 58, 3641 (1998)
                                                      Krack, TCA 114, 145 (2005)

       Gaussian exponent of the core charge distribution:               4.364419
       Electronic configuration (s p d ...):                               2   2

       Parameters of the local part of the GTH pseudopotential:

                          rloc        C1          C2          C3          C4
                        0.338471   -8.803674    1.339211

       Parameters of the non-local part of the GTH pseudopotential:

                   l      r(l)      h(i,j,l)

                   0    0.302576    9.622487
                   1    0.291507

  4. Atomic kind: H                                     Number of atoms:       2

     Orbital Basis Set                                     DZVP-MOLOPT-SR-GTH-q1

       Number of orbital shell sets:                                           1
       Number of orbital shells:                                               3
       Number of primitive Cartesian functions:                                5
       Number of Cartesian basis functions:                                    5
       Number of spherical basis functions:                                    5
       Norm type:                                                              2

       Normalised Cartesian orbitals:

                        Set   Shell   Orbital            Exponent    Coefficient

                          1       1    2s               10.068468      -0.133023
                                                         2.680223      -0.177618
                                                         0.791502      -0.258419
                                                         0.239116      -0.107525
                                                         0.082193      -0.014019

                          1       2    3s               10.068468       0.344673
                                                         2.680223       1.819821
                                                         0.791502      -0.999069
                                                         0.239116       0.017430
                                                         0.082193       0.082660

                          1       3    3px              10.068468       0.155326
                                                         2.680223       0.367157
                                                         0.791502       0.311480
                                                         0.239116       0.080105
                                                         0.082193       0.033440
                          1       3    3py              10.068468       0.155326
                                                         2.680223       0.367157
                                                         0.791502       0.311480
                                                         0.239116       0.080105
                                                         0.082193       0.033440
                          1       3    3pz              10.068468       0.155326
                                                         2.680223       0.367157
                                                         0.791502       0.311480
                                                         0.239116       0.080105
                                                         0.082193       0.033440

     GTH Potential information for                                    GTH-PBE-q1

       Description:                       Goedecker-Teter-Hutter pseudopotential
                                           Goedecker et al., PRB 54, 1703 (1996)
                                          Hartwigsen et al., PRB 58, 3641 (1998)
                                                      Krack, TCA 114, 145 (2005)

       Gaussian exponent of the core charge distribution:              12.500000
       Electronic configuration (s p d ...):                                   1

       Parameters of the local part of the GTH pseudopotential:

                          rloc        C1          C2          C3          C4
                        0.200000   -4.178900    0.724463


 MOLECULE KIND INFORMATION


 All atoms are their own molecule, skipping detailed information


 TOTAL NUMBERS AND MAXIMUM NUMBERS

  Total number of            - Atomic kinds:                                   4
                             - Atoms:                                        147
                             - Shell sets:                                   147
                             - Shells:                                       875
                             - Primitive Cartesian functions:                807
                             - Cartesian basis functions:                   3192
                             - Spherical basis functions:                   2759

  Maximum angular momentum of- Orbital basis functions:                        3
                             - Local part of the GTH pseudopotential:          2
                             - Non-local part of the GTH pseudopotential:      4


 MODULE QUICKSTEP:  ATOMIC COORDINATES IN angstrom

  Atom  Kind  Element       X           Y           Z          Z(eff)       Mass

       1     1 Ga  31    0.000360   -0.002487   -0.587894     13.00      69.7230
       2     2 N    7    0.003347    1.871515    0.566332      5.00      14.0067
       3     1 Ga  31    0.002818    1.839149    2.596260     13.00      69.7230
       4     2 N    7   -0.000026   -0.003698    3.229868      5.00      14.0067
       5     1 Ga  31    0.000554   -0.003207    5.220727     13.00      69.7230
       6     2 N    7    0.003200    1.871609    5.807480      5.00      14.0067
       7     1 Ga  31    0.002713    1.870134    7.805998     13.00      69.7230
       8     2 N    7   -0.000031   -0.003041    8.408967      5.00      14.0067
       9     1 Ga  31   -0.000186   -0.000964   10.406371     13.00      69.7230
      10     2 N    7    0.002660    1.871331   11.010597      5.00      14.0067
      11     1 Ga  31    0.002162    1.877771   13.003938     13.00      69.7230
      12     2 N    7   -0.001053    0.008021   13.608321      5.00      14.0067
      13     1 Ga  31   -0.003586    0.017478   15.611338     13.00      69.7230
      14     2 N    7    0.001984    1.883587   16.265172      5.00      14.0067
      15     1 Ga  31    0.007350    1.895829   18.386242     13.00      69.7230
      16     2 N    7    0.003201    0.000926   18.659710      5.00      14.0067
      17     1 Ga  31   -1.618091    2.802783    0.280660     13.00      69.7230
      18     2 N    7   -1.621656    4.671868    0.566100      5.00      14.0067
      19     1 Ga  31   -1.592904    4.687638    2.595742     13.00      69.7230
      20     2 N    7   -1.619448    2.802043    3.187948      5.00      14.0067
      21     1 Ga  31   -1.618937    2.802725    5.198711     13.00      69.7230
      22     2 N    7   -1.619258    4.672840    5.807515      5.00      14.0067
      23     1 Ga  31   -1.618485    4.673120    7.806158     13.00      69.7230
      24     2 N    7   -1.619979    2.802404    8.410675      5.00      14.0067
      25     1 Ga  31   -1.619583    2.803819   10.405985     13.00      69.7230
      26     2 N    7   -1.612939    4.674395   11.013700      5.00      14.0067
      27     1 Ga  31   -1.608417    4.673976   13.008992     13.00      69.7230
      28     2 N    7   -1.617628    2.805347   13.623149      5.00      14.0067
      29     1 Ga  31   -1.619239    2.804736   15.631565     13.00      69.7230
      30     2 N    7   -1.621860    4.682361   16.214071      5.00      14.0067
      31     1 Ga  31   -1.616308    4.670930   18.295916     13.00      69.7230
      32     2 N    7   -1.622959    2.811046   18.747260      5.00      14.0067
      33     1 Ga  31   -3.238991    5.609007    0.280185     13.00      69.7230
      34     2 N    7   -3.233108    7.478336    0.566128      5.00      14.0067
      35     1 Ga  31   -3.261648    7.493168    2.595995     13.00      69.7230
      36     2 N    7   -3.239588    5.607693    3.188508      5.00      14.0067
      37     1 Ga  31   -3.239269    5.608423    5.199334     13.00      69.7230
      38     2 N    7   -3.233490    7.477896    5.808811      5.00      14.0067
      39     1 Ga  31   -3.234753    7.477734    7.807924     13.00      69.7230
      40     2 N    7   -3.238893    5.607358    8.415191      5.00      14.0067
      41     1 Ga  31   -3.238436    5.608703   10.412584     13.00      69.7230
      42     2 N    7   -3.237007    7.482657   11.012975      5.00      14.0067
      43     1 Ga  31   -3.236686    7.486776   13.008515     13.00      69.7230
      44     2 N    7   -3.236174    5.607466   13.589808      5.00      14.0067
      45     1 Ga  31   -3.236242    5.609858   15.582405     13.00      69.7230
      46     2 N    7   -3.243494    7.481934   16.155652      5.00      14.0067
      47     1 Ga  31   -3.251582    7.489763   18.205733     13.00      69.7230
      48     2 N    7   -3.251198    5.612851   18.596616      5.00      14.0067
      49     1 Ga  31    3.246046   -0.003955    0.280782     13.00      69.7230
      50     2 N    7    3.245382    1.867233    0.565225      5.00      14.0067
      51     1 Ga  31    3.272073    1.881816    2.598031     13.00      69.7230
      52     2 N    7    3.245183   -0.003573    3.187981      5.00      14.0067
      53     1 Ga  31    3.245629   -0.003058    5.198664     13.00      69.7230
      54     2 N    7    3.246202    1.867022    5.807241      5.00      14.0067
      55     1 Ga  31    3.246955    1.866736    7.806095     13.00      69.7230
      56     2 N    7    3.246186   -0.003450    8.412543      5.00      14.0067
      57     1 Ga  31    3.246132   -0.001817   10.408957     13.00      69.7230
      58     2 N    7    3.246422    1.869779   11.014616      5.00      14.0067
      59     1 Ga  31    3.241602    1.869001   13.011485     13.00      69.7230
      60     2 N    7    3.246402   -0.001066   13.623593      5.00      14.0067
      61     1 Ga  31    3.254814    0.000043   15.627316     13.00      69.7230
      62     2 N    7    3.230138    1.881168   16.202750      5.00      14.0067
      63     1 Ga  31    3.233541    1.885488   18.270085     13.00      69.7230
      64     2 N    7    3.237905   -0.007852   18.575037      5.00      14.0067
      65     1 Ga  31    1.624786    2.803278    0.280888     13.00      69.7230
      66     2 N    7    1.633452    4.672437    0.566286      5.00      14.0067
      67     1 Ga  31    1.604475    4.687678    2.595848     13.00      69.7230
      68     2 N    7    1.625708    2.801979    3.188146      5.00      14.0067
      69     1 Ga  31    1.626189    2.802679    5.198983     13.00      69.7230
      70     2 N    7    1.631984    4.672886    5.807609      5.00      14.0067
      71     1 Ga  31    1.630445    4.673166    7.806376     13.00      69.7230
      72     2 N    7    1.626135    2.802315    8.410521      5.00      14.0067
      73     1 Ga  31    1.625762    2.803807   10.405879     13.00      69.7230
      74     2 N    7    1.624428    4.674608   11.012947      5.00      14.0067
      75     1 Ga  31    1.617732    4.674666   13.008104     13.00      69.7230
      76     2 N    7    1.621543    2.806078   13.620734      5.00      14.0067
      77     1 Ga  31    1.620550    2.805986   15.628301     13.00      69.7230
      78     2 N    7    1.632548    4.682252   16.214539      5.00      14.0067
      79     1 Ga  31    1.642439    4.669710   18.296372     13.00      69.7230
      80     2 N    7    1.634737    2.808994   18.747091      5.00      14.0067
      81     1 Ga  31    0.006664    5.608915   -0.585853     13.00      69.7230
      82     2 N    7    0.009483    7.483863    0.566574      5.00      14.0067
      83     1 Ga  31    0.008963    7.450743    2.596037     13.00      69.7230
      84     2 N    7    0.006095    5.607184    3.228726      5.00      14.0067
      85     1 Ga  31    0.006675    5.608134    5.219347     13.00      69.7230
      86     2 N    7    0.009418    7.482791    5.806759      5.00      14.0067
      87     1 Ga  31    0.009027    7.481022    7.805241     13.00      69.7230
      88     2 N    7    0.006193    5.608293    8.407349      5.00      14.0067
      89     1 Ga  31    0.006041    5.610831   10.403930     13.00      69.7230
      90     2 N    7    0.008999    7.480181   11.016630      5.00      14.0067
      91     1 Ga  31    0.008089    7.481358   13.014892     13.00      69.7230
      92     2 N    7    0.004661    5.615077   13.636789      5.00      14.0067
      93     1 Ga  31    0.004787    5.625443   15.648097     13.00      69.7230
      94     2 N    7    0.007134    7.494603   16.229312      5.00      14.0067
      95     1 Ga  31    0.015810    7.470789   18.297690     13.00      69.7230
      96     2 N    7    0.011365    5.587628   18.657261      5.00      14.0067
      97     1 Ga  31    6.491258   -0.003519    0.280651     13.00      69.7230
      98     2 N    7    6.497149    1.867735    0.565198      5.00      14.0067
      99     1 Ga  31    6.470102    1.881958    2.598062     13.00      69.7230
     100     2 N    7    6.491516   -0.003527    3.188074      5.00      14.0067
     101     1 Ga  31    6.492164   -0.003065    5.198712     13.00      69.7230
     102     2 N    7    6.497163    1.867113    5.807093      5.00      14.0067
     103     1 Ga  31    6.495596    1.866802    7.805806     13.00      69.7230
     104     2 N    7    6.490764   -0.003381    8.412331      5.00      14.0067
     105     1 Ga  31    6.490866   -0.001840   10.408800     13.00      69.7230
     106     2 N    7    6.496320    1.869433   11.015090      5.00      14.0067
     107     1 Ga  31    6.499458    1.868210   13.011833     13.00      69.7230
     108     2 N    7    6.488080   -0.001295   13.625235      5.00      14.0067
     109     1 Ga  31    6.479218   -0.001296   15.629768     13.00      69.7230
     110     2 N    7    6.509976    1.877688   16.208351      5.00      14.0067
     111     1 Ga  31    6.519534    1.884775   18.278542     13.00      69.7230
     112     2 N    7    6.505787   -0.007525   18.584359      5.00      14.0067
     113     1 Ga  31    4.871889    2.803069   -0.559252     13.00      69.7230
     114     2 N    7    4.874805    4.676590    0.565258      5.00      14.0067
     115     1 Ga  31    4.874313    4.645974    2.597941     13.00      69.7230
     116     2 N    7    4.871395    2.802090    3.229176      5.00      14.0067
     117     1 Ga  31    4.871933    2.802946    5.220696     13.00      69.7230
     118     2 N    7    4.874741    4.677229    5.809600      5.00      14.0067
     119     1 Ga  31    4.874309    4.675048    7.809448     13.00      69.7230
     120     2 N    7    4.871667    2.800688    8.409624      5.00      14.0067
     121     1 Ga  31    4.871882    2.800447   10.407653     13.00      69.7230
     122     2 N    7    4.874386    4.671207   11.011614      5.00      14.0067
     123     1 Ga  31    4.873623    4.666926   13.006634     13.00      69.7230
     124     2 N    7    4.871198    2.789711   13.614257      5.00      14.0067
     125     1 Ga  31    4.869308    2.783661   15.615531     13.00      69.7230
     126     2 N    7    4.872039    4.674823   16.115264      5.00      14.0067
     127     1 Ga  31    4.880031    4.684568   18.151247     13.00      69.7230
     128     2 N    7    4.874364    2.810854   18.564256      5.00      14.0067
     129     1 Ga  31    3.251808    5.608458    0.280250     13.00      69.7230
     130     2 N    7    3.251160    7.477717    0.566051      5.00      14.0067
     131     1 Ga  31    3.279297    7.492985    2.595984     13.00      69.7230
     132     2 N    7    3.251986    5.607511    3.188427      5.00      14.0067
     133     1 Ga  31    3.252659    5.608277    5.199230     13.00      69.7230
     134     2 N    7    3.252407    7.477780    5.808697      5.00      14.0067
     135     1 Ga  31    3.252750    7.477639    7.807730     13.00      69.7230
     136     2 N    7    3.251445    5.607395    8.415312      5.00      14.0067
     137     1 Ga  31    3.251044    5.608891   10.412750     13.00      69.7230
     138     2 N    7    3.254657    7.482714   11.013486      5.00      14.0067
     139     1 Ga  31    3.252803    7.486261   13.009443     13.00      69.7230
     140     2 N    7    3.246472    5.606835   13.588854      5.00      14.0067
     141     1 Ga  31    3.243271    5.610640   15.581266     13.00      69.7230
     142     2 N    7    3.259363    7.481180   16.158075      5.00      14.0067
     143     1 Ga  31    3.278537    7.489335   18.208218     13.00      69.7230
     144     2 N    7    3.272135    5.613377   18.601627      5.00      14.0067
     145     3 C    6    1.685918    2.822542   20.216138      4.00      12.0107
     146     4 H    1    1.749143    1.818331   20.580093      1.00       1.0079
     147     4 H    1    0.800920    3.285832   20.599596      1.00       1.0079




 SCF PARAMETERS         Density guess:                                    ATOMIC
                        --------------------------------------------------------
                        max_scf:                                             100
                        max_scf_history:                                       0
                        max_diis:                                              4
                        --------------------------------------------------------
                        eps_scf:                                        5.00E-06
                        eps_scf_history:                                0.00E+00
                        eps_diis:                                       1.00E-01
                        eps_eigval:                                     1.00E-05
                        --------------------------------------------------------
                        level_shift [a.u.]:                                 0.00
                        --------------------------------------------------------
                        Outer loop SCF in use 
                        No variables optimised in outer loop
                        eps_scf                                         5.00E-06
                        max_scf                                               10
                        No outer loop optimization
                        step_size                                       5.00E-01

 PW_GRID| Information for grid number                                          1
 PW_GRID| Grid distributed over                                    80 processors
 PW_GRID| Real space group dimensions                                    80    1
 PW_GRID| the grid is blocked:                                                NO
 PW_GRID| Cutoff [a.u.]                                                    600.0
 PW_GRID| spherical cutoff:                                                   NO
 PW_GRID|   Bounds   1           -100      99                Points:         200
 PW_GRID|   Bounds   2           -100      99                Points:         200
 PW_GRID|   Bounds   3           -324     323                Points:         648
 PW_GRID| Volume element (a.u.^3)  0.6333E-03     Volume (a.u.^3)     16414.2734
 PW_GRID| Grid span                                                    FULLSPACE
 PW_GRID|   Distribution                         Average         Max         Min
 PW_GRID|   G-Vectors                           324000.0      324000      324000
 PW_GRID|   G-Rays                                1620.0        1620        1620
 PW_GRID|   Real Space Points                   324000.0      388800      259200

 PW_GRID| Information for grid number                                          2
 PW_GRID| Grid distributed over                                    80 processors
 PW_GRID| Real space group dimensions                                    80    1
 PW_GRID| the grid is blocked:                                                NO
 PW_GRID| Cutoff [a.u.]                                                    200.0
 PW_GRID| spherical cutoff:                                                   NO
 PW_GRID|   Bounds   1            -60      59                Points:         120
 PW_GRID|   Bounds   2            -60      59                Points:         120
 PW_GRID|   Bounds   3           -187     187                Points:         375
 PW_GRID| Volume element (a.u.^3)  0.3040E-02     Volume (a.u.^3)     16414.2734
 PW_GRID| Grid span                                                    FULLSPACE
 PW_GRID|   Distribution                         Average         Max         Min
 PW_GRID|   G-Vectors                            67500.0       68520       66240
 PW_GRID|   G-Rays                                 562.5         571         552
 PW_GRID|   Real Space Points                    67500.0       90000       45000

 PW_GRID| Information for grid number                                          3
 PW_GRID| Grid distributed over                                    80 processors
 PW_GRID| Real space group dimensions                                     8   10
 PW_GRID| the grid is blocked:                                                NO
 PW_GRID| Cutoff [a.u.]                                                     66.7
 PW_GRID| spherical cutoff:                                                   NO
 PW_GRID|   Bounds   1            -36      35                Points:          72
 PW_GRID|   Bounds   2            -36      35                Points:          72
 PW_GRID|   Bounds   3           -108     107                Points:         216
 PW_GRID| Volume element (a.u.^3)  0.1466E-01     Volume (a.u.^3)     16414.2734
 PW_GRID| Grid span                                                    FULLSPACE
 PW_GRID|   Distribution                         Average         Max         Min
 PW_GRID|   G-Vectors                            13996.8       14976       12816
 PW_GRID|   G-Rays                                 194.4         208         178
 PW_GRID|   Real Space Points                    13996.8       15552       13608

 PW_GRID| Information for grid number                                          4
 PW_GRID| Grid distributed over                                    80 processors
 PW_GRID| Real space group dimensions                                     8   10
 PW_GRID| the grid is blocked:                                                NO
 PW_GRID| Cutoff [a.u.]                                                     22.2
 PW_GRID| spherical cutoff:                                                   NO
 PW_GRID|   Bounds   1            -20      19                Points:          40
 PW_GRID|   Bounds   2            -20      19                Points:          40
 PW_GRID|   Bounds   3            -62      62                Points:         125
 PW_GRID| Volume element (a.u.^3)  0.8207E-01     Volume (a.u.^3)     16414.2734
 PW_GRID| Grid span                                                    FULLSPACE
 PW_GRID|   Distribution                         Average         Max         Min
 PW_GRID|   G-Vectors                             2500.0        2960        2040
 PW_GRID|   G-Rays                                  62.5          74          51
 PW_GRID|   Real Space Points                     2500.0        2500        2500

 PW_GRID| Information for grid number                                          5
 PW_GRID| Grid distributed over                                    80 processors
 PW_GRID| Real space group dimensions                                     8   10
 PW_GRID| the grid is blocked:                                                NO
 PW_GRID| Cutoff [a.u.]                                                      7.4
 PW_GRID| spherical cutoff:                                                   NO
 PW_GRID|   Bounds   1            -12      11                Points:          24
 PW_GRID|   Bounds   2            -12      11                Points:          24
 PW_GRID|   Bounds   3            -36      35                Points:          72
 PW_GRID| Volume element (a.u.^3)  0.3958         Volume (a.u.^3)     16414.2734
 PW_GRID| Grid span                                                    FULLSPACE
 PW_GRID|   Distribution                         Average         Max         Min
 PW_GRID|   G-Vectors                              518.4         648         240
 PW_GRID|   G-Rays                                  21.6          27          10
 PW_GRID|   Real Space Points                      518.4         648         432

 POISSON| Solver                                                        PERIODIC
 POISSON| Periodicity                                                        XYZ

 RS_GRID| Information for grid number                                          1
 RS_GRID|   Bounds   1           -100      99                Points:         200
 RS_GRID|   Bounds   2           -100      99                Points:         200
 RS_GRID|   Bounds   3           -324     323                Points:         648
 RS_GRID| Real space distribution over                                 80 groups
 RS_GRID| Real space distribution along direction                              3
 RS_GRID| Border size                                                         73
 RS_GRID|   Distribution                         Average         Max         Min
 RS_GRID|   Planes                                 154.1         155         154

 RS_GRID| Information for grid number                                          2
 RS_GRID|   Bounds   1            -60      59                Points:         120
 RS_GRID|   Bounds   2            -60      59                Points:         120
 RS_GRID|   Bounds   3           -187     187                Points:         375
 RS_GRID| Real space distribution over                                 80 groups
 RS_GRID| Real space distribution along direction                              3
 RS_GRID| Border size                                                         45
 RS_GRID|   Distribution                         Average         Max         Min
 RS_GRID|   Planes                                  94.7          95          94

 RS_GRID| Information for grid number                                          3
 RS_GRID|   Bounds   1            -36      35                Points:          72
 RS_GRID|   Bounds   2            -36      35                Points:          72
 RS_GRID|   Bounds   3           -108     107                Points:         216
 RS_GRID| Real space fully replicated
 RS_GRID| Group size                                                           1

 RS_GRID| Information for grid number                                          4
 RS_GRID|   Bounds   1            -20      19                Points:          40
 RS_GRID|   Bounds   2            -20      19                Points:          40
 RS_GRID|   Bounds   3            -62      62                Points:         125
 RS_GRID| Real space fully replicated
 RS_GRID| Group size                                                           1

 RS_GRID| Information for grid number                                          5
 RS_GRID|   Bounds   1            -12      11                Points:          24
 RS_GRID|   Bounds   2            -12      11                Points:          24
 RS_GRID|   Bounds   3            -36      35                Points:          72
 RS_GRID| Real space fully replicated
 RS_GRID| Group size                                                           1

 BFGS| Use rational function optimization for step estimation:                NO
 BFGS| Use model Hessian for initial guess:                                  YES
 BFGS| Restart Hessian:                                                       NO
 BFGS| Trust radius:                                                       0.472

 *******************************************************************************
 ***                     STARTING GEOMETRY OPTIMIZATION                      ***
 ***                                   BFGS                                  ***
 *******************************************************************************

 Number of electrons:                                                       1302
 Number of occupied orbitals:                                                651
 Number of molecular orbitals:                                               651

 Number of orbital functions:                                               2759
 Number of independent orbital functions:                                   2759

 Extrapolation method: initial_guess

 Atomic guess: The first density matrix is obtained in terms of atomic orbitals
               and electronic configurations assigned to each atomic kind

 Guess for atomic kind: Ga

 Electronic structure
    Total number of core electrons                                         18.00
    Total number of valence electrons                                      13.00
    Total number of electrons                                              31.00
    Multiplicity                                                   not specified
    S   [  2.00  2.00  2.00] 2.00
    P   [  6.00  6.00] 1.00
    D     10.00
 

 *******************************************************************************
                  Iteration          Convergence                     Energy [au]
 *******************************************************************************
                          1         22.1524                     -44.516413224335
                          2         1.91043                     -73.305924441898
                          3        0.524291E-01                 -74.147756188929
                          4        0.359055E-02                 -74.148100266765
                          5        0.137660E-02                 -74.148101509825
                          6        0.820576E-03                 -74.148101603074
                          7        0.577059E-04                 -74.148101657024
                          8        0.577427E-08                 -74.148101657328

 Energy components [Hartree]           Total Energy ::          -74.148101657328
                                        Band Energy ::           -7.354344558070
                                     Kinetic Energy ::           99.564392614967
                                   Potential Energy ::         -173.712494272295
                                      Virial (-V/T) ::            1.744725094081
                                        Core Energy ::         -134.243973097364
                                          XC Energy ::           -9.781240980901
                                     Coulomb Energy ::           69.877112420937
                       Total Pseudopotential Energy ::         -233.873649274629
                       Local Pseudopotential Energy ::         -163.402683521975
                    Nonlocal Pseudopotential Energy ::          -70.470965752654
                                        Confinement ::            0.652835622975

 Orbital energies  State     L     Occupation   Energy[a.u.]          Energy[eV]

                       1     0          2.000      -0.307238           -8.360378
 
                       1     1          1.000      -0.061461           -1.672442
 
                       1     2         10.000      -0.667841          -18.172870
 

 Total Electron Density at R=0:                                         0.000004

 Guess for atomic kind: N

 Electronic structure
    Total number of core electrons                                          2.00
    Total number of valence electrons                                       5.00
    Total number of electrons                                               7.00
    Multiplicity                                                   not specified
    S   [  2.00] 2.00
    P      3.00
 

 *******************************************************************************
                  Iteration          Convergence                     Energy [au]
 *******************************************************************************
                          1        0.314603                      -9.513311037226
                          2        0.240982                      -9.524715106536
                          3        0.171660E-02                  -9.545365478140
                          4        0.189497E-03                  -9.545366407342
                          5        0.115171E-03                  -9.545366414563
                          6        0.842367E-04                  -9.545366416530
                          7        0.416372E-07                  -9.545366418792

 Energy components [Hartree]           Total Energy ::           -9.545366418792
                                        Band Energy ::           -2.053285301135
                                     Kinetic Energy ::            6.740378038236
                                   Potential Energy ::          -16.285744457028
                                      Virial (-V/T) ::            2.416147041701
                                        Core Energy ::          -15.542519058333
                                          XC Energy ::           -2.163416690174
                                     Coulomb Energy ::            8.160569329715
                       Total Pseudopotential Energy ::          -22.320027271038
                       Local Pseudopotential Energy ::          -23.240219346165
                    Nonlocal Pseudopotential Energy ::            0.920192075127
                                        Confinement ::            0.371301744695

 Orbital energies  State     L     Occupation   Energy[a.u.]          Energy[eV]

                       1     0          2.000      -0.663125          -18.044549
 
                       1     1          3.000      -0.242345           -6.594545
 

 Total Electron Density at R=0:                                         0.000019

 Guess for atomic kind: C

 Electronic structure
    Total number of core electrons                                          2.00
    Total number of valence electrons                                       4.00
    Total number of electrons                                               6.00
    Multiplicity                                                   not specified
    S   [  2.00] 2.00
    P      2.00
 

 *******************************************************************************
                  Iteration          Convergence                     Energy [au]
 *******************************************************************************
                          1        0.261814E-01                  -5.246264729087
                          2        0.905236E-02                  -5.246529568708
                          3        0.681743E-04                  -5.246565167452
                          4        0.792829E-08                  -5.246565169473

[...]
 flops   171 x    43 x    43           2568005838     100.0%      0.0%      0.0%
 flops    13 x     5 x    32           4504489600     100.0%      0.0%      0.0%
 flops     5 x    13 x    32           4507888320     100.0%      0.0%      0.0%
 flops   160 x    43 x    43           7208437440     100.0%      0.0%      0.0%
 flops   677 x    43 x    43           8116496132     100.0%      0.0%      0.0%
 flops   690 x    43 x    43           8272352040     100.0%      0.0%      0.0%
 flops    25 x     5 x    32          10394672000     100.0%      0.0%      0.0%
 flops     5 x    25 x    32          10406832000     100.0%      0.0%      0.0%
 flops   171 x    43 x   115          11938110210     100.0%      0.0%      0.0%
 flops   171 x    43 x   139          14429541906     100.0%      0.0%      0.0%
 flops    13 x    32 x     5          16320096000     100.0%      0.0%      0.0%
 flops     5 x    32 x    13          16320096000     100.0%      0.0%      0.0%
 flops   696 x    43 x    43          16688571072     100.0%      0.0%      0.0%
 flops   677 x    43 x   115          19966070460     100.0%      0.0%      0.0%
 flops   690 x    43 x   115          20349466200     100.0%      0.0%      0.0%
 flops   171 x    43 x   127          21973043430     100.0%      0.0%      0.0%
 flops   677 x    43 x   139          24132902556     100.0%      0.0%      0.0%
 flops   690 x    43 x   139          24596311320     100.0%      0.0%      0.0%
 flops    13 x    11 x    13          26669061562     100.0%      0.0%      0.0%
 flops    13 x    13 x    43          30839200444     100.0%      0.0%      0.0%
 flops   160 x    43 x   115          33510484800     100.0%      0.0%      0.0%
 flops   171 x    43 x    32          36310408128     100.0%      0.0%      0.0%
 flops   171 x    32 x    43          36310408128     100.0%      0.0%      0.0%
 flops   677 x    43 x   127          36749144180     100.0%      0.0%      0.0%
 flops   690 x    43 x   127          37454814600     100.0%      0.0%      0.0%
 flops    25 x    32 x     5          37662560000     100.0%      0.0%      0.0%
 flops     5 x    32 x    25          37662560000     100.0%      0.0%      0.0%
 flops   160 x    43 x   139          40503977280     100.0%      0.0%      0.0%
 flops   696 x    43 x   115          41052836160     100.0%      0.0%      0.0%
 flops   696 x    43 x   139          49620384576     100.0%      0.0%      0.0%
 flops    13 x    11 x    25          59070139700     100.0%      0.0%      0.0%
 flops    25 x    11 x    13          59070139700     100.0%      0.0%      0.0%
 flops   160 x    43 x   127          61678718400     100.0%      0.0%      0.0%
 flops    25 x    13 x    43          66786552950     100.0%      0.0%      0.0%
 flops    13 x    25 x    43          67569264750     100.0%      0.0%      0.0%
 flops   696 x    43 x   127          75561017280     100.0%      0.0%      0.0%
 flops   160 x    32 x    43         101923952640     100.0%      0.0%      0.0%
 flops   160 x    43 x    32         101923952640     100.0%      0.0%      0.0%
 flops   677 x    32 x    43         114763480192     100.0%      0.0%      0.0%
 flops   677 x    43 x    32         114763480192     100.0%      0.0%      0.0%
 flops   690 x    32 x    43         116967210240     100.0%      0.0%      0.0%
 flops   690 x    43 x    32         116967210240     100.0%      0.0%      0.0%
 flops    25 x    11 x    25         117968400000     100.0%      0.0%      0.0%
 flops    25 x    25 x    43         136028565000     100.0%      0.0%      0.0%
 flops   171 x    32 x   115         168799325760     100.0%      0.0%      0.0%
 flops   171 x    32 x   139         204027011136     100.0%      0.0%      0.0%
 flops   696 x    43 x    32         235968632832     100.0%      0.0%      0.0%
 flops   696 x    32 x    43         235968632832     100.0%      0.0%      0.0%
 flops   677 x    32 x   115         282310949760     100.0%      0.0%      0.0%
 flops   690 x    32 x   115         287731987200     100.0%      0.0%      0.0%
 flops   171 x    32 x   127         310688614080     100.0%      0.0%      0.0%
 flops   677 x    32 x   139         341228017536     100.0%      0.0%      0.0%
 flops   690 x    32 x   139         347780401920     100.0%      0.0%      0.0%
 flops    13 x    13 x    32         436051950464     100.0%      0.0%      0.0%
 flops   160 x    32 x   115         473822668800     100.0%      0.0%      0.0%
 flops   171 x    32 x    32         513412282368     100.0%      0.0%      0.0%
 flops   677 x    32 x   127         519615806080     100.0%      0.0%      0.0%
 flops   690 x    32 x   127         529593657600     100.0%      0.0%      0.0%
 flops   160 x    32 x   139         572707399680     100.0%      0.0%      0.0%
 flops   696 x    32 x   115         580468008960     100.0%      0.0%      0.0%
 flops   696 x    32 x   139         701609158656     100.0%      0.0%      0.0%
 flops   160 x    32 x   127         872108390400     100.0%      0.0%      0.0%
 flops    25 x    13 x    32         944330795200     100.0%      0.0%      0.0%
 flops    13 x    25 x    32         955397976000     100.0%      0.0%      0.0%
 flops   696 x    32 x   127        1068397639680     100.0%      0.0%      0.0%
 flops   160 x    32 x    32        1441157283840     100.0%      0.0%      0.0%
 flops    13 x    32 x    13        1551654490880     100.0%      0.0%      0.0%
 flops   677 x    32 x    32        1622702231552     100.0%      0.0%      0.0%
 flops   690 x    32 x    32        1653861949440     100.0%      0.0%      0.0%
 flops    25 x    25 x    32        1923380640000     100.0%      0.0%      0.0%
 flops   696 x    32 x    32        3336486715392     100.0%      0.0%      0.0%
 flops    13 x    32 x    25        3436808128000     100.0%      0.0%      0.0%
 flops    25 x    32 x    13        3436808128000     100.0%      0.0%      0.0%
 flops    25 x    32 x    25        6863616000000     100.0%      0.0%      0.0%
 flops inhomo. stacks               8414389163376     100.0%      0.0%      0.0%
 flops total                        46.268308E+12     100.0%      0.0%      0.0%
 flops max/rank                    752.931266E+09     100.0%      0.0%      0.0%
 matmuls inhomo. stacks                   2409840     100.0%      0.0%      0.0%
 matmuls total                          907442796     100.0%      0.0%      0.0%
 number of processed stacks              38826750     100.0%      0.0%      0.0%
 average stack size                                    23.4       0.0       0.0
 marketing flops                    51.245763E+12
 -------------------------------------------------------------------------------
 # multiplications                          13322
 max memory usage/rank             862.838784E+06
 # max total images/rank                        5
 # max 3D layers                                1
 # MPI messages exchanged               121496640
 MPI messages size (bytes):
  total size                         7.137036E+12
  min size                           0.000000E+00
  max size                         935.424000E+03
  average size                      58.742664E+03
 MPI breakdown and total messages size (bytes):
             size <=      128              441180                        0
       128 < size <=     8192            50101024             410427588608
      8192 < size <=    32768            22011177             578044625840
     32768 < size <=   131072            34907579            1372151773904
    131072 < size <=  4194304            14035680            4776256852400
   4194304 < size <= 16777216                   0                        0
  16777216 < size                               0                        0
 -------------------------------------------------------------------------------

 *** WARNING in dbcsr/mm/dbcsr_mm.F:268 :: Using a non-square number of ***
 *** MPI ranks might lead to poor performance.                          ***
 *** Used ranks: 80                                                     ***
 *** Suggested: 81 169                                                  ***

 -------------------------------------------------------------------------------
 
 MEMORY| Estimated peak process memory [MiB]                                 828

 -------------------------------------------------------------------------------
 ----                             MULTIGRID INFO                            ----
 -------------------------------------------------------------------------------
 count for grid        1:         468603          cutoff [a.u.]          600.00
 count for grid        2:        3294858          cutoff [a.u.]          200.00
 count for grid        3:        2706944          cutoff [a.u.]           66.67
 count for grid        4:        3454294          cutoff [a.u.]           22.22
 count for grid        5:        2952642          cutoff [a.u.]            7.41
 total gridlevel count  :       12877341

 -------------------------------------------------------------------------------
 -                                                                             -
 -                         MESSAGE PASSING PERFORMANCE                         -
 -                                                                             -
 -------------------------------------------------------------------------------

 ROUTINE             CALLS      AVE VOLUME [Bytes]
 MP_Group              822
 MP_Bcast            23523                  32419.
 MP_Allreduce       130109                    211.
 MP_Sync               497
 MP_Alltoall         66569                2845848.
 MP_SendRecv          7268                   5259.
 MP_ISendRecv       339621                  49867.
 MP_Wait           3021562
 MP_comm_split         492
 MP_ISend          3449874                  55264.
 MP_IRecv          3449874                  55287.
 MP_Recv               418                  81144.
 MP_Memory         1496844
 -------------------------------------------------------------------------------


 -------------------------------------------------------------------------------
 -                                                                             -
 -                           R E F E R E N C E S                               -
 -                                                                             -
 -------------------------------------------------------------------------------
 
 CP2K version 7.0 (Development Version), the CP2K developers group (2018).
 CP2K is freely available from https://www.cp2k.org/ .

 Schuett, Ole; Messmer, Peter; Hutter, Juerg; VandeVondele, Joost. 
 Electronic Structure Calculations on Graphics Processing Units, John Wiley & Sons, Ltd, 173-190 (2016). 
 GPU-Accelerated Sparse Matrix-Matrix Multiplication for Linear Scaling Density Functional Theory.
 http://dx.doi.org/10.1002/9781118670712.ch8


 Borstnik, U; VandeVondele, J; Weber, V; Hutter, J. 
 PARALLEL COMPUTING, 40 (5-6), 47-58 (2014). 
 Sparse matrix multiplication: The distributed block-compressed sparse
 row library.
 http://dx.doi.org/10.1016/j.parco.2014.03.012


 Hutter, J; Iannuzzi, M; Schiffmann, F; VandeVondele, J. 
 WILEY INTERDISCIPLINARY REVIEWS-COMPUTATIONAL MOLECULAR SCIENCE, 4 (1), 15-25 (2014). 
 CP2K: atomistic simulations of condensed matter systems.
 http://dx.doi.org/10.1002/wcms.1159


 Grimme, S; Ehrlich, S; Goerigk, L. 
 JOURNAL OF COMPUTATIONAL CHEMISTRY, 32, 1456 (2011). 
 Effect of the damping function in dispersion corrected density functional theory.
 http://dx.doi.org/10.1002/jcc.21759


 Grimme, S; Antony, J; Ehrlich, S; Krieg, H. 
 JOURNAL OF CHEMICAL PHYSICS, 132 (15), 154104 (2010). 
 A consistent and accurate ab initio parametrization of density
 functional dispersion correction (DFT-D) for the 94 elements H-Pu.
 http://dx.doi.org/10.1063/1.3382344


 VandeVondele, J; Hutter, J. 
 JOURNAL OF CHEMICAL PHYSICS, 127 (11), 114105 (2007). 
 Gaussian basis sets for accurate calculations on molecular systems in
 gas and condensed phases.
 http://dx.doi.org/10.1063/1.2770708


 Krack, M. 
 THEORETICAL CHEMISTRY ACCOUNTS, 114 (1-3), 145-152 (2005). 
 Pseudopotentials for H to Kr optimized for gradient-corrected
 exchange-correlation functionals.
 http://dx.doi.org/10.1007/s00214-005-0655-y


 VandeVondele, J; Krack, M; Mohamed, F; Parrinello, M; Chassaing, T;
 Hutter, J. COMPUTER PHYSICS COMMUNICATIONS, 167 (2), 103-128 (2005). 
 QUICKSTEP: Fast and accurate density functional calculations using a
 mixed Gaussian and plane waves approach.
 http://dx.doi.org/10.1016/j.cpc.2004.12.014


 Frigo, M; Johnson, SG. 
 PROCEEDINGS OF THE IEEE, 93 (2), 216-231 (2005). 
 The design and implementation of FFTW3.
 http://dx.doi.org/10.1109/JPROC.2004.840301


 Kolafa, J. 
 JOURNAL OF COMPUTATIONAL CHEMISTRY, 25 (3), 335-342 (2004). 
 Time-reversible always stable predictor-corrector method for molecular dynamics of polarizable molecules.
 http://dx.doi.org/10.1002/jcc.10385


 VandeVondele, J; Hutter, J. 
 JOURNAL OF CHEMICAL PHYSICS, 118 (10), 4365-4369 (2003). 
 An efficient orbital transformation method for electronic structure
 calculations.
 http://dx.doi.org/10.1063/1.1543154


 Hartwigsen, C; Goedecker, S; Hutter, J. 
 PHYSICAL REVIEW B, 58 (7), 3641-3662 (1998). 
 Relativistic separable dual-space Gaussian pseudopotentials from H to Rn.
 http://dx.doi.org/10.1103/PhysRevB.58.3641


 Lippert, G; Hutter, J; Parrinello, M. 
 MOLECULAR PHYSICS, 92 (3), 477-487 (1997). 
 A hybrid Gaussian and plane wave density functional scheme.
 http://dx.doi.org/10.1080/002689797170220


 Perdew, JP; Burke, K; Ernzerhof, M. 
 PHYSICAL REVIEW LETTERS, 77 (18), 3865-3868 (1996). 
 Generalized gradient approximation made simple.
 http://dx.doi.org/10.1103/PhysRevLett.77.3865


 Goedecker, S; Teter, M; Hutter, J. 
 PHYSICAL REVIEW B, 54 (3), 1703-1710 (1996). 
 Separable dual-space Gaussian pseudopotentials.
 http://dx.doi.org/10.1103/PhysRevB.54.1703


 -------------------------------------------------------------------------------
 -                                                                             -
 -                                T I M I N G                                  -
 -                                                                             -
 -------------------------------------------------------------------------------
 SUBROUTINE                       CALLS  ASD         SELF TIME        TOTAL TIME
                                MAXIMUM       AVERAGE  MAXIMUM  AVERAGE  MAXIMUM
 CP2K                                 1  1.0    0.128    0.141 3944.856 3944.881
 cp_geo_opt                           1  2.0    0.001    0.001 3943.914 3943.970
 geoopt_bfgs                          1  3.0    0.018    0.033 3943.913 3943.970
 cp_eval_at                          24  4.0    0.023    0.038 3933.774 3933.817
 qs_forces                           23  5.0    0.030    0.049 3899.956 3899.989
 qs_energies                         24  6.0    0.061    0.074 3739.571 3739.657
 scf_env_do_scf                      24  7.0    0.005    0.021 3612.581 3612.601
 scf_env_do_scf_inner_loop          916  8.0    0.056    0.095 3407.836 3407.900
 qs_rho_update_rho                  940  9.0    0.005    0.019 1601.786 1603.374
 calculate_rho_elec                 940 10.0  878.737 1079.209 1601.781 1603.367
 rebuild_ks_matrix                  939  9.9    0.003    0.004 1595.843 1596.215
 qs_ks_build_kohn_sham_matrix       939 10.9    0.162    0.430 1595.840 1596.212
 qs_ks_update_qs_env                943  9.0    0.008    0.015 1447.178 1447.707
 sum_up_and_integrate               493 11.9    1.686    2.098  966.217  966.381
 integrate_v_rspace                 493 12.9  562.935  684.231  964.529  965.047
 rs_pw_transfer                    7260 13.0    0.081    0.097  691.701  741.677
 density_rs2pw                      940 11.0    0.068    0.094  662.256  716.114
 pw_transfer                      15289 13.3    1.586    1.871  692.852  695.897
 fft_wrap_pw1pw2                  13411 14.4    0.160    0.184  686.267  689.213
 fft_wrap_pw1pw2_600               7679 15.7   42.064   49.133  623.080  625.955
 fft3d_ps                         13411 16.4  144.849  167.618  588.550  597.272
 mp_waitany                      301832 14.9  448.983  519.610  448.983  519.610
 qs_vxc_create                      939 11.9    0.017    0.031  503.750  505.780
 dbcsr_multiply_generic           13322 13.8    0.788    1.112  494.023  495.182
 qs_scf_new_mos                     916  9.0    0.008    0.009  481.389  481.944
 qs_scf_loop_do_ot                  916 10.0    0.030    0.083  481.381  481.936
 mp_waitall_1                   2719730 16.7  413.610  446.463  413.610  446.463
 ot_scf_mini                        916 11.0    0.054    0.084  440.037  440.400
 mp_alltoall_z22v                 13411 18.4  384.636  421.244  384.636  421.244
 rs_pw_transfer_RS2PW_600           988 12.9   53.382   63.578  343.685  396.961
 multiply_cannon                  13322 14.8    4.010    4.218  360.721  367.573
 xc_vxc_pw_create                   493 12.9   12.453   15.390  356.447  358.455
 xc_rho_set_and_dset_create         939 13.9    2.810    3.244  279.497  287.259
 potential_pw2rs                    493 13.9    0.217    0.286  260.551  261.101
 x_to_yz                           5236 18.0   22.244   28.339  236.381  245.510
 multiply_cannon_metrocomm3      266440 15.8    0.702    0.754  215.900  234.936
 ot_mini                            916 12.0    0.006    0.007  223.012  223.273
 init_scf_loop                       27  8.0    0.006    0.008  204.392  204.413
 yz_to_x                           3876 17.1   15.224   19.261  183.996  203.831
 mp_alltoall_d11v                 10900 15.5  165.232  195.533  165.232  195.533
 rs_distribute_matrix              1456 12.0    0.822    2.040  159.823  189.530
 qs_ks_update_qs_env_forces          23  6.0    0.000    0.000  153.326  153.374
 xc_exc_calc                        446 13.0    1.030    1.269  147.286  147.366
 qs_ot_get_derivative               470 13.0    0.005    0.018  137.502  137.849
 rs_pw_transfer_PW2RS_600           540 15.5   46.008   51.995  130.526  131.397
 prepare_preconditioner              27  9.0    0.000    0.000  123.037  123.086
 multiply_cannon_metrocomm1      266440 15.8    0.773    0.824   79.142  120.345
 make_preconditioner                 27 10.0    0.005    0.016  114.876  114.923
 cp_fm_syevd                        492 14.0    0.003    0.005  100.034  109.861
 make_full_all                       27 11.0    0.010    0.021  107.907  107.930
 cp_fm_redistribute_end             492 15.0   55.009  101.094   56.577  105.440
 qs_ot_get_p                        943 11.9    0.012    0.034   99.200  100.097
 mp_sum_d                         21344 14.6   78.431   97.065   78.431   97.065
 cp_fm_syevd_base                   492 14.9   39.299   89.106   39.299   89.106
 rs_pw_transfer_RS2PW_200           940 13.0    9.242   10.258   70.510   84.668
 ot_new_cg_direction                470 13.0    0.007    0.032   83.509   83.603
 apply_preconditioner_dbcsr         497 14.0    0.001    0.002   82.772   83.110
 apply_all                          497 15.0    0.033    0.056   82.771   83.109
 -------------------------------------------------------------------------------

 The number of warnings for this run is : 1
 
 -------------------------------------------------------------------------------
  **** **** ******  **  PROGRAM ENDED AT                 2019-05-23 13:37:52.432
 ***** ** ***  *** **   PROGRAM RAN ON            blg7220.int.ets1.calculquebec.
 **    ****   ******    PROGRAM RAN BY                                       rzk
 ***** **    ** ** **   PROGRAM PROCESS ID                                405384
  **** **  *******  **  PROGRAM STOPPED IN /lustre03/project/6004141/rzk/GaN-car
                                           bene/03-Carbene/02-NC
