     147
 i =        1, E =     -6095.3611927818
 Ga         0.0004437772       -0.0025116554       -0.5864845998
  N         0.0033463883        1.8713023834        0.5656489855
 Ga         0.0028151100        1.8390876900        2.5962352839
  N        -0.0000747616       -0.0036676192        3.2297518527
 Ga         0.0005210516       -0.0031808272        5.2211525932
  N         0.0032143912        1.8716283066        5.8074532562
 Ga         0.0030672753        1.8703763220        7.8063171247
  N        -0.0000413512       -0.0028489755        8.4075674168
 Ga        -0.0001114005       -0.0003217838       10.4054401140
  N         0.0029506380        1.8715231542       11.0125345429
 Ga         0.0031246740        1.8781558745       13.0068579904
  N         0.0004794103        0.0078574490       13.6138226388
 Ga        -0.0006241424        0.0276091896       15.6161412861
  N         0.0228512445        1.8935263235       16.2549188178
 Ga        -0.0196647089        1.8719898802       18.3126083487
  N         0.0148723150       -0.0018817370       18.6785519267
 Ga        -1.6181587921        2.8028431999        0.2817224247
  N        -1.6212300865        4.6720916445        0.5657892296
 Ga        -1.5928098612        4.6876654963        2.5959186084
  N        -1.6193289009        2.8020260836        3.1877029707
 Ga        -1.6188944696        2.8027379612        5.1990866524
  N        -1.6192352054        4.6728339624        5.8075479896
 Ga        -1.6185170199        4.6733732114        7.8066351294
  N        -1.6198543650        2.8023710593        8.4094057477
 Ga        -1.6191452964        2.8034916881       10.4051698052
  N        -1.6129884063        4.6741604418       11.0123247051
 Ga        -1.6088587290        4.6742983284       13.0084450530
  N        -1.6186059685        2.8044940464       13.6320829996
 Ga        -1.6133350927        2.7949435943       15.6423252535
  N        -1.6236401998        4.6781952460       16.2050559130
 Ga        -1.6180448689        4.6720233382       18.2837302454
  N        -1.6076178691        2.8177625576       18.7578647012
 Ga        -3.2389105823        5.6088803257        0.2812293792
  N        -3.2333214943        7.4784439040        0.5654253555
 Ga        -3.2617566961        7.4932577097        2.5959964601
  N        -3.2394480661        5.6077930610        3.1882803404
 Ga        -3.2392489804        5.6084362279        5.1998227609
  N        -3.2335627941        7.4779639482        5.8088800098
 Ga        -3.2347171890        7.4776428556        7.8083931276
  N        -3.2389222990        5.6073794864        8.4141925418
 Ga        -3.2387571100        5.6087680286       10.4122994729
  N        -3.2370674635        7.4830717709       11.0128490521
 Ga        -3.2334798556        7.4864953006       13.0100087014
  N        -3.2370859148        5.6069329794       13.5885085670
 Ga        -3.2373125843        5.6124071900       15.5816992995
  N        -3.2396661583        7.4868897594       16.1469601365
 Ga        -3.2469351244        7.4821660559       18.1954918867
  N        -3.2452912998        5.6147116707       18.6104695814
 Ga         3.2461341876       -0.0040643703        0.2818256164
  N         3.2454801592        1.8672588777        0.5650143089
 Ga         3.2720279264        1.8818161069        2.5982689700
  N         3.2451865701       -0.0037232167        3.1877403805
 Ga         3.2455819885       -0.0030881034        5.1991254518
  N         3.2461327793        1.8670068261        5.8073832504
 Ga         3.2467865125        1.8670145843        7.8067430722
  N         3.2460697047       -0.0033274340        8.4115939969
 Ga         3.2461859110       -0.0011119813       10.4086253328
  N         3.2459742533        1.8697233959       11.0153815153
 Ga         3.2436430598        1.8695291863       13.0122951634
  N         3.2493258335        0.0008582784       13.6262361268
 Ga         3.2572013321        0.0057879603       15.6307108773
  N         3.2149135482        1.8868735563       16.1834564670
 Ga         3.2907528389        1.8470214815       18.2092155346
  N         3.2286353393       -0.0137006492       18.6261991692
 Ga         1.6248041558        2.8033311496        0.2819089789
  N         1.6330403235        4.6726559030        0.5659540250
 Ga         1.6044233416        4.6877567712        2.5960436030
  N         1.6255502522        2.8020021347        3.1878930390
 Ga         1.6261696493        2.8027101239        5.1994225345
  N         1.6318989459        4.6728749929        5.8077467025
 Ga         1.6305494634        4.6731470731        7.8070320303
  N         1.6260533798        2.8023840655        8.4102701800
 Ga         1.6259406895        2.8042584157       10.4063228680
  N         1.6247652773        4.6743785458       11.0142518635
 Ga         1.6196650513        4.6750366211       13.0097244886
  N         1.6221771282        2.8054352237       13.6035172036
 Ga         1.6148912473        2.8044460615       15.5898496946
  N         1.6265221488        4.6573890895       16.1930226427
 Ga         1.6279184406        4.7381473233       18.2278719894
  N         1.6742631842        2.8326408697       18.7553120031
 Ga         0.0066203487        5.6088271262       -0.5861507894
  N         0.0095117746        7.4833881535        0.5661676595
 Ga         0.0089602018        7.4506437985        2.5961246701
  N         0.0060718414        5.6072090223        3.2286462429
 Ga         0.0066661492        5.6081150055        5.2198102495
  N         0.0094429240        7.4828421001        5.8068811052
 Ga         0.0088757747        7.4808947175        7.8058566753
  N         0.0062083968        5.6081772222        8.4067421713
 Ga         0.0069565680        5.6101337174       10.4041465709
  N         0.0086366397        7.4798902011       11.0169581256
 Ga         0.0075410597        7.4782350700       13.0170023558
  N         0.0046901250        5.6101857247       13.6332587977
 Ga         0.0110386028        5.6157473550       15.6421688414
  N         0.0146821576        7.4846012896       16.1992520571
 Ga         0.0061272314        7.4737505475       18.2651074328
  N        -0.0032585458        5.5997734493       18.6926635778
 Ga         6.4911040513       -0.0035339576        0.2816853772
  N         6.4970026163        1.8678442366        0.5650576324
 Ga         6.4701901236        1.8819638467        2.5983169304
  N         6.4915774045       -0.0036895492        3.1877073841
 Ga         6.4921660931       -0.0031224774        5.1990278286
  N         6.4972666741        1.8670642063        5.8070574445
 Ga         6.4954281703        1.8670214684        7.8062294051
  N         6.4907627554       -0.0033090161        8.4113810023
 Ga         6.4908303858       -0.0020916325       10.4086325599
  N         6.4959576468        1.8699124581       11.0153178804
 Ga         6.4961691711        1.8706001709       13.0141846299
  N         6.4891100769       -0.0010349350       13.6233915562
 Ga         6.4836835947       -0.0012481392       15.6270399259
  N         6.5011145946        1.8782409787       16.2026581963
 Ga         6.5256886284        1.8882119309       18.2755948804
  N         6.5003899309       -0.0076527030       18.5927643809
 Ga         4.8719324227        2.8030415297       -0.5604923755
  N         4.8748319219        4.6764547043        0.5650936210
 Ga         4.8743144044        4.6460743041        2.5982275058
  N         4.8713996735        2.8020447552        3.2290798778
 Ga         4.8718945142        2.8029306878        5.2212122423
  N         4.8747865488        4.6772822192        5.8096127119
 Ga         4.8742127884        4.6752193546        7.8099759102
  N         4.8715826283        2.8007864340        8.4088153061
 Ga         4.8706204238        2.8007486477       10.4076824018
  N         4.8742252620        4.6716267265       11.0112569782
 Ga         4.8709511496        4.6683148521       13.0074688036
  N         4.8685064679        2.7933794718       13.6163225574
 Ga         4.8620707979        2.7889548986       15.6184091387
  N         4.8701564010        4.6817601411       16.1220542562
 Ga         4.8872876496        4.6868378850       18.1604718627
  N         4.8782791364        2.8200946412       18.5925697187
 Ga         3.2517314725        5.6083205574        0.2813447540
  N         3.2513282516        7.4778453877        0.5653549369
 Ga         3.2794800425        7.4930570015        2.5959778476
  N         3.2518779382        5.6076783082        3.1882965775
 Ga         3.2525909885        5.6082950034        5.1998611316
  N         3.2524206744        7.4779281632        5.8087826478
 Ga         3.2528031497        7.4773780668        7.8082638078
  N         3.2514199518        5.6073511999        8.4143785226
 Ga         3.2503753665        5.6081803086       10.4125484524
  N         3.2552423329        7.4824694462       11.0129968080
 Ga         3.2538874583        7.4839403476       13.0105462251
  N         3.2445661034        5.6077923671       13.5951803860
 Ga         3.2341128674        5.6110328692       15.5901749437
  N         3.2673406206        7.4885585176       16.1589749212
 Ga         3.2784382800        7.4863176981       18.2123815306
  N         3.2754764607        5.6048126708       18.6280158420
  C         1.5068397822        2.7088280157       20.1823674855
  H         1.8602446872        1.7533479477       20.6634154835
  H         0.7914040743        3.4206939682       20.6879188083
     147
 i =        2, E =     -6095.3893175001
 Ga         0.0005698540       -0.0025617467       -0.5850544933
  N         0.0033420840        1.8708718959        0.5652588264
 Ga         0.0028652435        1.8390846707        2.5970681561
  N        -0.0001335347       -0.0036350263        3.2295444978
 Ga         0.0004553077       -0.0031435189        5.2216207087
  N         0.0033402049        1.8717505303        5.8061146480
 Ga         0.0032779420        1.8706373336        7.8057924509
  N        -0.0000353550       -0.0024479864        8.4081487792
 Ga         0.0000899706       -0.0008551352       10.4071662359
  N         0.0015269609        1.8713163416       11.0098673041
 Ga        -0.0006343538        1.8752120571       13.0023173544
  N         0.0029118784        0.0082568952       13.6159515228
 Ga         0.0057337954        0.0231422484       15.6154174334
  N         0.0404766649        1.8995473355       16.2266106695
 Ga        -0.0908207612        1.8162938893       18.2007949003
  N         0.0309747269       -0.0132383544       18.6878628840
 Ga        -1.6184006250        2.8028577360        0.2830497722
  N        -1.6205990604        4.6724203978        0.5659622319
 Ga        -1.5926625776        4.6877624560        2.5969643601
  N        -1.6192892691        2.8019607551        3.1872029294
 Ga        -1.6188906072        2.8027462329        5.1994237236
  N        -1.6192840931        4.6728619535        5.8064997083
 Ga        -1.6185841146        4.6735259932        7.8066846226
  N        -1.6197210009        2.8021793794        8.4096986158
 Ga        -1.6202467218        2.8035055423       10.4061865495
  N        -1.6138389038        4.6732771837       11.0119893285
 Ga        -1.6122046897        4.6722504253       13.0081332762
  N        -1.6198020104        2.8015305709       13.6376856849
 Ga        -1.6162065321        2.7943028256       15.6474420530
  N        -1.6307131577        4.6776404721       16.2074429238
 Ga        -1.6131650588        4.6793771405       18.2844900552
  N        -1.5898751985        2.8296834496       18.7540949070
 Ga        -3.2389371890        5.6086076390        0.2825719332
  N        -3.2337601471        7.4786566554        0.5651064321
 Ga        -3.2617938520        7.4933395497        2.5969524862
  N        -3.2393990592        5.6078435080        3.1877578482
 Ga        -3.2392803429        5.6084374238        5.2001531915
  N        -3.2335887532        7.4780365950        5.8077956448
 Ga        -3.2347191365        7.4776782421        7.8083532437
  N        -3.2389780532        5.6074970636        8.4146854175
 Ga        -3.2391105049        5.6089883303       10.4143502388
  N        -3.2372070738        7.4831673044       11.0138052318
 Ga        -3.2316470820        7.4852673476       13.0116073245
  N        -3.2375837545        5.6071528767       13.5846271714
 Ga        -3.2387122729        5.6174982659       15.5773707415
  N        -3.2301503544        7.4906320093       16.1537027936
 Ga        -3.2308313970        7.4745329055       18.2034739305
  N        -3.2388660996        5.6139211282       18.6124037777
 Ga         3.2462537841       -0.0040597187        0.2830874575
  N         3.2457664821        1.8673519754        0.5655258210
 Ga         3.2721640700        1.8819029463        2.5993495831
  N         3.2452277490       -0.0037812073        3.1872258852
 Ga         3.2455235265       -0.0030553620        5.1994570757
  N         3.2460010443        1.8670682661        5.8062962871
 Ga         3.2465893483        1.8672812761        7.8066794658
  N         3.2459952556       -0.0031343170        8.4122123470
 Ga         3.2461144363       -0.0018271898       10.4106315204
  N         3.2467939535        1.8695742371       11.0113031012
 Ga         3.2497804966        1.8685011468       13.0071003729
  N         3.2521163875        0.0015859498       13.6162217407
 Ga         3.2581588420        0.0065351325       15.6180753148
  N         3.2114717796        1.8852527157       16.1742877659
 Ga         3.3316663721        1.8168526184       18.1484528365
  N         3.2252843968       -0.0028971947       18.6783256494
 Ga         1.6249936679        2.8033476260        0.2832710385
  N         1.6324236464        4.6729769699        0.5662066951
 Ga         1.6043433003        4.6878847080        2.5972017363
  N         1.6254977287        2.8020055805        3.1873044507
 Ga         1.6261766556        2.8027520426        5.1995808378
  N         1.6319227689        4.6727958551        5.8065915273
 Ga         1.6305069299        4.6731081985        7.8068916657
  N         1.6258750470        2.8023845874        8.4113828751
 Ga         1.6255477634        2.8040511725       10.4088681217
  N         1.6257012486        4.6750819651       11.0090626962
 Ga         1.6226404796        4.6783534593       13.0034547947
  N         1.6208029878        2.8030565425       13.5771910240
 Ga         1.6184939521        2.8068440419       15.5453561591
  N         1.6196330786        4.6439966229       16.1762571345
 Ga         1.6112648004        4.7847788955       18.1547199351
  N         1.6698741497        2.8266031284       18.8717632834
 Ga         0.0066224031        5.6086827993       -0.5877196529
  N         0.0095268113        7.4826620276        0.5662334480
 Ga         0.0089600434        7.4504889727        2.5970688616
  N         0.0060629602        5.6072350071        3.2287298658
 Ga         0.0066698072        5.6080889547        5.2204604543
  N         0.0094407153        7.4829856337        5.8059377238
 Ga         0.0089033629        7.4809084686        7.8060618767
  N         0.0062233012        5.6080963762        8.4073590772
 Ga         0.0062049927        5.6096074613       10.4062694049
  N         0.0085513305        7.4792604913       11.0170961101
 Ga         0.0093549884        7.4762180909       13.0182324649
  N         0.0033297329        5.6032355993       13.6177010508
 Ga         0.0085481795        5.6080713390       15.6228092599
  N         0.0229156254        7.4770876119       16.1799121834
 Ga        -0.0092038557        7.4731781214       18.2481926463
  N        -0.0029639835        5.6082312291       18.7258336784
 Ga         6.4908991455       -0.0034486160        0.2830094944
  N         6.4966609333        1.8680382823        0.5655192330
 Ga         6.4700600887        1.8820820299        2.5992926086
  N         6.4916224826       -0.0037718407        3.1870728035
 Ga         6.4921713477       -0.0031549739        5.1992500373
  N         6.4973150249        1.8670305358        5.8059579815
 Ga         6.4953254151        1.8670951222        7.8062128685
  N         6.4906952532       -0.0031352746        8.4132082397
 Ga         6.4911586034       -0.0019437043       10.4124274127
  N         6.4953999081        1.8708741429       11.0167401044
 Ga         6.4928567841        1.8723235461       13.0165259199
  N         6.4910207339        0.0002526151       13.6165887581
 Ga         6.4910475331       -0.0005404144       15.6187070024
  N         6.4894348923        1.8786115221       16.2129874088
 Ga         6.5337201638        1.8911969986       18.2922067379
  N         6.4928407756       -0.0088421059       18.5828786424
 Ga         4.8719418001        2.8030259541       -0.5634079744
  N         4.8748451717        4.6761213677        0.5655771487
 Ga         4.8743261540        4.6459857008        2.5992711598
  N         4.8713703677        2.8020113640        3.2291486465
 Ga         4.8718406426        2.8029304169        5.2217385043
  N         4.8747857412        4.6773664397        5.8083330153
 Ga         4.8742220373        4.6754484141        7.8097429488
  N         4.8714357837        2.8009217314        8.4089892875
 Ga         4.8709333367        2.8019297033       10.4092083455
  N         4.8738501792        4.6725130112       11.0113985445
 Ga         4.8687757635        4.6721993693       13.0086227385
  N         4.8665306549        2.7998739549       13.6125004315
 Ga         4.8595362775        2.8048588405       15.6157476661
  N         4.8740056388        4.6949501837       16.1470910199
 Ga         4.8866398550        4.6859291804       18.1924454459
  N         4.8753657006        2.8184430974       18.6057992334
 Ga         3.2517169369        5.6080315931        0.2826990655
  N         3.2517296106        7.4780798710        0.5649645279
 Ga         3.2796321554        7.4931055462        2.5968553419
  N         3.2518567153        5.6077889274        3.1878483741
 Ga         3.2525347646        5.6083325683        5.2002883186
  N         3.2523907070        7.4780379014        5.8077836137
 Ga         3.2527108785        7.4775046718        7.8083623628
  N         3.2513131751        5.6073811483        8.4140205829
 Ga         3.2510487216        5.6089247451       10.4134655609
  N         3.2561285818        7.4823571015       11.0141192621
 Ga         3.2550138137        7.4829726955       13.0130013566
  N         3.2422607487        5.6095524755       13.5962124399
 Ga         3.2358591059        5.6158999298       15.5950425421
  N         3.2740478681        7.4992584513       16.1742324190
 Ga         3.2784515081        7.4823801754       18.2310209348
  N         3.2609697569        5.5930829781       18.6461783781
  C         1.4387227265        2.6683426190       20.1750843865
  H         1.9045715728        1.7580261263       20.7123996929
  H         0.8178066699        3.4685262340       20.7380276037
     147
 i =        3, E =     -6095.3971323359
 Ga         0.0006377969       -0.0026308216       -0.5827652584
  N         0.0033351295        1.8707218833        0.5649377553
 Ga         0.0028348066        1.8390016198        2.5970348567
  N        -0.0001371244       -0.0036674761        3.2294803634
 Ga         0.0003867675       -0.0031749360        5.2215230268
  N         0.0033180198        1.8718077645        5.8066189316
 Ga         0.0030225413        1.8704422766        7.8065758069
  N        -0.0000001214       -0.0027926411        8.4079500152
 Ga        -0.0000570375       -0.0019566179       10.4062431829
  N        -0.0001371524        1.8706234844       11.0061251191
 Ga        -0.0054231687        1.8714574330       12.9965653726
  N         0.0038016637        0.0053707810       13.6129460930
 Ga         0.0120477291        0.0112998139       15.6095570757
  N         0.0377664148        1.8989160852       16.2033692793
 Ga        -0.1308066154        1.7838124259       18.1506925435
  N         0.0243393138       -0.0168634414       18.6747597750
 Ga        -1.6185792650        2.8028740932        0.2838633549
  N        -1.6205305805        4.6724450200        0.5660437080
 Ga        -1.5925078208        4.6878962262        2.5968930267
  N        -1.6193226817        2.8019661203        3.1869635460
 Ga        -1.6189900226        2.8027436376        5.1992103383
  N        -1.6194088582        4.6728646612        5.8069085285
 Ga        -1.6188740884        4.6736993599        7.8072122489
  N        -1.6201437001        2.8022369263        8.4092071854
 Ga        -1.6220640886        2.8031938762       10.4049335967
  N        -1.6150624945        4.6724296123       11.0108851371
 Ga        -1.6155650021        4.6710595698       13.0060006567
  N        -1.6220310759        2.8002380258       13.6343896453
 Ga        -1.6252669178        2.8031563547       15.6403047273
  N        -1.6312703774        4.6789490677       16.2132674317
 Ga        -1.6072165180        4.6743636450       18.2957312133
  N        -1.5871521611        2.8194387208       18.7312194570
 Ga        -3.2389964353        5.6083920754        0.2834406243
  N        -3.2339041459        7.4787095005        0.5647954813
 Ga        -3.2618381705        7.4933841209        2.5969160570
  N        -3.2393869510        5.6078718091        3.1875163961
 Ga        -3.2393024058        5.6084807198        5.1998773302
  N        -3.2336162458        7.4780411150        5.8081804489
 Ga        -3.2346917109        7.4776613881        7.8088111347
  N        -3.2391277331        5.6076767338        8.4144866739
 Ga        -3.2395432045        5.6090861733       10.4134752876
  N        -3.2371772677        7.4829857295       11.0121809887
 Ga        -3.2307503465        7.4839685710       13.0083256011
  N        -3.2387362232        5.6080160043       13.5920894779
 Ga        -3.2390280959        5.6188611813       15.5874553001
  N        -3.2215876904        7.4934273526       16.1666975665
 Ga        -3.2258794869        7.4769846578       18.2249973089
  N        -3.2324231149        5.6129409328       18.6047130035
 Ga         3.2463572464       -0.0040193432        0.2838792253
  N         3.2456567728        1.8672515984        0.5656600987
 Ga         3.2724162597        1.8819752201        2.5990778509
  N         3.2452282726       -0.0037908630        3.1870816305
 Ga         3.2455573319       -0.0031020150        5.1993909802
  N         3.2459674147        1.8670913001        5.8069350839
 Ga         3.2468089994        1.8671437949        7.8076970028
  N         3.2458657542       -0.0034852501        8.4119515669
 Ga         3.2466129735       -0.0030853496       10.4097622607
  N         3.2485417856        1.8693510347       11.0048400356
 Ga         3.2553886370        1.8671705489       12.9979158720
  N         3.2538154322        0.0009858023       13.6067893419
 Ga         3.2592192834        0.0059060864       15.6053107975
  N         3.2190926838        1.8842018631       16.1772390748
 Ga         3.3472831680        1.7928893412       18.1410234917
  N         3.2323644591       -0.0044764468       18.6896028297
 Ga         1.6251408067        2.8033679792        0.2840849565
  N         1.6323705811        4.6729955639        0.5663026603
 Ga         1.6042171113        4.6880584138        2.5971511677
  N         1.6255277727        2.8019901919        3.1869509361
 Ga         1.6261770015        2.8027696472        5.1992737526
  N         1.6319617181        4.6728174307        5.8071370535
 Ga         1.6304355923        4.6733887901        7.8078047136
  N         1.6257111686        2.8022856920        8.4104712908
 Ga         1.6252940947        2.8035533928       10.4076969113
  N         1.6270826091        4.6763152022       11.0017162169
 Ga         1.6243066178        4.6820507954       12.9934836987
  N         1.6214541663        2.8021474606       13.5659777189
 Ga         1.6236979783        2.8092174502       15.5324648093
  N         1.6189457011        4.6470496586       16.1757314065
 Ga         1.5947747189        4.8070277966       18.1420506438
  N         1.6741125776        2.8263671509       18.9594406558
 Ga         0.0066407759        5.6085711273       -0.5885923361
  N         0.0095163274        7.4825360350        0.5662681675
 Ga         0.0089670330        7.4503141980        2.5969932780
  N         0.0060458536        5.6072460106        3.2290322396
 Ga         0.0066093642        5.6081876704        5.2206041108
  N         0.0095525544        7.4831476225        5.8068346045
 Ga         0.0092183243        7.4811726346        7.8072958338
  N         0.0057768237        5.6081406826        8.4069480574
 Ga         0.0049925217        5.6097439927       10.4055231269
  N         0.0092322568        7.4789949127       11.0147049235
 Ga         0.0121970325        7.4764836693       13.0140602309
  N         0.0023888960        5.6008811913       13.6081007376
 Ga         0.0027857771        5.6076247482       15.6099935141
  N         0.0237477290        7.4745877497       16.1843840302
 Ga        -0.0077825195        7.4771144618       18.2595219995
  N        -0.0056223583        5.6195370388       18.7253316310
 Ga         6.4907620915       -0.0034021916        0.2838750557
  N         6.4967380843        1.8679662077        0.5657078062
 Ga         6.4698646719        1.8821851654        2.5990928644
  N         6.4916471015       -0.0037877175        3.1868202966
 Ga         6.4921464149       -0.0031509303        5.1989930700
  N         6.4973403865        1.8669324818        5.8064981931
 Ga         6.4951734361        1.8667202572        7.8068714222
  N         6.4908715313       -0.0030062212        8.4144804399
 Ga         6.4915634518       -0.0014276812       10.4134926626
  N         6.4944734299        1.8713513609       11.0176612483
 Ga         6.4908609452        1.8711800867       13.0166907732
  N         6.4917814366        0.0001915973       13.6176622814
 Ga         6.4936876139        0.0031577132       15.6212604242
  N         6.4864448821        1.8803177482       16.2210946028
 Ga         6.5245248126        1.8925461147       18.3035254627
  N         6.4966673365       -0.0043436382       18.5642693845
 Ga         4.8719376889        2.8030345805       -0.5650643813
  N         4.8748305578        4.6762123605        0.5658619123
 Ga         4.8743395427        4.6458179823        2.5991927675
  N         4.8713602304        2.8019942603        3.2294243101
 Ga         4.8718770795        2.8029588745        5.2217681836
  N         4.8748434742        4.6774895420        5.8085239015
 Ga         4.8743938600        4.6757533410        7.8098986719
  N         4.8717406225        2.8014339264        8.4079637350
 Ga         4.8722885066        2.8030974897       10.4073017180
  N         4.8730833556        4.6734845225       11.0092586292
 Ga         4.8689309647        4.6749419524       13.0051283504
  N         4.8662289377        2.8052281706       13.6132786153
 Ga         4.8663926241        2.8150327313       15.6168272600
  N         4.8771823208        4.7011218440       16.1709495394
 Ga         4.8843621684        4.6859705018       18.2257309140
  N         4.8666104452        2.8142985840       18.5953446551
 Ga         3.2517354130        5.6078318284        0.2835379679
  N         3.2518967378        7.4781529316        0.5645772541
 Ga         3.2797346660        7.4931796156        2.5967352605
  N         3.2518748169        5.6078682249        3.1876911027
 Ga         3.2525620010        5.6084629276        5.2001931523
  N         3.2522752485        7.4781923825        5.8082703490
 Ga         3.2524301273        7.4780113909        7.8089001432
  N         3.2516687286        5.6078675896        8.4120997750
 Ga         3.2521988196        5.6104370880       10.4102008087
  N         3.2564804428        7.4821591726       11.0134837075
 Ga         3.2534624402        7.4843023398       13.0109538671
  N         3.2427877337        5.6114052862       13.5991995027
 Ga         3.2446194101        5.6196540450       15.5991914038
  N         3.2751602874        7.5028447569       16.1855300651
 Ga         3.2738885297        7.4715100440       18.2470608787
  N         3.2446550520        5.5841259879       18.6343775591
  C         1.4920846141        2.7041396690       20.1957342364
  H         1.8576374592        1.8027871484       20.7163406060
  H         0.8387332503        3.4090441039       20.7356830541
     147
 i =        4, E =     -6095.4008827462
 Ga         0.0006309933       -0.0026596618       -0.5824047536
  N         0.0033232987        1.8706840496        0.5652085271
 Ga         0.0028344158        1.8390342696        2.5970317442
  N        -0.0001154132       -0.0036780017        3.2297353609
 Ga         0.0003852676       -0.0031611536        5.2214511470
  N         0.0032439780        1.8718145419        5.8066390515
 Ga         0.0027308744        1.8703564076        7.8062351238
  N         0.0000349768       -0.0030793709        8.4078657061
 Ga        -0.0001900878       -0.0026494103       10.4054429674
  N        -0.0008872887        1.8702098533       11.0045108622
 Ga        -0.0064388605        1.8703246934       12.9945202193
  N         0.0036023503        0.0035577886       13.6083683174
 Ga         0.0140168353        0.0043572737       15.6041186715
  N         0.0299040025        1.8952342152       16.1980489360
 Ga        -0.1278794894        1.7843242467       18.1590767633
  N         0.0160696337       -0.0145440086       18.6648555520
 Ga        -1.6186223775        2.8028496672        0.2835367132