 DBCSR| Multiplication driver                                               BLAS
 DBCSR| Multrec recursion limit                                              512
 DBCSR| Multiplication stack size                                           1000
 DBCSR| Maximum elements for images                                    UNLIMITED
 DBCSR| Multiplicative factor virtual images                                   1
 DBCSR| Multiplication size stacks                                             3
 DBCSR| Number of 3D layers                                               SINGLE
 DBCSR| Use MPI memory allocation                                              T
 DBCSR| Use RMA algorithm                                                      F
 DBCSR| Use Communication thread                                               T
 DBCSR| Communication thread load                                             87


  **** **** ******  **  PROGRAM STARTED AT               2019-07-21 20:03:09.258
 ***** ** ***  *** **   PROGRAM STARTED ON        blg8440.int.ets1.calculquebec.
 **    ****   ******    PROGRAM STARTED BY                                   rzk
 ***** **    ** ** **   PROGRAM PROCESS ID                                180060
  **** **  *******  **  PROGRAM STARTED IN /lustre04/scratch/rzk/rzk/GaN-carbene
                                           /443-adatoms-both-2x2/09-BondBreaking
                                           -CH/04-0401-H2C-to-NTop-OPT

 CP2K| version string:                    CP2K version 7.0 (Development Version)
 CP2K| source code revision number:                                    svn:18619
 CP2K| cp2kflags: libint fftw3 libxc parallel mpi3 scalapack mkl                
 CP2K| is freely available from                            https://www.cp2k.org/
 CP2K| Program compiled at                          Sun Apr  7 00:48:11 EDT 2019
 CP2K| Program compiled on                      beluga2.int.ets1.calculquebec.ca
 CP2K| Program compiled for                    Beluga-Linux-x86-64-intel-openmpi
 CP2K| Data directory path    /home/rzk/projects/def-rzk/group/cp2k/cp2k-mcgill/
 CP2K| Input file name                                                 start.inp
 
 GLOBAL| Force Environment number                                              1
 GLOBAL| Basis set file name                                        BASIS_MOLOPT
 GLOBAL| Potential file name                                      GTH_POTENTIALS
 GLOBAL| MM Potential file name                                     MM_POTENTIAL
 GLOBAL| Coordinate file name                                      __STD_INPUT__
 GLOBAL| Method name                                                        CP2K
 GLOBAL| Project name                                                       TEST
 GLOBAL| Preferred FFT library                                             FFTW3
 GLOBAL| Preferred diagonalization lib.                                       SL
 GLOBAL| Run type                                                        GEO_OPT
 GLOBAL| All-to-all communication in single precision                          F
 GLOBAL| FFTs using library dependent lengths                                  F
 GLOBAL| Global print level                                               MEDIUM
 GLOBAL| MPI I/O enabled                                                       T
 GLOBAL| Total number of message passing processes                            80
 GLOBAL| Number of threads for this process                                    1
 GLOBAL| This output is from process                                           0
 GLOBAL| CPU model name :  Intel(R) Xeon(R) Gold 6148 CPU @ 2.40GHz

 MEMORY| system memory details [Kb]
 MEMORY|                        rank 0           min           max       average
 MEMORY| MemTotal             97523924      97523924      97523924      97523924
 MEMORY| MemFree              83942628      83792184      83949748      83905172
 MEMORY| Buffers                     0             0             0             0
 MEMORY| Cached                1335148       1335148       1350752       1342950
 MEMORY| Slab                  1064504       1064504       1278180       1171342
 MEMORY| SReclaimable           141408        141408        142804        142106
 MEMORY| MemLikelyFree        85419184      85285740      85443304      85390228


 *** Fundamental physical constants (SI units) ***

 *** Literature: B. J. Mohr and B. N. Taylor,
 ***             CODATA recommended values of the fundamental physical
 ***             constants: 2006, Web Version 5.1
 ***             http://physics.nist.gov/constants

 Speed of light in vacuum [m/s]                             2.99792458000000E+08
 Magnetic constant or permeability of vacuum [N/A**2]       1.25663706143592E-06
 Electric constant or permittivity of vacuum [F/m]          8.85418781762039E-12
 Planck constant (h) [J*s]                                  6.62606896000000E-34
 Planck constant (h-bar) [J*s]                              1.05457162825177E-34
 Elementary charge [C]                                      1.60217648700000E-19
 Electron mass [kg]                                         9.10938215000000E-31
 Electron g factor [ ]                                     -2.00231930436220E+00
 Proton mass [kg]                                           1.67262163700000E-27
 Fine-structure constant                                    7.29735253760000E-03
 Rydberg constant [1/m]                                     1.09737315685270E+07
 Avogadro constant [1/mol]                                  6.02214179000000E+23
 Boltzmann constant [J/K]                                   1.38065040000000E-23
 Atomic mass unit [kg]                                      1.66053878200000E-27
 Bohr radius [m]                                            5.29177208590000E-11

 *** Conversion factors ***

 [u] -> [a.u.]                                              1.82288848426455E+03
 [Angstrom] -> [Bohr] = [a.u.]                              1.88972613288564E+00
 [a.u.] = [Bohr] -> [Angstrom]                              5.29177208590000E-01
 [a.u.] -> [s]                                              2.41888432650478E-17
 [a.u.] -> [fs]                                             2.41888432650478E-02
 [a.u.] -> [J]                                              4.35974393937059E-18
 [a.u.] -> [N]                                              8.23872205491840E-08
 [a.u.] -> [K]                                              3.15774647902944E+05
 [a.u.] -> [kJ/mol]                                         2.62549961709828E+03
 [a.u.] -> [kcal/mol]                                       6.27509468713739E+02
 [a.u.] -> [Pa]                                             2.94210107994716E+13
 [a.u.] -> [bar]                                            2.94210107994716E+08
 [a.u.] -> [atm]                                            2.90362800883016E+08
 [a.u.] -> [eV]                                             2.72113838565563E+01
 [a.u.] -> [Hz]                                             6.57968392072181E+15
 [a.u.] -> [1/cm] (wave numbers)                            2.19474631370540E+05
 [a.u./Bohr**2] -> [1/cm]                                   5.14048714338585E+03
 
          ----------------------------------------------------------------------
 COLVARS| COLVAR INPUT INDEX:        1
 COLVARS| BOND          >>> ATOMS:                                   127     211
          ----------------------------------------------------------------------

 CELL_TOP| Volume [angstrom^3]:                                         4586.323
 CELL_TOP| Vector a [angstrom    12.864     0.000     0.000    |a| =      12.864
 CELL_TOP| Vector b [angstrom    -6.432    11.141     0.000    |b| =      12.864
 CELL_TOP| Vector c [angstrom     0.000     0.000    32.000    |c| =      32.000
 CELL_TOP| Angle (b,c), alpha [degree]:                                   90.000
 CELL_TOP| Angle (a,c), beta  [degree]:                                   90.000
 CELL_TOP| Angle (a,b), gamma [degree]:                                  120.000
 CELL_TOP| Numerically orthorhombic:                                          NO
 
 GENERATE|  Preliminary Number of Bonds generated:                             0
 GENERATE|  Achieved consistency in connectivity generation.

 CELL| Volume [angstrom^3]:                                             4586.323
 CELL| Vector a [angstrom]:      12.864     0.000     0.000    |a| =      12.864
 CELL| Vector b [angstrom]:      -6.432    11.141     0.000    |b| =      12.864
 CELL| Vector c [angstrom]:       0.000     0.000    32.000    |c| =      32.000
 CELL| Angle (b,c), alpha [degree]:                                       90.000
 CELL| Angle (a,c), beta  [degree]:                                       90.000
 CELL| Angle (a,b), gamma [degree]:                                      120.000
 CELL| Numerically orthorhombic:                                              NO

 CELL_REF| Volume [angstrom^3]:                                         4670.759
 CELL_REF| Vector a [angstrom    12.982     0.000     0.000    |a| =      12.982
 CELL_REF| Vector b [angstrom    -6.491    11.243     0.000    |b| =      12.982
 CELL_REF| Vector c [angstrom     0.000     0.000    32.000    |c| =      32.000
 CELL_REF| Angle (b,c), alpha [degree]:                                   90.000
 CELL_REF| Angle (a,c), beta  [degree]:                                   90.000
 CELL_REF| Angle (a,b), gamma [degree]:                                  120.000
 CELL_REF| Numerically orthorhombic:                                          NO

 *******************************************************************************
 *******************************************************************************
 **                                                                           **
 **     #####                         ##              ##                      **
 **    ##   ##            ##          ##              ##                      **
 **   ##     ##                       ##            ######                    **
 **   ##     ##  ##   ##  ##   #####  ##  ##   ####   ##    #####    #####    **
 **   ##     ##  ##   ##  ##  ##      ## ##   ##      ##   ##   ##  ##   ##   **
 **   ##  ## ##  ##   ##  ##  ##      ####     ###    ##   ######   ######    **
 **    ##  ###   ##   ##  ##  ##      ## ##      ##   ##   ##       ##        **
 **     #######   #####   ##   #####  ##  ##  ####    ##    #####   ##        **
 **           ##                                                    ##        **
 **                                                                           **
 **                                                ... make the atoms dance   **
 **                                                                           **
 **            Copyright (C) by CP2K developers group (2000 - 2018)           **
 **                                                                           **
 *******************************************************************************

 DFT| Spin unrestricted (spin-polarized) Kohn-Sham calculation               UKS
 DFT| Multiplicity                                                             1
 DFT| Number of spin states                                                    2
 DFT| Charge                                                                   0
 DFT| Self-interaction correction (SIC)                                       NO
 DFT| Cutoffs: density                                              1.000000E-10
 DFT|          gradient                                             1.000000E-10
 DFT|          tau                                                  1.000000E-10
 DFT|          cutoff_smoothing_range                               0.000000E+00
 DFT| XC density smoothing                                                  NONE
 DFT| XC derivatives                                                          PW
 FUNCTIONAL| ROUTINE=NEW
 FUNCTIONAL| PBE:
 FUNCTIONAL| J.P.Perdew, K.Burke, M.Ernzerhof, Phys. Rev. Letter, vol. 77, n 18,
 FUNCTIONAL|  pp. 3865-3868, (1996){spin polarized}                             
 vdW POTENTIAL|                                                   Pair Potential
 vdW POTENTIAL|          DFT-D3 (Version 3.1)
 vdW POTENTIAL|          Potential Form: S. Grimme et al, JCP 132: 154104 (2010)
 vdW POTENTIAL|          Zero Damping
 vdW POTENTIAL|          Cutoff Radius [Bohr]:                             18.90
 vdW POTENTIAL|          s6 Scaling Factor:                               1.0000
 vdW POTENTIAL|          sr6 Scaling Factor:                              1.2170
 vdW POTENTIAL|          s8 Scaling Factor:                               0.7220
 vdW POTENTIAL|          Cutoff for CN calculation:                   0.1000E-05

 QS| Method:                                                                 GPW
 QS| Density plane wave grid type                        NON-SPHERICAL FULLSPACE
 QS| Number of grid levels:                                                    5
 QS| Density cutoff [a.u.]:                                                600.0
 QS| Multi grid cutoff [a.u.]: 1) grid level                               600.0
 QS|                           2) grid level                               200.0
 QS|                           3) grid level                                66.7
 QS|                           4) grid level                                22.2
 QS|                           5) grid level                                 7.4
 QS| Grid level progression factor:                                          3.0
 QS| Relative density cutoff [a.u.]:                                        20.0
 QS| Consistent realspace mapping and integration 
 QS| Interaction thresholds: eps_pgf_orb:                                1.0E-07
 QS|                         eps_filter_matrix:                          0.0E+00
 QS|                         eps_core_charge:                            1.0E-16
 QS|                         eps_rho_gspace:                             1.0E-14
 QS|                         eps_rho_rspace:                             1.0E-14
 QS|                         eps_gvg_rspace:                             1.0E-07
 QS|                         eps_ppl:                                    1.0E-02
 QS|                         eps_ppnl:                                   1.0E-09


 ATOMIC KIND INFORMATION

  1. Atomic kind: N                                     Number of atoms:     100

     Orbital Basis Set                                        DZVP-MOLOPT-SR-GTH

       Number of orbital shell sets:                                           1
       Number of orbital shells:                                               5
       Number of primitive Cartesian functions:                                5
       Number of Cartesian basis functions:                                   14
       Number of spherical basis functions:                                   13
       Norm type:                                                              2

       Normalised Cartesian orbitals:

                        Set   Shell   Orbital            Exponent    Coefficient

                          1       1    2s                7.341988       0.360561
                                                         2.542637       0.139177
                                                         0.888575      -0.289383
                                                         0.333802      -0.182244
                                                         0.112012      -0.019197

                          1       2    3s                7.341988       0.282000
                                                         2.542637       0.177875
                                                         0.888575      -0.278381
                                                         0.333802       0.008577
                                                         0.112012       0.154176

                          1       3    3px               7.341988      -1.188719
                                                         2.542637      -0.973969
                                                         0.888575      -0.501079
                                                         0.333802      -0.144894
                                                         0.112012      -0.013986
                          1       3    3py               7.341988      -1.188719
                                                         2.542637      -0.973969
                                                         0.888575      -0.501079
                                                         0.333802      -0.144894
                                                         0.112012      -0.013986
                          1       3    3pz               7.341988      -1.188719
                                                         2.542637      -0.973969
                                                         0.888575      -0.501079
                                                         0.333802      -0.144894
                                                         0.112012      -0.013986

                          1       4    4px               7.341988      -0.094798
                                                         2.542637       0.050069
                                                         0.888575      -0.114797
                                                         0.333802       0.144793
                                                         0.112012       0.066710
                          1       4    4py               7.341988      -0.094798
                                                         2.542637       0.050069
                                                         0.888575      -0.114797
                                                         0.333802       0.144793
                                                         0.112012       0.066710
                          1       4    4pz               7.341988      -0.094798
                                                         2.542637       0.050069
                                                         0.888575      -0.114797
                                                         0.333802       0.144793
                                                         0.112012       0.066710

                          1       5    4dx2              7.341988       1.354688
                                                         2.542637       0.690378
                                                         0.888575       0.855359
                                                         0.333802       0.091746
                                                         0.112012       0.001253
                          1       5    4dxy              7.341988       2.346389
                                                         2.542637       1.195770
                                                         0.888575       1.481524
                                                         0.333802       0.158910
                                                         0.112012       0.002169
                          1       5    4dxz              7.341988       2.346389
                                                         2.542637       1.195770
                                                         0.888575       1.481524
                                                         0.333802       0.158910
                                                         0.112012       0.002169
                          1       5    4dy2              7.341988       1.354688
                                                         2.542637       0.690378
                                                         0.888575       0.855359
                                                         0.333802       0.091746
                                                         0.112012       0.001253
                          1       5    4dyz              7.341988       2.346389
                                                         2.542637       1.195770
                                                         0.888575       1.481524
                                                         0.333802       0.158910
                                                         0.112012       0.002169
                          1       5    4dz2              7.341988       1.354688
                                                         2.542637       0.690378
                                                         0.888575       0.855359
                                                         0.333802       0.091746
                                                         0.112012       0.001253

     GTH Potential information for                                    GTH-PBE-q5

       Description:                       Goedecker-Teter-Hutter pseudopotential
                                           Goedecker et al., PRB 54, 1703 (1996)
                                          Hartwigsen et al., PRB 58, 3641 (1998)
                                                      Krack, TCA 114, 145 (2005)

       Gaussian exponent of the core charge distribution:               6.208322
       Electronic configuration (s p d ...):                               2   3

       Parameters of the local part of the GTH pseudopotential:

                          rloc        C1          C2          C3          C4
                        0.283791  -12.415226    1.868096

       Parameters of the non-local part of the GTH pseudopotential:

                   l      r(l)      h(i,j,l)

                   0    0.255405   13.630263
                   1    0.245495

  2. Atomic kind: Ga                                    Number of atoms:     100

     Orbital Basis Set                                        DZVP-MOLOPT-SR-GTH

       Number of orbital shell sets:                                           1
       Number of orbital shells:                                               7
       Number of primitive Cartesian functions:                                6
       Number of Cartesian basis functions:                                   30
       Number of spherical basis functions:                                   25
       Norm type:                                                              2

       Normalised Cartesian orbitals:

                        Set   Shell   Orbital            Exponent    Coefficient

                          1       1    2s                7.066654       0.013136
                                                         3.428369      -0.094392
                                                         1.430064       0.265435
                                                         0.571611       0.056465
                                                         0.232197      -0.192187
                                                         0.076562      -0.044987

                          1       2    3s                7.066654      -0.098564
                                                         3.428369       0.010390
                                                         1.430064       0.351249
                                                         0.571611       0.182615
                                                         0.232197      -0.425358
                                                         0.076562       0.190349

                          1       3    3px               7.066654       0.002364
                                                         3.428369       0.019222
                                                         1.430064       0.250132
                                                         0.571611      -0.058486
                                                         0.232197      -0.159451
                                                         0.076562      -0.020696
                          1       3    3py               7.066654       0.002364
                                                         3.428369       0.019222
                                                         1.430064       0.250132
                                                         0.571611      -0.058486
                                                         0.232197      -0.159451
                                                         0.076562      -0.020696
                          1       3    3pz               7.066654       0.002364
                                                         3.428369       0.019222
                                                         1.430064       0.250132
                                                         0.571611      -0.058486
                                                         0.232197      -0.159451
                                                         0.076562      -0.020696

                          1       4    4px               7.066654       0.492448
                                                         3.428369      -0.614736
                                                         1.430064      -0.191654
                                                         0.571611       0.037801
                                                         0.232197       0.302315
                                                         0.076562      -0.071336
                          1       4    4py               7.066654       0.492448
                                                         3.428369      -0.614736
                                                         1.430064      -0.191654
                                                         0.571611       0.037801
                                                         0.232197       0.302315
                                                         0.076562      -0.071336
                          1       4    4pz               7.066654       0.492448
                                                         3.428369      -0.614736
                                                         1.430064      -0.191654
                                                         0.571611       0.037801
                                                         0.232197       0.302315
                                                         0.076562      -0.071336

                          1       5    4dx2              7.066654     -15.264855
                                                         3.428369      -5.345726
                                                         1.430064      -1.022732
                                                         0.571611      -0.123148
                                                         0.232197      -0.006983
                                                         0.076562      -0.000022
                          1       5    4dxy              7.066654     -26.439504
                                                         3.428369      -9.259069
                                                         1.430064      -1.771423
                                                         0.571611      -0.213299
                                                         0.232197      -0.012094
                                                         0.076562      -0.000037
                          1       5    4dxz              7.066654     -26.439504
                                                         3.428369      -9.259069
                                                         1.430064      -1.771423
                                                         0.571611      -0.213299
                                                         0.232197      -0.012094
                                                         0.076562      -0.000037
                          1       5    4dy2              7.066654     -15.264855
                                                         3.428369      -5.345726
                                                         1.430064      -1.022732
                                                         0.571611      -0.123148
                                                         0.232197      -0.006983
                                                         0.076562      -0.000022
                          1       5    4dyz              7.066654     -26.439504
                                                         3.428369      -9.259069
                                                         1.430064      -1.771423
                                                         0.571611      -0.213299
                                                         0.232197      -0.012094
                                                         0.076562      -0.000037
                          1       5    4dz2              7.066654     -15.264855
                                                         3.428369      -5.345726
                                                         1.430064      -1.022732
                                                         0.571611      -0.123148
                                                         0.232197      -0.006983
                                                         0.076562      -0.000022

                          1       6    5dx2              7.066654      -5.739265
                                                         3.428369      -2.129289
                                                         1.430064      -0.700423
                                                         0.571611       0.161606
                                                         0.232197       0.043513
                                                         0.076562       0.011205
                          1       6    5dxy              7.066654      -9.940698
                                                         3.428369      -3.688037
                                                         1.430064      -1.213168
                                                         0.571611       0.279909
                                                         0.232197       0.075368
                                                         0.076562       0.019407
                          1       6    5dxz              7.066654      -9.940698
                                                         3.428369      -3.688037
                                                         1.430064      -1.213168
                                                         0.571611       0.279909
                                                         0.232197       0.075368
                                                         0.076562       0.019407
                          1       6    5dy2              7.066654      -5.739265
                                                         3.428369      -2.129289
                                                         1.430064      -0.700423
                                                         0.571611       0.161606
                                                         0.232197       0.043513
                                                         0.076562       0.011205
                          1       6    5dyz              7.066654      -9.940698
                                                         3.428369      -3.688037
                                                         1.430064      -1.213168
                                                         0.571611       0.279909
                                                         0.232197       0.075368
                                                         0.076562       0.019407
                          1       6    5dz2              7.066654      -5.739265
                                                         3.428369      -2.129289
                                                         1.430064      -0.700423
                                                         0.571611       0.161606
                                                         0.232197       0.043513
                                                         0.076562       0.011205

                          1       7    5fx3              7.066654       0.705879
                                                         3.428369      -0.273976
                                                         1.430064       0.113667
                                                         0.571611       0.132480
                                                         0.232197       0.012437
                                                         0.076562       0.003241
                          1       7    5fx2y             7.066654       1.578393
                                                         3.428369      -0.612629
                                                         1.430064       0.254167
                                                         0.571611       0.296234
                                                         0.232197       0.027811
                                                         0.076562       0.007246
                          1       7    5fx2z             7.066654       1.578393
                                                         3.428369      -0.612629
                                                         1.430064       0.254167
                                                         0.571611       0.296234
                                                         0.232197       0.027811
                                                         0.076562       0.007246
                          1       7    5fxy2             7.066654       1.578393
                                                         3.428369      -0.612629
                                                         1.430064       0.254167
                                                         0.571611       0.296234
                                                         0.232197       0.027811
                                                         0.076562       0.007246
                          1       7    5fxyz             7.066654       2.733856
                                                         3.428369      -1.061105
                                                         1.430064       0.440230
                                                         0.571611       0.513092
                                                         0.232197       0.048170
                                                         0.076562       0.012551
                          1       7    5fxz2             7.066654       1.578393
                                                         3.428369      -0.612629
                                                         1.430064       0.254167
                                                         0.571611       0.296234
                                                         0.232197       0.027811
                                                         0.076562       0.007246
                          1       7    5fy3              7.066654       0.705879
                                                         3.428369      -0.273976
                                                         1.430064       0.113667
                                                         0.571611       0.132480
                                                         0.232197       0.012437
                                                         0.076562       0.003241
                          1       7    5fy2z             7.066654       1.578393
                                                         3.428369      -0.612629
                                                         1.430064       0.254167
                                                         0.571611       0.296234
                                                         0.232197       0.027811
                                                         0.076562       0.007246
                          1       7    5fyz2             7.066654       1.578393
                                                         3.428369      -0.612629
                                                         1.430064       0.254167
                                                         0.571611       0.296234
                                                         0.232197       0.027811
                                                         0.076562       0.007246
                          1       7    5fz3              7.066654       0.705879
                                                         3.428369      -0.273976
                                                         1.430064       0.113667
                                                         0.571611       0.132480
                                                         0.232197       0.012437
                                                         0.076562       0.003241

     GTH Potential information for                                   GTH-PBE-q13

       Description:                       Goedecker-Teter-Hutter pseudopotential
                                           Goedecker et al., PRB 54, 1703 (1996)
                                          Hartwigsen et al., PRB 58, 3641 (1998)
                                                      Krack, TCA 114, 145 (2005)

       Gaussian exponent of the core charge distribution:               2.082466
       Electronic configuration (s p d ...):                           2   1  10

       Parameters of the local part of the GTH pseudopotential:

                          rloc        C1          C2          C3          C4
                        0.490000

       Parameters of the non-local part of the GTH pseudopotential:

                   l      r(l)      h(i,j,l)

                   0    0.416777   10.475690   -4.921768    0.870706
                                   -4.921768    7.770178   -2.248152
                                    0.870706   -2.248152    1.784415
                   1    0.569627    1.777985    0.195860
                                    0.195860   -0.231744
                   2    0.238126  -16.248680

  3. Atomic kind: O                                     Number of atoms:       2

     Orbital Basis Set                                     DZVP-MOLOPT-SR-GTH-q6

       Number of orbital shell sets:                                           1
       Number of orbital shells:                                               5
       Number of primitive Cartesian functions:                                5
       Number of Cartesian basis functions:                                   14
       Number of spherical basis functions:                                   13
       Norm type:                                                              2

       Normalised Cartesian orbitals:

                        Set   Shell   Orbital            Exponent    Coefficient

                          1       1    2s               10.389228       0.396646
                                                         3.849621       0.208811
                                                         1.388401      -0.301641
                                                         0.496955      -0.274061
                                                         0.162492      -0.033677

                          1       2    3s               10.389228       0.303673
                                                         3.849621       0.240943
                                                         1.388401      -0.313066
                                                         0.496955      -0.043055
                                                         0.162492       0.213991

                          1       3    3px              10.389228      -1.530415
                                                         3.849621      -1.371928
                                                         1.388401      -0.761951
                                                         0.496955      -0.253695
                                                         0.162492      -0.035541
                          1       3    3py              10.389228      -1.530415
                                                         3.849621      -1.371928
                                                         1.388401      -0.761951
                                                         0.496955      -0.253695
                                                         0.162492      -0.035541
                          1       3    3pz              10.389228      -1.530415
                                                         3.849621      -1.371928
                                                         1.388401      -0.761951
                                                         0.496955      -0.253695
                                                         0.162492      -0.035541

                          1       4    4px              10.389228      -0.565392
                                                         3.849621      -0.038231
                                                         1.388401      -0.382373
                                                         0.496955       0.179070
                                                         0.162492       0.122714
                          1       4    4py              10.389228      -0.565392
                                                         3.849621      -0.038231
                                                         1.388401      -0.382373
                                                         0.496955       0.179070
                                                         0.162492       0.122714
                          1       4    4pz              10.389228      -0.565392
                                                         3.849621      -0.038231
                                                         1.388401      -0.382373
                                                         0.496955       0.179070
                                                         0.162492       0.122714

                          1       5    4dx2             10.389228       1.867377
                                                         3.849621       0.670994
                                                         1.388401       1.353441
                                                         0.496955       0.273538
                                                         0.162492       0.006620
                          1       5    4dxy             10.389228       3.234392
                                                         3.849621       1.162195
                                                         1.388401       2.344229
                                                         0.496955       0.473781
                                                         0.162492       0.011466
                          1       5    4dxz             10.389228       3.234392
                                                         3.849621       1.162195
                                                         1.388401       2.344229
                                                         0.496955       0.473781
                                                         0.162492       0.011466
                          1       5    4dy2             10.389228       1.867377
                                                         3.849621       0.670994
                                                         1.388401       1.353441
                                                         0.496955       0.273538
                                                         0.162492       0.006620
                          1       5    4dyz             10.389228       3.234392
                                                         3.849621       1.162195
                                                         1.388401       2.344229
                                                         0.496955       0.473781
                                                         0.162492       0.011466
                          1       5    4dz2             10.389228       1.867377
                                                         3.849621       0.670994
                                                         1.388401       1.353441
                                                         0.496955       0.273538
                                                         0.162492       0.006620

     GTH Potential information for                                    GTH-PBE-q6

       Description:                       Goedecker-Teter-Hutter pseudopotential
                                           Goedecker et al., PRB 54, 1703 (1996)
                                          Hartwigsen et al., PRB 58, 3641 (1998)
                                                      Krack, TCA 114, 145 (2005)

       Gaussian exponent of the core charge distribution:               8.360253
       Electronic configuration (s p d ...):                               2   4

       Parameters of the local part of the GTH pseudopotential:

                          rloc        C1          C2          C3          C4
                        0.244554  -16.667215    2.487311

       Parameters of the non-local part of the GTH pseudopotential:

                   l      r(l)      h(i,j,l)

                   0    0.220956   18.337458
                   1    0.211332

  4. Atomic kind: H                                     Number of atoms:       8

     Orbital Basis Set                                     DZVP-MOLOPT-SR-GTH-q1

       Number of orbital shell sets:                                           1
       Number of orbital shells:                                               3
       Number of primitive Cartesian functions:                                5
       Number of Cartesian basis functions:                                    5
       Number of spherical basis functions:                                    5
       Norm type:                                                              2

       Normalised Cartesian orbitals:

                        Set   Shell   Orbital            Exponent    Coefficient

                          1       1    2s               10.068468      -0.133023
                                                         2.680223      -0.177618
                                                         0.791502      -0.258419
                                                         0.239116      -0.107525
                                                         0.082193      -0.014019

                          1       2    3s               10.068468       0.344673
                                                         2.680223       1.819821
                                                         0.791502      -0.999069
                                                         0.239116       0.017430
                                                         0.082193       0.082660

                          1       3    3px              10.068468       0.155326
                                                         2.680223       0.367157
                                                         0.791502       0.311480
                                                         0.239116       0.080105
                                                         0.082193       0.033440
                          1       3    3py              10.068468       0.155326
                                                         2.680223       0.367157
                                                         0.791502       0.311480
                                                         0.239116       0.080105
                                                         0.082193       0.033440
                          1       3    3pz              10.068468       0.155326
                                                         2.680223       0.367157
                                                         0.791502       0.311480
                                                         0.239116       0.080105
                                                         0.082193       0.033440

     GTH Potential information for                                    GTH-PBE-q1

       Description:                       Goedecker-Teter-Hutter pseudopotential
                                           Goedecker et al., PRB 54, 1703 (1996)
                                          Hartwigsen et al., PRB 58, 3641 (1998)
                                                      Krack, TCA 114, 145 (2005)

       Gaussian exponent of the core charge distribution:              12.500000
       Electronic configuration (s p d ...):                                   1

       Parameters of the local part of the GTH pseudopotential:

                          rloc        C1          C2          C3          C4
                        0.200000   -4.178900    0.724463

  5. Atomic kind: C                                     Number of atoms:       2

     Orbital Basis Set                                     DZVP-MOLOPT-SR-GTH-q4

       Number of orbital shell sets:                                           1
       Number of orbital shells:                                               5
       Number of primitive Cartesian functions:                                5
       Number of Cartesian basis functions:                                   14
       Number of spherical basis functions:                                   13
       Norm type:                                                              2

       Normalised Cartesian orbitals:

                        Set   Shell   Orbital            Exponent    Coefficient

                          1       1    2s                5.605331       0.322515
                                                         2.113016       0.213043
                                                         0.769911      -0.209686
                                                         0.348157      -0.219794
                                                         0.128212      -0.022789

                          1       2    3s                5.605331       0.552234
                                                         2.113016       0.082072
                                                         0.769911       0.007843
                                                         0.348157       0.136893
                                                         0.128212       0.074283

                          1       3    3px               5.605331      -0.703879
                                                         2.113016      -0.642521
                                                         0.769911      -0.374851
                                                         0.348157      -0.139743
                                                         0.128212      -0.027849
                          1       3    3py               5.605331      -0.703879
                                                         2.113016      -0.642521
                                                         0.769911      -0.374851
                                                         0.348157      -0.139743
                                                         0.128212      -0.027849
                          1       3    3pz               5.605331      -0.703879
                                                         2.113016      -0.642521
                                                         0.769911      -0.374851
                                                         0.348157      -0.139743
                                                         0.128212      -0.027849

                          1       4    4px               5.605331      -0.480376
                                                         2.113016      -0.552894
                                                         0.769911      -0.316145
                                                         0.348157       0.210505
                                                         0.128212       0.076095
                          1       4    4py               5.605331      -0.480376
                                                         2.113016      -0.552894
                                                         0.769911      -0.316145
                                                         0.348157       0.210505
                                                         0.128212       0.076095
                          1       4    4pz               5.605331      -0.480376
                                                         2.113016      -0.552894
                                                         0.769911      -0.316145
                                                         0.348157       0.210505
                                                         0.128212       0.076095

                          1       5    4dx2              5.605331       0.640026
                                                         2.113016       0.274300
                                                         0.769911       0.446711
                                                         0.348157       0.028674
                                                         0.128212       0.029790
                          1       5    4dxy              5.605331       1.108557
                                                         2.113016       0.475102
                                                         0.769911       0.773726
                                                         0.348157       0.049666
                                                         0.128212       0.051599
                          1       5    4dxz              5.605331       1.108557
                                                         2.113016       0.475102
                                                         0.769911       0.773726
                                                         0.348157       0.049666
                                                         0.128212       0.051599
                          1       5    4dy2              5.605331       0.640026
                                                         2.113016       0.274300
                                                         0.769911       0.446711
                                                         0.348157       0.028674
                                                         0.128212       0.029790
                          1       5    4dyz              5.605331       1.108557
                                                         2.113016       0.475102
                                                         0.769911       0.773726
                                                         0.348157       0.049666
                                                         0.128212       0.051599
                          1       5    4dz2              5.605331       0.640026
                                                         2.113016       0.274300
                                                         0.769911       0.446711
                                                         0.348157       0.028674
                                                         0.128212       0.029790

     GTH Potential information for                                    GTH-PBE-q4

       Description:                       Goedecker-Teter-Hutter pseudopotential
                                           Goedecker et al., PRB 54, 1703 (1996)
                                          Hartwigsen et al., PRB 58, 3641 (1998)
                                                      Krack, TCA 114, 145 (2005)

       Gaussian exponent of the core charge distribution:               4.364419
       Electronic configuration (s p d ...):                               2   2

       Parameters of the local part of the GTH pseudopotential:

                          rloc        C1          C2          C3          C4
                        0.338471   -8.803674    1.339211

       Parameters of the non-local part of the GTH pseudopotential:

                   l      r(l)      h(i,j,l)

                   0    0.302576    9.622487
                   1    0.291507


 MOLECULE KIND INFORMATION


 All atoms are their own molecule, skipping detailed information


 TOTAL NUMBERS AND MAXIMUM NUMBERS

  Total number of            - Atomic kinds:                                   5
                             - Atoms:                                        212
                             - Shell sets:                                   212
                             - Shells:                                      1244
                             - Primitive Cartesian functions:               1160
                             - Cartesian basis functions:                   4496
                             - Spherical basis functions:                   3892

  Maximum angular momentum of- Orbital basis functions:                        3
                             - Local part of the GTH pseudopotential:          2
                             - Non-local part of the GTH pseudopotential:      4


 MODULE QUICKSTEP:  ATOMIC COORDINATES IN angstrom

  Atom  Kind  Element       X           Y           Z          Z(eff)       Mass

       1     1 N    7    0.091729    2.110453    2.571545      5.00      14.0067
       2     2 Ga  31    0.088252    0.160574    3.017564     13.00      69.7230
       3     1 N    7    0.091009    0.131532    5.113559      5.00      14.0067
       4     2 Ga  31    0.063898    1.952416    5.875416     13.00      69.7230
       5     1 N    7    0.072988    1.970933    7.857069      5.00      14.0067
       6     2 Ga  31    0.066093    0.116695    8.492353     13.00      69.7230
       7     1 N    7    0.071172    0.120003   10.461653      5.00      14.0067
       8     2 Ga  31    0.069181    1.958501   11.123369     13.00      69.7230
       9     1 N    7    0.071814    1.940688   13.109284      5.00      14.0067
      10     2 Ga  31    0.073479    0.121792   13.925708     13.00      69.7230
      11     1 N    7    0.072883    0.122342   16.112410      5.00      14.0067
      12     2 Ga  31    0.072666    2.174205   16.535518     13.00      69.7230
      13     2 Ga  31    0.108350    3.826755    1.435209     13.00      69.7230
      14     1 N    7   -1.395120    4.692613    2.528117      5.00      14.0067
      15     2 Ga  31   -1.606858    2.839192    3.312823     13.00      69.7230
      16     1 N    7   -1.534494    2.906504    5.287884      5.00      14.0067
      17     2 Ga  31   -1.568065    4.771749    5.852294     13.00      69.7230
      18     1 N    7   -1.545020    4.769679    7.840681      5.00      14.0067
      19     2 Ga  31   -1.532491    2.911818    8.490076     13.00      69.7230
      20     1 N    7   -1.525449    2.914019   10.476003      5.00      14.0067
      21     2 Ga  31   -1.552336    4.772838   11.121358     13.00      69.7230
      22     1 N    7   -1.567752    4.782639   13.108220      5.00      14.0067
      23     2 Ga  31   -1.525498    2.912723   13.670007     13.00      69.7230
      24     1 N    7   -1.550741    2.896700   15.625363      5.00      14.0067
      25     2 Ga  31   -1.370660    4.668547   16.535560     13.00      69.7230
      26     1 N    7    0.066842    3.838193   17.681190      5.00      14.0067
      27     1 N    7   -3.134614    7.663538    2.559042      5.00      14.0067
      28     2 Ga  31   -3.121508    5.675296    2.882070     13.00      69.7230
      29     1 N    7   -3.138327    5.687282    5.047951      5.00      14.0067
      30     2 Ga  31   -3.148809    7.511584    5.839399     13.00      69.7230
      31     1 N    7   -3.142671    7.536381    7.829879      5.00      14.0067
      32     2 Ga  31   -3.144971    5.691146    8.490361     13.00      69.7230
      33     1 N    7   -3.144102    5.692267   10.458949      5.00      14.0067
      34     2 Ga  31   -3.145200    7.529979   11.120482     13.00      69.7230
      35     1 N    7   -3.143938    7.512054   13.107276      5.00      14.0067
      36     2 Ga  31   -3.143930    5.692482   13.926376     13.00      69.7230
      37     1 N    7   -3.143720    5.692244   16.111561      5.00      14.0067
      38     2 Ga  31   -3.143862    7.740660   16.537184     13.00      69.7230
      39     2 Ga  31   -3.177443    9.397167    1.424639     13.00      69.7230
      40     1 N    7   -4.640586   10.291881    2.586615      5.00      14.0067
      41     2 Ga  31   -4.855865    8.432750    3.306112     13.00      69.7230
      42     1 N    7   -4.749265    8.479775    5.277607      5.00      14.0067
      43     2 Ga  31   -4.779273   10.340701    5.870964     13.00      69.7230
      44     1 N    7   -4.756587   10.337973    7.851736      5.00      14.0067
      45     2 Ga  31   -4.746716    8.476304    8.479671     13.00      69.7230
      46     1 N    7   -4.740977    8.481018   10.468010      5.00      14.0067
      47     2 Ga  31   -4.770724   10.338893   11.122200     13.00      69.7230
      48     1 N    7   -4.784648   10.351364   13.108252      5.00      14.0067
      49     2 Ga  31   -4.741647    8.482849   13.671067     13.00      69.7230
      50     1 N    7   -4.768523    8.469620   15.625952      5.00      14.0067
      51     2 Ga  31   -4.581806   10.236736   16.537006     13.00      69.7230
      52     1 N    7   -3.144090    9.400331   17.682823      5.00      14.0067
      53     1 N    7    3.277897    1.972071    2.659726      5.00      14.0067
      54     2 Ga  31    3.289827    0.137387    3.390996     13.00      69.7230
      55     1 N    7    3.289810    0.135930    5.315855      5.00      14.0067
      56     2 Ga  31    3.286782    1.974859    5.981620     13.00      69.7230
      57     1 N    7    3.289908    1.976384    7.927802      5.00      14.0067
      58     2 Ga  31    3.287315    0.103334    8.512267     13.00      69.7230
      59     1 N    7    3.288420    0.107373   10.489951      5.00      14.0067
      60     2 Ga  31    3.289216    1.978466   11.087004     13.00      69.7230
      61     1 N    7    3.288792    1.978373   13.049068      5.00      14.0067
      62     2 Ga  31    3.288545    0.106479   13.671821     13.00      69.7230
      63     1 N    7    3.288546    0.140390   15.625992      5.00      14.0067
      64     2 Ga  31    3.289012    1.978906   15.900791     13.00      69.7230
      65     1 N    7    1.565081    4.693623    2.617749      5.00      14.0067
      66     2 Ga  31    1.689025    2.886267    3.390221     13.00      69.7230
      67     1 N    7    1.700195    2.894995    5.321833      5.00      14.0067
      68     2 Ga  31    1.704394    4.777044    5.881111     13.00      69.7230
      69     1 N    7    1.687504    4.766933    7.856234      5.00      14.0067
      70     2 Ga  31    1.666232    2.912927    8.511165     13.00      69.7230
      71     1 N    7    1.669501    2.913494   10.489367      5.00      14.0067
      72     2 Ga  31    1.696397    4.776155   11.123044     13.00      69.7230
      73     1 N    7    1.713190    4.783577   13.108751      5.00      14.0067
      74     2 Ga  31    1.667846    2.914328   13.671697     13.00      69.7230
      75     1 N    7    1.696555    2.898135   15.625948      5.00      14.0067
      76     2 Ga  31    1.511261    4.665703   16.536215     13.00      69.7230
      77     1 N    7    0.078898    7.548814    2.702236      5.00      14.0067
      78     2 Ga  31    0.075435    5.711438    3.381419     13.00      69.7230
      79     1 N    7    0.071334    5.706733    5.310708      5.00      14.0067
      80     2 Ga  31    0.098347    7.562710    5.922315     13.00      69.7230
      81     1 N    7    0.077634    7.553333    7.886325      5.00      14.0067
      82     2 Ga  31    0.068508    5.684773    8.490858     13.00      69.7230
      83     1 N    7    0.071483    5.680422   10.474945      5.00      14.0067
      84     2 Ga  31    0.073718    7.549276   11.076509     13.00      69.7230
      85     1 N    7    0.072927    7.549128   13.039921      5.00      14.0067
      86     2 Ga  31    0.072680    5.679817   13.671350     13.00      69.7230
      87     1 N    7    0.074276    5.711004   15.626420      5.00      14.0067
      88     2 Ga  31    0.069809    7.547948   15.907787     13.00      69.7230
      89     1 N    7   -1.648972   10.282894    2.570504      5.00      14.0067
      90     2 Ga  31   -1.510033    8.472883    3.356432     13.00      69.7230
      91     1 N    7   -1.522706    8.474669    5.289636      5.00      14.0067
      92     2 Ga  31   -1.504226   10.351534    5.879275     13.00      69.7230
      93     1 N    7   -1.531857   10.335741    7.856515      5.00      14.0067
      94     2 Ga  31   -1.545515    8.477025    8.491097     13.00      69.7230
      95     1 N    7   -1.546857    8.481104   10.474849      5.00      14.0067
      96     2 Ga  31   -1.516897   10.340565   11.123698     13.00      69.7230
      97     1 N    7   -1.502190   10.351998   13.109209      5.00      14.0067
      98     2 Ga  31   -1.546407    8.483266   13.671523     13.00      69.7230
      99     1 N    7   -1.518937    8.469598   15.626405      5.00      14.0067
     100     2 Ga  31   -1.705861   10.236715   16.537313     13.00      69.7230
     101     1 N    7    6.482254    2.109590    2.561906      5.00      14.0067
     102     2 Ga  31    6.521893    0.112739    2.957378     13.00      69.7230
     103     1 N    7    6.480513    0.134460    5.112737      5.00      14.0067
     104     2 Ga  31    6.515017    1.948413    5.869472     13.00      69.7230
     105     1 N    7    6.505192    1.972747    7.852605      5.00      14.0067
     106     2 Ga  31    6.511552    0.117845    8.491188     13.00      69.7230
     107     1 N    7    6.505992    0.120547   10.460689      5.00      14.0067
     108     2 Ga  31    6.508653    1.959199   11.122921     13.00      69.7230
     109     1 N    7    6.505770    1.940631   13.108807      5.00      14.0067
     110     2 Ga  31    6.504029    0.122339   13.926894     13.00      69.7230
     111     1 N    7    6.504149    0.122481   16.112818      5.00      14.0067
     112     2 Ga  31    6.504484    2.174649   16.535526     13.00      69.7230
     113     2 Ga  31    7.899944    3.026084    0.656756     13.00      69.7230
     114     1 N    7    5.010269    4.699454    2.641408      5.00      14.0067
     115     2 Ga  31    4.857943    2.869572    3.391648     13.00      69.7230
     116     1 N    7    4.878464    2.893593    5.314057      5.00      14.0067
     117     2 Ga  31    4.882057    4.780269    5.871022     13.00      69.7230
     118     1 N    7    4.889614    4.765317    7.849769      5.00      14.0067
     119     2 Ga  31    4.912633    2.914268    8.510050     13.00      69.7230
     120     1 N    7    4.908704    2.913795   10.488303      5.00      14.0067
     121     2 Ga  31    4.883847    4.777394   11.120035     13.00      69.7230
     122     1 N    7    4.865276    4.783800   13.106644      5.00      14.0067
     123     2 Ga  31    4.909806    2.914709   13.670819     13.00      69.7230
     124     1 N    7    4.881027    2.898503   15.625112      5.00      14.0067
     125     2 Ga  31    5.066130    4.665782   16.536060     13.00      69.7230
     126     1 N    7    6.510181    3.838547   17.681049      5.00      14.0067
     127     1 N    7    3.283508    7.526422    2.582801      5.00      14.0067
     128     1 N    7    3.290198    5.672591    5.112410      5.00      14.0067
     129     2 Ga  31    3.293081    7.541641    5.814300     13.00      69.7230
     130     1 N    7    3.288132    7.541946    7.815306      5.00      14.0067
     131     2 Ga  31    3.290414    5.701000    8.490509     13.00      69.7230
     132     1 N    7    3.289192    5.694475   10.458970      5.00      14.0067
     133     2 Ga  31    3.290170    7.532198   11.120792     13.00      69.7230
     134     1 N    7    3.289028    7.511568   13.108811      5.00      14.0067
     135     2 Ga  31    3.289498    5.690798   13.926358     13.00      69.7230
     136     1 N    7    3.288716    5.691451   16.112784      5.00      14.0067
     137     2 Ga  31    3.288695    7.732865   16.521453     13.00      69.7230
     138     2 Ga  31    4.144156   10.891881    0.673726     13.00      69.7230
     139     1 N    7    1.714522   10.346661    2.560103      5.00      14.0067
     140     2 Ga  31    1.702091    8.565343    3.207669     13.00      69.7230
     141     1 N    7    1.677008    8.466002    5.202913      5.00      14.0067
     142     2 Ga  31    1.656117   10.338648    5.816786     13.00      69.7230
     143     1 N    7    1.668639   10.331847    7.822647      5.00      14.0067
     144     2 Ga  31    1.696024    8.485711    8.485959     13.00      69.7230
     145     1 N    7    1.693264    8.482920   10.472686      5.00      14.0067
     146     2 Ga  31    1.667806   10.343311   11.118375     13.00      69.7230
     147     1 N    7    1.648702   10.352859   13.107715      5.00      14.0067
     148     2 Ga  31    1.691255    8.483626   13.668538     13.00      69.7230
     149     1 N    7    1.661223    8.466598   15.626114      5.00      14.0067
     150     2 Ga  31    1.839280   10.243014   16.521751     13.00      69.7230
     151     1 N    7    3.288774    9.406143   17.641438      5.00      14.0067
     152     1 N    7    9.746572    1.937918    2.638634      5.00      14.0067
     153     2 Ga  31    9.668295    0.145194    3.295373     13.00      69.7230
     154     1 N    7    9.718327    0.120023    5.281623      5.00      14.0067
     155     2 Ga  31    9.723792    1.967349    5.905546     13.00      69.7230
     156     1 N    7    9.719434    1.977902    7.883008      5.00      14.0067
     157     2 Ga  31    9.719547    0.106060    8.469134     13.00      69.7230
     158     1 N    7    9.720331    0.107950   10.464206      5.00      14.0067
     159     2 Ga  31    9.720673    1.976305   11.072734     13.00      69.7230
     160     1 N    7    9.720709    1.977509   13.037941      5.00      14.0067
     161     2 Ga  31    9.721103    0.109616   13.668426     13.00      69.7230
     162     1 N    7    9.720845    0.144634   15.626197      5.00      14.0067
     163     2 Ga  31    9.720810    1.982244   15.907254     13.00      69.7230
     164     1 N    7    8.002096    4.704062    2.562219      5.00      14.0067
     165     2 Ga  31    8.229454    2.827672    3.299713     13.00      69.7230
     166     1 N    7    8.113040    2.901876    5.269097      5.00      14.0067
     167     2 Ga  31    8.141115    4.773728    5.833996     13.00      69.7230
     168     1 N    7    8.124250    4.768370    7.829069      5.00      14.0067
     169     2 Ga  31    8.108977    2.914545    8.488462     13.00      69.7230
     170     1 N    7    8.102650    2.914709   10.474584      5.00      14.0067
     171     2 Ga  31    8.127440    4.773773   11.119093     13.00      69.7230
     172     1 N    7    8.144608    4.782861   13.106610      5.00      14.0067
     173     2 Ga  31    8.102623    2.913310   13.669671     13.00      69.7230
     174     1 N    7    8.128032    2.896951   15.625066      5.00      14.0067
     175     2 Ga  31    7.947712    4.668723   16.535508     13.00      69.7230
     176     1 N    7    6.495148    7.567560    2.622095      5.00      14.0067
     177     2 Ga  31    6.502417    5.840927    3.343415     13.00      69.7230
     178     1 N    7    6.506429    5.698356    5.297632      5.00      14.0067
     179     2 Ga  31    6.478650    7.572027    5.882604     13.00      69.7230
     180     1 N    7    6.497882    7.554895    7.864711      5.00      14.0067
     181     2 Ga  31    6.509907    5.688811    8.475251     13.00      69.7230
     182     1 N    7    6.506536    5.681426   10.465191      5.00      14.0067
     183     2 Ga  31    6.504279    7.548866   11.071934     13.00      69.7230
     184     1 N    7    6.504410    7.548947   13.036678      5.00      14.0067
     185     2 Ga  31    6.504970    5.680429   13.670591     13.00      69.7230
     186     1 N    7    6.503031    5.711150   15.625712      5.00      14.0067
     187     2 Ga  31    6.507510    7.547885   15.908177     13.00      69.7230
     188     1 N    7    4.864183   10.379680    2.529731      5.00      14.0067
     189     2 Ga  31    4.949542    8.511808    3.155419     13.00      69.7230
     190     1 N    7    4.883605    8.486575    5.189281      5.00      14.0067
     191     2 Ga  31    4.910766   10.337699    5.820493     13.00      69.7230
     192     1 N    7    4.906865   10.335196    7.824087      5.00      14.0067
     193     2 Ga  31    4.884912    8.484781    8.477923     13.00      69.7230
     194     1 N    7    4.885000    8.482589   10.467876      5.00      14.0067
     195     2 Ga  31    4.909147   10.341985   11.116571     13.00      69.7230
     196     1 N    7    4.928432   10.352595   13.106581      5.00      14.0067
     197     2 Ga  31    4.886956    8.483575   13.667781     13.00      69.7230
     198     1 N    7    4.916211    8.466570   15.625579      5.00      14.0067
     199     2 Ga  31    4.737876   10.242935   16.521526     13.00      69.7230
     200     3 O    8    0.648518    4.193451   -0.285945      6.00      15.9994
     201     4 H    1    3.037986    5.113088    0.255588      1.00       1.0079
     202     5 C    6    0.918462    3.091962   -1.170470      4.00      12.0107
     203     4 H    1    1.518613    2.302304   -0.685368      1.00       1.0079
     204     4 H    1   -0.012392    2.638965   -1.543670      1.00       1.0079
     205     4 H    1    1.486697    3.480961   -2.027271      1.00       1.0079
     206     2 Ga  31    3.270499    5.604290    3.046359     13.00      69.7230
     207     3 O    8    3.925795    5.495634    0.471567      6.00      15.9994
     208     4 H    1    0.013333    7.507318    1.678399      1.00       1.0079
     209     5 C    6    4.908753    4.756463    1.170562      4.00      12.0107
     210     4 H    1    5.884819    5.184211    0.894162      1.00       1.0079
     211     4 H    1    3.280014    7.592042    1.557085      1.00       1.0079
     212     4 H    1    4.886535    3.697248    0.867413      1.00       1.0079




 SCF PARAMETERS         Density guess:                                    ATOMIC
                        --------------------------------------------------------
                        max_scf:                                              80
                        max_scf_history:                                       0
                        max_diis:                                              4
                        --------------------------------------------------------
                        eps_scf:                                        5.00E-06
                        eps_scf_history:                                0.00E+00
                        eps_diis:                                       1.00E-01
                        eps_eigval:                                     1.00E-05
                        --------------------------------------------------------
                        level_shift [a.u.]:                                 0.00
                        --------------------------------------------------------
                        Outer loop SCF in use 
                        No variables optimised in outer loop
                        eps_scf                                         5.00E-06
                        max_scf                                                4
                        No outer loop optimization
                        step_size                                       5.00E-01

 PW_GRID| Information for grid number                                          1
 PW_GRID| Grid distributed over                                    80 processors
 PW_GRID| Real space group dimensions                                    80    1
 PW_GRID| the grid is blocked:                                                NO
 PW_GRID| Cutoff [a.u.]                                                    600.0
 PW_GRID| spherical cutoff:                                                   NO
 PW_GRID|   Bounds   1           -144     143                Points:         288
 PW_GRID|   Bounds   2           -144     143                Points:         288
 PW_GRID|   Bounds   3           -337     337                Points:         675
 PW_GRID| Volume element (a.u.^3)  0.5630E-03     Volume (a.u.^3)     31519.8467
 PW_GRID| Grid span                                                    FULLSPACE
 PW_GRID|   Distribution                         Average         Max         Min
 PW_GRID|   G-Vectors                           699840.0      699840      699840
 PW_GRID|   G-Rays                                2430.0        2430        2430
 PW_GRID|   Real Space Points                   699840.0      777600      583200

 PW_GRID| Information for grid number                                          2
 PW_GRID| Grid distributed over                                    80 processors
 PW_GRID| Real space group dimensions                                    80    1
 PW_GRID| the grid is blocked:                                                NO
 PW_GRID| Cutoff [a.u.]                                                    200.0
 PW_GRID| spherical cutoff:                                                   NO
 PW_GRID|   Bounds   1            -80      79                Points:         160
 PW_GRID|   Bounds   2            -80      79                Points:         160
 PW_GRID|   Bounds   3           -200     199                Points:         400
 PW_GRID| Volume element (a.u.^3)  0.3078E-02     Volume (a.u.^3)     31519.8467
 PW_GRID| Grid span                                                    FULLSPACE
 PW_GRID|   Distribution                         Average         Max         Min
 PW_GRID|   G-Vectors                           128000.0      128160      127840
 PW_GRID|   G-Rays                                 800.0         801         799
 PW_GRID|   Real Space Points                   128000.0      128000      128000

 PW_GRID| Information for grid number                                          3
 PW_GRID| Grid distributed over                                    80 processors
 PW_GRID| Real space group dimensions                                    80    1
 PW_GRID| the grid is blocked:                                                NO
 PW_GRID| Cutoff [a.u.]                                                     66.7
 PW_GRID| spherical cutoff:                                                   NO
 PW_GRID|   Bounds   1            -48      47                Points:          96
 PW_GRID|   Bounds   2            -48      47                Points:          96
 PW_GRID|   Bounds   3           -112     112                Points:         225
 PW_GRID| Volume element (a.u.^3)  0.1520E-01     Volume (a.u.^3)     31519.8467
 PW_GRID| Grid span                                                    FULLSPACE
 PW_GRID|   Distribution                         Average         Max         Min
 PW_GRID|   G-Vectors                            25920.0       26688       24864
[...]
      9       N      1       5.000    2.059   2.059           -0.000      0.882
     10       Ga     2      13.000    6.873   6.873           -0.000     -0.745
     11       N      1       5.000    2.134   2.134           -0.000      0.731
     12       Ga     2      13.000    6.914   6.914           -0.000     -0.828
     13       Ga     2      13.000    6.973   6.973           -0.000     -0.946
     14       N      1       5.000    2.103   2.103            0.000      0.794
     15       Ga     2      13.000    6.953   6.953           -0.000     -0.906
     16       N      1       5.000    2.057   2.057           -0.000      0.887
     17       Ga     2      13.000    6.942   6.942           -0.000     -0.885
     18       N      1       5.000    2.061   2.061           -0.000      0.879
     19       Ga     2      13.000    6.941   6.941           -0.000     -0.881
     20       N      1       5.000    2.060   2.060           -0.000      0.879
     21       Ga     2      13.000    6.939   6.939            0.000     -0.879
     22       N      1       5.000    2.059   2.059            0.000      0.882
     23       Ga     2      13.000    6.950   6.950           -0.000     -0.899
     24       N      1       5.000    2.051   2.051           -0.000      0.898
     25       Ga     2      13.000    6.913   6.913           -0.000     -0.826
     26       N      1       5.000    2.238   2.238           -0.000      0.524
     27       N      1       5.000    2.103   2.103            0.000      0.793
     28       Ga     2      13.000    6.899   6.899           -0.000     -0.797
     29       N      1       5.000    2.096   2.096           -0.000      0.807
     30       Ga     2      13.000    6.942   6.942           -0.000     -0.883
     31       N      1       5.000    2.060   2.060           -0.000      0.880
     32       Ga     2      13.000    6.950   6.950           -0.000     -0.901
     33       N      1       5.000    2.051   2.051           -0.000      0.899
     34       Ga     2      13.000    6.939   6.939           -0.000     -0.878
     35       N      1       5.000    2.060   2.060           -0.000      0.880
     36       Ga     2      13.000    6.874   6.874           -0.000     -0.748
     37       N      1       5.000    2.134   2.134           -0.000      0.732
     38       Ga     2      13.000    6.913   6.913            0.000     -0.826
     39       Ga     2      13.000    6.737   6.737            0.000     -0.474
     40       N      1       5.000    2.097   2.097            0.000      0.805
     41       Ga     2      13.000    6.954   6.954            0.000     -0.908
     42       N      1       5.000    2.053   2.053            0.000      0.894
     43       Ga     2      13.000    6.944   6.944           -0.000     -0.887
     44       N      1       5.000    2.059   2.059           -0.000      0.882
     45       Ga     2      13.000    6.936   6.936           -0.000     -0.872
     46       N      1       5.000    2.063   2.063            0.000      0.874
     47       Ga     2      13.000    6.938   6.938           -0.000     -0.876
     48       N      1       5.000    2.060   2.060            0.000      0.880
     49       Ga     2      13.000    6.950   6.950            0.000     -0.901
     50       N      1       5.000    2.051   2.051            0.000      0.899
     51       Ga     2      13.000    6.914   6.914            0.000     -0.829
     52       N      1       5.000    2.238   2.238            0.000      0.524
     53       N      1       5.000    2.131   2.131           -0.000      0.737
     54       Ga     2      13.000    6.954   6.954           -0.000     -0.907
     55       N      1       5.000    2.049   2.049            0.000      0.901
     56       Ga     2      13.000    6.935   6.935           -0.000     -0.870
     57       N      1       5.000    2.057   2.057           -0.000      0.886
     58       Ga     2      13.000    6.938   6.938           -0.000     -0.877
     59       N      1       5.000    2.061   2.061           -0.000      0.877
     60       Ga     2      13.000    6.947   6.947            0.000     -0.894
     61       N      1       5.000    2.062   2.062            0.000      0.876
     62       Ga     2      13.000    6.951   6.951            0.000     -0.901
     63       N      1       5.000    2.051   2.051            0.000      0.898
     64       Ga     2      13.000    6.857   6.857            0.000     -0.713
     65       N      1       5.000    2.092   2.092           -0.000      0.816
     66       Ga     2      13.000    6.969   6.969           -0.000     -0.938
     67       N      1       5.000    2.050   2.050           -0.000      0.900
     68       Ga     2      13.000    6.939   6.939           -0.000     -0.877
     69       N      1       5.000    2.056   2.056           -0.000      0.888
     70       Ga     2      13.000    6.938   6.938           -0.000     -0.876
     71       N      1       5.000    2.061   2.061            0.000      0.877
     72       Ga     2      13.000    6.938   6.938            0.000     -0.875
     73       N      1       5.000    2.060   2.060           -0.000      0.881
     74       Ga     2      13.000    6.950   6.950           -0.000     -0.901
     75       N      1       5.000    2.051   2.051           -0.000      0.898
     76       Ga     2      13.000    6.914   6.914           -0.000     -0.828
     77       N      1       5.000    2.237   2.237           -0.000      0.525
     78       Ga     2      13.000    6.995   6.995           -0.000     -0.990
     79       N      1       5.000    2.049   2.049           -0.000      0.902
     80       Ga     2      13.000    6.947   6.947           -0.000     -0.895
     81       N      1       5.000    2.056   2.056           -0.000      0.888
     82       Ga     2      13.000    6.938   6.938           -0.000     -0.875
     83       N      1       5.000    2.060   2.060           -0.000      0.879
     84       Ga     2      13.000    6.945   6.945           -0.000     -0.891
     85       N      1       5.000    2.061   2.061            0.000      0.877
     86       Ga     2      13.000    6.950   6.950           -0.000     -0.899
     87       N      1       5.000    2.051   2.051           -0.000      0.899
     88       Ga     2      13.000    6.857   6.857            0.000     -0.715
     89       N      1       5.000    2.100   2.100            0.000      0.800
     90       Ga     2      13.000    6.982   6.982            0.000     -0.963
     91       N      1       5.000    2.048   2.048            0.000      0.904
     92       Ga     2      13.000    6.946   6.946           -0.000     -0.891
     93       N      1       5.000    2.058   2.058           -0.000      0.885
     94       Ga     2      13.000    6.940   6.940           -0.000     -0.880
     95       N      1       5.000    2.061   2.061           -0.000      0.879
     96       Ga     2      13.000    6.939   6.939           -0.000     -0.878
     97       N      1       5.000    2.059   2.059            0.000      0.882
     98       Ga     2      13.000    6.950   6.950            0.000     -0.899
     99       N      1       5.000    2.051   2.051            0.000      0.899
    100       Ga     2      13.000    6.914   6.914            0.000     -0.828
    101       N      1       5.000    2.088   2.088           -0.000      0.824
    102       Ga     2      13.000    6.935   6.935           -0.000     -0.870
    103       N      1       5.000    2.088   2.088           -0.000      0.824
    104       Ga     2      13.000    6.948   6.948           -0.000     -0.895
    105       N      1       5.000    2.056   2.056           -0.000      0.887
    106       Ga     2      13.000    6.948   6.948           -0.000     -0.896
    107       N      1       5.000    2.052   2.052           -0.000      0.897
    108       Ga     2      13.000    6.938   6.938           -0.000     -0.877
    109       N      1       5.000    2.059   2.059            0.000      0.881
    110       Ga     2      13.000    6.873   6.873           -0.000     -0.746
    111       N      1       5.000    2.134   2.134           -0.000      0.732
    112       Ga     2      13.000    6.914   6.914           -0.000     -0.829
    113       Ga     2      13.000    6.737   6.737           -0.000     -0.473
    114       N      1       5.000    2.192   2.192            0.000      0.615
    115       Ga     2      13.000    7.054   7.054           -0.000     -1.108
    116       N      1       5.000    2.063   2.063           -0.000      0.875
    117       Ga     2      13.000    6.950   6.950           -0.000     -0.899
    118       N      1       5.000    2.060   2.060           -0.000      0.880
    119       Ga     2      13.000    6.943   6.943           -0.000     -0.885
    120       N      1       5.000    2.060   2.060            0.000      0.880
    121       Ga     2      13.000    6.940   6.940           -0.000     -0.880
    122       N      1       5.000    2.059   2.059           -0.000      0.883
    123       Ga     2      13.000    6.951   6.951            0.000     -0.902
    124       N      1       5.000    2.051   2.051           -0.000      0.899
    125       Ga     2      13.000    6.914   6.914            0.000     -0.828
    126       N      1       5.000    2.238   2.238           -0.000      0.524
    127       N      1       5.000    2.240   2.240           -0.000      0.521
    128       N      1       5.000    2.072   2.072           -0.000      0.855
    129       Ga     2      13.000    6.940   6.940           -0.000     -0.879
    130       N      1       5.000    2.060   2.060           -0.000      0.879
    131       Ga     2      13.000    6.945   6.945           -0.000     -0.891
    132       N      1       5.000    2.052   2.052           -0.000      0.895
    133       Ga     2      13.000    6.938   6.938           -0.000     -0.876
    134       N      1       5.000    2.060   2.060           -0.000      0.879
    135       Ga     2      13.000    6.873   6.873            0.000     -0.746
    136       N      1       5.000    2.134   2.134           -0.000      0.731
    137       Ga     2      13.000    6.918   6.918            0.000     -0.836
    138       Ga     2      13.000    6.559   6.559           -0.000     -0.117
    139       N      1       5.000    2.129   2.129            0.000      0.742
    140       Ga     2      13.000    7.056   7.056           -0.000     -1.112
    141       N      1       5.000    2.063   2.063           -0.000      0.875
    142       Ga     2      13.000    6.936   6.936           -0.000     -0.871
    143       N      1       5.000    2.063   2.063           -0.000      0.875
    144       Ga     2      13.000    6.939   6.939           -0.000     -0.879
    145       N      1       5.000    2.061   2.061            0.000      0.878
    146       Ga     2      13.000    6.939   6.939            0.000     -0.878
    147       N      1       5.000    2.060   2.060            0.000      0.881
    148       Ga     2      13.000    6.949   6.949            0.000     -0.897
    149       N      1       5.000    2.050   2.050            0.000      0.899
    150       Ga     2      13.000    6.918   6.918            0.000     -0.836
    151       N      1       5.000    2.227   2.227            0.000      0.546
    152       N      1       5.000    2.121   2.121           -0.000      0.759
    153       Ga     2      13.000    6.963   6.963           -0.000     -0.926
    154       N      1       5.000    2.058   2.058           -0.000      0.884
    155       Ga     2      13.000    6.943   6.943           -0.000     -0.886
    156       N      1       5.000    2.055   2.055           -0.000      0.890
    157       Ga     2      13.000    6.939   6.939           -0.000     -0.877
    158       N      1       5.000    2.062   2.062           -0.000      0.876
    159       Ga     2      13.000    6.945   6.945           -0.000     -0.891
    160       N      1       5.000    2.062   2.062           -0.000      0.876
    161       Ga     2      13.000    6.949   6.949            0.000     -0.898
    162       N      1       5.000    2.050   2.050            0.000      0.899
    163       Ga     2      13.000    6.857   6.857           -0.000     -0.715
    164       N      1       5.000    2.103   2.103           -0.000      0.794
    165       Ga     2      13.000    6.922   6.922           -0.000     -0.845
    166       N      1       5.000    2.039   2.039           -0.000      0.921
    167       Ga     2      13.000    6.941   6.941           -0.000     -0.882
    168       N      1       5.000    2.059   2.059           -0.000      0.882
    169       Ga     2      13.000    6.936   6.936           -0.000     -0.873
    170       N      1       5.000    2.062   2.062           -0.000      0.877
    171       Ga     2      13.000    6.939   6.939           -0.000     -0.878
    172       N      1       5.000    2.060   2.060           -0.000      0.880
    173       Ga     2      13.000    6.951   6.951            0.000     -0.901
    174       N      1       5.000    2.051   2.051            0.000      0.898
    175       Ga     2      13.000    6.913   6.913            0.000     -0.827
    176       N      1       5.000    2.125   2.125           -0.000      0.749
    177       Ga     2      13.000    7.041   7.041           -0.000     -1.081
    178       N      1       5.000    2.064   2.064           -0.000      0.872
    179       Ga     2      13.000    6.927   6.927           -0.000     -0.854
    180       N      1       5.000    2.062   2.062           -0.000      0.875
    181       Ga     2      13.000    6.942   6.942           -0.000     -0.884
    182       N      1       5.000    2.061   2.061            0.000      0.877
    183       Ga     2      13.000    6.948   6.948            0.000     -0.896
    184       N      1       5.000    2.062   2.062            0.000      0.876
    185       Ga     2      13.000    6.951   6.951           -0.000     -0.901
    186       N      1       5.000    2.051   2.051           -0.000      0.899
    187       Ga     2      13.000    6.857   6.857            0.000     -0.714
    188       N      1       5.000    2.086   2.086           -0.000      0.828
    189       Ga     2      13.000    6.999   6.999           -0.000     -0.999
    190       N      1       5.000    2.063   2.063           -0.000      0.874
    191       Ga     2      13.000    6.939   6.939           -0.000     -0.879
    192       N      1       5.000    2.063   2.063           -0.000      0.875
    193       Ga     2      13.000    6.938   6.938           -0.000     -0.877
    194       N      1       5.000    2.063   2.063            0.000      0.874
    195       Ga     2      13.000    6.939   6.939           -0.000     -0.878
    196       N      1       5.000    2.060   2.060            0.000      0.879
    197       Ga     2      13.000    6.949   6.949            0.000     -0.898
    198       N      1       5.000    2.050   2.050            0.000      0.899
    199       Ga     2      13.000    6.918   6.918            0.000     -0.836
    200       O      3       6.000    3.020   3.020           -0.000     -0.041
    201       H      4       1.000    0.213   0.213           -0.000      0.574
    202       C      5       4.000    2.450   2.450           -0.000     -0.900
    203       H      4       1.000    0.280   0.280           -0.000      0.441
    204       H      4       1.000    0.282   0.282           -0.000      0.437
    205       H      4       1.000    0.280   0.280           -0.000      0.440
    206       Ga     2      13.000    7.049   7.049           -0.000     -1.098
    207       O      3       6.000    3.315   3.315           -0.000     -0.631
    208       H      4       1.000    0.233   0.233           -0.000      0.533
    209       C      5       4.000    2.045   2.045           -0.000     -0.090
    210       H      4       1.000    0.272   0.272           -0.000      0.456
    211       H      4       1.000    0.231   0.231           -0.000      0.537
    212       H      4       1.000    0.274   0.274           -0.000      0.452

  Total Charge                                                            0.002
 !-----------------------------------------------------------------------------!

 ENERGY| Total FORCE_EVAL ( QS ) energy (a.u.):            -8504.793337334765965


 --------  Informations at step =     6 ------------
  Optimization Method        =                 BFGS
  Total Energy               =     -8504.7933373348
  Real energy change         =        -0.0027026716
  Predicted change in energy =        -0.0027297010
  Scaling factor             =         0.0000000000
  Step size                  =         0.2643938653
  Trust radius               =         0.4724315332
  Decrease in energy         =                  YES
  Used time                  =              339.909

  Convergence check :
  Max. step size             =         0.2643938653
  Conv. limit for step size  =         0.0030000000
  Convergence in step size   =                   NO
  RMS step size              =         0.0185048156
  Conv. limit for RMS step   =         0.0015000000
  Convergence in RMS step    =                   NO
  Max. gradient              =         0.0063290388
  Conv. limit for gradients  =         0.0004500000
  Conv. for gradients        =                   NO
  RMS gradient               =         0.0011026488
  Conv. limit for RMS grad.  =         0.0003000000
  Conv. for gradients        =                   NO
 ---------------------------------------------------

 --------------------------
 OPTIMIZATION STEP:      7
 --------------------------

 Spin 1

 Number of electrons:                                                        914
 Number of occupied orbitals:                                                914
 Number of molecular orbitals:                                               914

 Spin 2

 Number of electrons:                                                        914
 Number of occupied orbitals:                                                914
 Number of molecular orbitals:                                               914

 Number of orbital functions:                                               3892
 Number of independent orbital functions:                                   3892

 Parameters for the always stable predictor-corrector (ASPC) method:

  ASPC order: 3

  B(1) =   3.000000
  B(2) =  -3.428571
  B(3) =   1.928571
  B(4) =  -0.571429
  B(5) =   0.071429

 Parameters for the always stable predictor-corrector (ASPC) method:

  ASPC order: 3

  B(1) =   3.000000
  B(2) =  -3.428571
  B(3) =   1.928571
  B(4) =  -0.571429
  B(5) =   0.071429

 Extrapolation method: ASPC


 SCF WAVEFUNCTION OPTIMIZATION

  ----------------------------------- OT ---------------------------------------
  Minimizer      : CG                  : conjugate gradient
  Preconditioner : FULL_ALL            : diagonalization, state selective
  Precond_solver : DEFAULT
  Line search    : 2PNT                : 2 energies, one gradient
  stepsize       :    0.15000000                  energy_gap     :    0.08000000
  eps_taylor     :   0.10000E-15                  max_taylor     :             4
  ----------------------------------- OT ---------------------------------------

  Step     Update method      Time    Convergence         Total energy    Change
  ------------------------------------------------------------------------------
     1 OT CG       0.15E+00   27.4     0.00010595     -8504.7777212853 -8.50E+03
     2 OT LS       0.25E+00    8.8                    -8504.7860756232
     3 OT CG       0.25E+00   18.9     0.00013057     -8504.7876472376 -9.93E-03
     4 OT LS       0.66E-01    8.6                    -8504.7611729317
