     212
 i =        1, E =     -8504.7670483184
  N         0.0835789284        2.1288120838        2.5708504039
 Ga         0.0944677709        0.1793598595        3.0039129383
  N         0.0893356059        0.1303695974        5.1091198338
 Ga         0.0643820100        1.9556399066        5.8725633105
  N         0.0704839910        1.9696026817        7.8598321270
 Ga         0.0646301068        0.1170865528        8.4932341820
  N         0.0712637148        0.1193856369       10.4646735669
 Ga         0.0687731055        1.9579315571       11.1207331197
  N         0.0716546887        1.9402816229       13.1098057116
 Ga         0.0737404802        0.1215188899       13.9217493392
  N         0.0739245343        0.1226912744       16.1136164911
 Ga         0.0732722425        2.1716011936       16.5344232299
 Ga         0.1224676560        3.8444550232        1.4330071311
  N        -1.3893030540        4.6976459500        2.5321072790
 Ga        -1.6140955387        2.8543185256        3.3028672299
  N        -1.5407236823        2.9027970256        5.2824556589
 Ga        -1.5623919877        4.7716070722        5.8480706438
  N        -1.5442098425        4.7684606230        7.8413474782
 Ga        -1.5321218637        2.9127064514        8.4900547121
  N        -1.5258969045        2.9134261334       10.4789606642
 Ga        -1.5527799998        4.7726398603       11.1185137261
  N        -1.5683421830        4.7824436771       13.1089479959
 Ga        -1.5248199758        2.9128070417       13.6679477972
  N        -1.5496346543        2.8965316438       15.6268512640
 Ga        -1.3739682669        4.6701634151       16.5342344773
  N         0.0664088058        3.8390071171       17.6757063427
  N        -3.1299771379        7.6612646269        2.5564489625
 Ga        -3.1081172268        5.6686109198        2.8898442485
  N        -3.1290274119        5.6955679390        5.0615024347
 Ga        -3.1454616159        7.5123513945        5.8445552723
  N        -3.1428258962        7.5384092251        7.8357707246
 Ga        -3.1440794337        5.6907236062        8.4878049326
  N        -3.1441785494        5.6929132906       10.4604388474
 Ga        -3.1455409088        7.5301446910       11.1182717435
  N        -3.1443504126        7.5120406448       13.1080012027
 Ga        -3.1444516734        5.6926361891       13.9227907881
  N        -3.1439580327        5.6923130475       16.1124614121
 Ga        -3.1439527148        7.7367288419       16.5350813145
 Ga        -3.1661326318        9.4119160239        1.4907791633
  N        -4.6408974347       10.2826509724        2.5987234487
 Ga        -4.8609744043        8.4177415503        3.3056984974
  N        -4.7488581071        8.4792796399        5.2774044629
 Ga        -4.7780799755       10.3431622168        5.8728583612
  N        -4.7590364145       10.3369350707        7.8575200599
 Ga        -4.7460198637        8.4763042379        8.4820965548
  N        -4.7411509164        8.4812664034       10.4724432978
 Ga        -4.7711030254       10.3386298350       11.1201542766
  N        -4.7846722462       10.3512680515       13.1087988342
 Ga        -4.7408684022        8.4835347607       13.6689587705
  N        -4.7679235879        8.4708004601       15.6273889301
 Ga        -4.5838968195       10.2387656807       16.5351294689
  N        -3.1440108887        9.3992212226       17.6767979434
  N         3.3009270508        2.0021622152        2.7140084240
 Ga         3.2959719039        0.1961111471        3.3610685989
  N         3.2913848346        0.1199147524        5.3053930776
 Ga         3.2914618607        1.9794721334        5.9489621999
  N         3.2888658490        1.9748164716        7.9142100923
 Ga         3.2870286807        0.1045157176        8.5106560162
  N         3.2877807248        0.1067276695       10.4932937625
 Ga         3.2887774493        1.9778942516       11.0856670152
  N         3.2890643342        1.9780252392       13.0523398131
 Ga         3.2883472878        0.1053792736       13.6694445533
  N         3.2885632546        0.1395562875       15.6265083042
 Ga         3.2891455026        1.9789304443       15.9010084442
  N         1.5519420316        4.6838893969        2.6406512411
 Ga         1.7213590222        2.8678824661        3.3804127944
  N         1.6873849627        2.9022946214        5.3277011304
 Ga         1.7002913965        4.7774845124        5.8782890973
  N         1.6859369631        4.7684477978        7.8572469448
 Ga         1.6667480392        2.9139303315        8.5058252766
  N         1.6691038262        2.9123857991       10.4906510249
 Ga         1.6961418799        4.7760227796       11.1196561128
  N         1.7134124000        4.7833593579       13.1095949653
 Ga         1.6671381505        2.9142217811       13.6694362943
  N         1.6959501243        2.8984648345       15.6267614874
 Ga         1.5144021625        4.6665103935       16.5351839430
  N         0.0818899247        7.5472871237        2.7067243317
 Ga         0.0786054713        5.7113990453        3.3809005166
  N         0.0717071234        5.7098143146        5.3104548480
 Ga         0.1004744657        7.5613808037        5.9176079555
  N         0.0771113922        7.5539114387        7.8848382814
 Ga         0.0689710400        5.6852181015        8.4877258468
  N         0.0706274537        5.6809327917       10.4764695018
 Ga         0.0734097126        7.5494586158       11.0750149441
  N         0.0725541241        7.5495109272       13.0432604107
 Ga         0.0725096387        5.6787712160       13.6694755418
  N         0.0749586925        5.7098584464       15.6283723461
 Ga         0.0695037842        7.5478152028       15.9086112609
  N        -1.6446791257       10.2701663535        2.5815895600
 Ga        -1.5004787961        8.4642057531        3.3573049493
  N        -1.5225584904        8.4741561595        5.2877023696
 Ga        -1.5037786499       10.3495915287        5.8822261941
  N        -1.5320827207       10.3337249035        7.8626975944
 Ga        -1.5442421829        8.4758212916        8.4914931450
  N        -1.5473536898        8.4810074105       10.4781141726
 Ga        -1.5171723813       10.3403601132       11.1214153687
  N        -1.5021966737       10.3522933483       13.1100804923
 Ga        -1.5479082883        8.4840589065       13.6695520125
  N        -1.5196364372        8.4708270089       15.6281015754
 Ga        -1.7036716183       10.2388889002       16.5355229412
  N         6.5396375013        2.0390977640        2.5597573761
 Ga         6.5169742454        0.1215487617        2.9624661462
  N         6.4821082869        0.1216065652        5.1226394358
 Ga         6.5069255970        1.9469590684        5.8536380093
  N         6.5066711783        1.9722516756        7.8488305659
 Ga         6.5127769728        0.1171265376        8.4885183682
  N         6.5057824746        0.1202973843       10.4624243975
 Ga         6.5092229467        1.9589375518       11.1209767469
  N         6.5059362251        1.9406532324       13.1100120426
 Ga         6.5037407268        0.1225992401       13.9233670165
  N         6.5029880954        0.1231196560       16.1142147212
 Ga         6.5039036821        2.1721149946       16.5339846579
 Ga         7.8523918143        3.0491874766        0.7484384627
  N         4.8452932404        4.7855575894        2.6384215565
 Ga         4.9235452743        2.8824123754        3.2992793276
  N         4.8869478298        2.9014179035        5.2616659347
 Ga         4.8828880738        4.7772427213        5.8663855977
  N         4.8889430120        4.7664859385        7.8531397435
 Ga         4.9111125218        2.9128148059        8.5067792850
  N         4.9086580154        2.9131688087       10.4917706982
 Ga         4.8840149318        4.7778135971       11.1175634907
  N         4.8657907283        4.7836571119       13.1078693103
 Ga         4.9106222152        2.9149379394       13.6686698915
  N         4.8817202807        2.8988942919       15.6257621256
 Ga         5.0634014600        4.6665970698       16.5345995138
  N         6.5107031351        3.8390886406       17.6754926828
  N         3.2763036910        7.5524447771        2.5968564470
  N         3.2858684162        5.6796854910        5.1519092095
 Ga         3.2898101688        7.5429058416        5.8115360639
  N         3.2885022922        7.5446894415        7.8147165009
 Ga         3.2879188512        5.7027286674        8.4865056609
  N         3.2893666069        5.6949043100       10.4599561262
 Ga         3.2905243378        7.5326838955       11.1179079733
  N         3.2894898640        7.5119553193       13.1099695400
 Ga         3.2899236480        5.6906418925       13.9231185590
  N         3.2889148786        5.6902770625       16.1147170304
 Ga         3.2890022261        7.7269001546       16.5187938470
 Ga         4.1465980355       10.8821834780        0.6739300498
  N         1.7031025330       10.3402119477        2.5703267916
 Ga         1.7002737157        8.5615153009        3.2081150370
  N         1.6766058102        8.4671983113        5.2025848828
 Ga         1.6568013063       10.3356962407        5.8150466677
  N         1.6716109363       10.3311583101        7.8243171942
 Ga         1.6958264442        8.4845446276        8.4833509555
  N         1.6929011583        8.4832141206       10.4743367074
 Ga         1.6682009481       10.3435888918       11.1157294218
  N         1.6487681383       10.3532502694       13.1087558856
 Ga         1.6920796900        8.4842723858       13.6669995704
  N         1.6624833387        8.4672339518       15.6292069900
 Ga         1.8342602373       10.2461068041       16.5191130522
  N         3.2884745642        9.4058616079       17.6334834435
  N         9.7031886266        1.9640607770        2.6548408067
 Ga         9.6566964420        0.1454058795        3.2842249051
  N         9.7180541181        0.1232667598        5.2732376402
 Ga         9.7251032129        1.9657255852        5.9108741616
  N         9.7203360228        1.9769124467        7.8885642336
 Ga         9.7197034437        0.1055908239        8.4697810815
  N         9.7210073237        0.1083698184       10.4674014309
 Ga         9.7209448866        1.9761307607       11.0717236791
  N         9.7204562462        1.9774302657       13.0409445903
 Ga         9.7214026180        0.1088880577       13.6665149648
  N         9.7208984685        0.1432046245       15.6287335518
 Ga         9.7205867374        1.9825538980       15.9079509220
  N         8.0964832641        4.7047992197        2.5508732648
 Ga         8.1734614819        2.8699613004        3.3289780989
  N         8.1177444827        2.8986178897        5.2909030549
 Ga         8.1348959863        4.7812205015        5.8164083034
  N         8.1254332320        4.7684343469        7.8236356984
 Ga         8.1089610510        2.9154616253        8.4874857105
  N         8.1034722506        2.9145061073       10.4779982381
 Ga         8.1278852889        4.7739370256       11.1168368507
  N         8.1444977394        4.7827596718       13.1074614088
 Ga         8.1018435348        2.9138495172       13.6676473089
  N         8.1267334222        2.8969039552       15.6263232403
 Ga         7.9506326059        4.6703368771       16.5337379443
  N         6.4857257387        7.5351845251        2.6548415421
 Ga         6.5235891165        5.7423324693        3.2646645355
  N         6.4979419772        5.6992003905        5.2523669014
 Ga         6.4761990713        7.5621366746        5.8785025808
  N         6.4983943845        7.5573573013        7.8675953116
 Ga         6.5110255722        5.6883964230        8.4732242559
  N         6.5072026361        5.6825295324       10.4683513506
 Ga         6.5045568429        7.5494743300       11.0709710096
  N         6.5047922526        7.5489832764       13.0397666680
 Ga         6.5052631509        5.6797306675       13.6686786359
  N         6.5023310097        5.7100468220       15.6271296172
 Ga         6.5078043464        7.5475737069       15.9086957598
  N         4.8681806744       10.3839708828        2.5351280775
 Ga         4.9410330041        8.5078880975        3.1488101990
  N         4.8837029783        8.4871466853        5.1864738644
 Ga         4.9094237529       10.3377773306        5.8182619397
  N         4.9062934153       10.3351986230        7.8254047879
 Ga         4.8832533116        8.4847567143        8.4777313017
  N         4.8860142450        8.4833394089       10.4708915768
 Ga         4.9093718963       10.3422395382       11.1144049896
  N         4.9285311712       10.3525648740       13.1073777352
 Ga         4.8868947469        8.4841632469       13.6661031949
  N         4.9152159972        8.4671302949       15.6282441312
 Ga         4.7426805224       10.2455618456       16.5188118095
  O         0.6434464820        4.1864535326       -0.2917993557
  H         3.1146671267        5.0509064736        0.3166681036
  C         0.9148228588        3.0851900463       -1.1706436705
  H         1.5217351949        2.3017485954       -0.6867678863
  H        -0.0142124153        2.6343653203       -1.5506430447
  H         1.4834324890        3.4798685556       -2.0257535072
 Ga         3.1724008489        5.6641000419        3.1155931325
  O         3.9505556839        5.5359625440        0.5499612735
  H         0.0153524029        7.5047775670        1.6838128528
  C         4.9576285677        4.6896940519        1.1361101152
  H         5.8788755732        5.2042458200        0.8156595358
  H         3.2856951678        7.5726520100        1.5689603946
  H         4.8767073072        3.6468664047        0.8060761075
     212
 i =        2, E =     -8504.7804180729
  N         0.0841327222        2.1336141202        2.5690147827
 Ga         0.0965398777        0.1863417473        3.0002527793
  N         0.0927951294        0.1313141672        5.1077583006
 Ga         0.0636394876        1.9573626878        5.8686551779
  N         0.0683424195        1.9695806161        7.8610042600
 Ga         0.0646955749        0.1171127725        8.4898010941
  N         0.0703891333        0.1195338788       10.4654936664
 Ga         0.0697664018        1.9589572945       11.1185684556
  N         0.0717366827        1.9408915756       13.1113131963
 Ga         0.0737180914        0.1221252681       13.9181409358
  N         0.0743529372        0.1228715624       16.1161534678
 Ga         0.0737082768        2.1698286144       16.5320393063
 Ga         0.1340750110        3.8538530299        1.4325228008
  N        -1.3956856811        4.7005419178        2.5295408475
 Ga        -1.6154959745        2.8635380772        3.2951362037
  N        -1.5456126650        2.9011768668        5.2793888561
 Ga        -1.5648300952        4.7704004915        5.8484206919
  N        -1.5434588074        4.7674768226        7.8445338995
 Ga        -1.5325004119        2.9124659277        8.4884443512
  N        -1.5260689729        2.9140368343       10.4810762995
 Ga        -1.5521518528        4.7736602098       11.1168263583
  N        -1.5674190233        4.7824306436       13.1104816173
 Ga        -1.5242032269        2.9134034369       13.6670137860
  N        -1.5489736000        2.8962306270       15.6286483093
 Ga        -1.3758286928        4.6715765607       16.5314057321
  N         0.0652649018        3.8389897106       17.6719861330
  N        -3.1284485120        7.6627633727        2.5539719156
 Ga        -3.1155623658        5.6563958952        2.8990288153
  N        -3.1250103261        5.7023821112        5.0739760193
 Ga        -3.1465141308        7.5132454345        5.8485313283
  N        -3.1426033319        7.5401619910        7.8403502501
 Ga        -3.1450854253        5.6898919764        8.4821086324
  N        -3.1436792634        5.6923854170       10.4590040973
 Ga        -3.1448205219        7.5293605891       11.1165946343
  N        -3.1439850020        7.5124369657       13.1101101166
 Ga        -3.1437502261        5.6923130607       13.9190173050
  N        -3.1439506580        5.6923181975       16.1144221130
 Ga        -3.1437664053        7.7338741814       16.5322127804
 Ga        -3.1614667858        9.4253872283        1.5443963160
  N        -4.6377828310       10.2790480000        2.6041025676
 Ga        -4.8636888162        8.4098303356        3.3153388750
  N        -4.7503993244        8.4771995466        5.2824376895
 Ga        -4.7744541041       10.3432331618        5.8679127723
  N        -4.7594000133       10.3364496025        7.8566295822
 Ga        -4.7484222947        8.4759971515        8.4786050728
  N        -4.7414513859        8.4806736759       10.4737067546
 Ga        -4.7705717093       10.3391481221       11.1182974962
  N        -4.7845102238       10.3511495053       13.1109786537
 Ga        -4.7404818563        8.4835589972       13.6679662335
  N        -4.7677517584        8.4716072097       15.6292642751
 Ga        -4.5856070299       10.2401870080       16.5327007901
  N        -3.1442494019        9.3982827390       17.6722052197
  N         3.3094253675        2.0095716343        2.7364813650
 Ga         3.3012402525        0.2403222350        3.3504625068
  N         3.2901489028        0.1129713748        5.3064352776
 Ga         3.3005630538        1.9840988029        5.9207890365
  N         3.2920206118        1.9757065451        7.8990448177
 Ga         3.2868858950        0.1088774147        8.5029470019
  N         3.2881787183        0.1078544850       10.4917984915
 Ga         3.2886097976        1.9785684873       11.0843981270
  N         3.2885933091        1.9783465605       13.0556022530
 Ga         3.2886135082        0.1052369725       13.6681040634
  N         3.2885373359        0.1389749103       15.6276897292
 Ga         3.2889526988        1.9788316728       15.9002481031
  N         1.5552383459        4.6975272538        2.6633648551
 Ga         1.7500835806        2.8624125393        3.3708061759
  N         1.6801234460        2.9016630139        5.3330991730
 Ga         1.6954326267        4.7704786470        5.8852624161
  N         1.6841602803        4.7690147789        7.8680100127
 Ga         1.6704675975        2.9101965016        8.4975729441
  N         1.6698539903        2.9127653956       10.4887598815
 Ga         1.6961380162        4.7761300576       11.1167339948
  N         1.7128240194        4.7834791461       13.1099984224
 Ga         1.6666149529        2.9152284909       13.6679924377
  N         1.6955584125        2.8985254409       15.6276280529
 Ga         1.5155449989        4.6669839515       16.5327235816
  N         0.0812396039        7.5426808215        2.7064306406
 Ga         0.0659390236        5.7040321752        3.3871119255
  N         0.0700071974        5.7114279537        5.3195803214
 Ga         0.0992229475        7.5620389048        5.9206131916
  N         0.0767307666        7.5544247025        7.8899317957
 Ga         0.0677534087        5.6854284556        8.4868230827
  N         0.0708783577        5.6817847524       10.4785771906
 Ga         0.0740092440        7.5489452311       11.0750413987
  N         0.0730471029        7.5492303170       13.0466017234
 Ga         0.0728853255        5.6784884505       13.6679722193
  N         0.0754244733        5.7095887522       15.6293709486
 Ga         0.0692027904        7.5475371324       15.9084728418
  N        -1.6436948992       10.2671936190        2.5830567066
 Ga        -1.4952244279        8.4621879365        3.3668059411
  N        -1.5241612798        8.4732784538        5.2951777619
 Ga        -1.5092971051       10.3502089975        5.8824763892
  N        -1.5323347028       10.3326605760        7.8658004490
 Ga        -1.5442452154        8.4766667762        8.4910035665
  N        -1.5459979489        8.4802377301       10.4806486446
 Ga        -1.5168795384       10.3405319690       11.1187476797
  N        -1.5024272188       10.3517332337       13.1113971702
 Ga        -1.5473784554        8.4838830542       13.6682340872
  N        -1.5196603523        8.4715274325       15.6295909794
 Ga        -1.7021605301       10.2399931208       16.5329863868
  N         6.5720710903        2.0350397764        2.5552085810
 Ga         6.5212881125        0.1440416610        2.9680616453
  N         6.4790614648        0.1159217319        5.1352334558
 Ga         6.5008578436        1.9455728177        5.8497126937
  N         6.5048856689        1.9723795956        7.8490118914
 Ga         6.5122944726        0.1186386219        8.4831867792
  N         6.5066149815        0.1201694091       10.4614238776
 Ga         6.5087775046        1.9591518396       11.1180039652
  N         6.5058707358        1.9408020305       13.1111488152
 Ga         6.5038803503        0.1223271541       13.9192253823
  N         6.5025689185        0.1232842888       16.1167945045
 Ga         6.5033793587        2.1705423549       16.5319888935
 Ga         7.8237410651        3.0606862235        0.8326296135
  N         4.8561145960        4.7597554936        2.6272879505
 Ga         4.9433062264        2.8597690021        3.2590416786
  N         4.9012949552        2.9068694713        5.2457566765
 Ga         4.8847362190        4.7750189972        5.8530556035
  N         4.8903205384        4.7655324147        7.8479760865
 Ga         4.9096633998        2.9120157926        8.5000416956
  N         4.9080442055        2.9130715367       10.4904524083
 Ga         4.8830837119        4.7777227681       11.1145274068
  N         4.8655404487        4.7838472267       13.1085718945
 Ga         4.9108032945        2.9154870438       13.6670314083
  N         4.8818492667        2.8988039808       15.6266569498
 Ga         5.0620691478        4.6668859677       16.5325572106
  N         6.5119031217        3.8393468704       17.6720720627
  N         3.2629645956        7.5641288951        2.6156147069
  N         3.2744242934        5.6877508262        5.1653582623
 Ga         3.2917324389        7.5465591107        5.8199660959
  N         3.2888606043        7.5472692440        7.8246188040
 Ga         3.2902114355        5.7011226520        8.4825657249
  N         3.2888225433        5.6955972050       10.4601971664
 Ga         3.2897375891        7.5322599002       11.1163335839
  N         3.2891368661        7.5124451248       13.1116136540
 Ga         3.2892936001        5.6904623894       13.9182217085
  N         3.2889119887        5.6898087713       16.1161876415
 Ga         3.2888062096        7.7231660054       16.5151173602
 Ga         4.1499492841       10.8702326855        0.6686429189
  N         1.6996349934       10.3462700463        2.5654749553
 Ga         1.6925551769        8.5747105662        3.2095830097
  N         1.6767344411        8.4672853900        5.2085725347
 Ga         1.6556827070       10.3381989381        5.8136910381
  N         1.6728234781       10.3314553795        7.8265290982
 Ga         1.6948479363        8.4859249614        8.4823045259
  N         1.6924843749        8.4825107974       10.4761409329
 Ga         1.6676699426       10.3424770466       11.1140403469
  N         1.6492978763       10.3522930790       13.1105996151
 Ga         1.6922198013        8.4839797650       13.6656585436
  N         1.6627871499        8.4675014778       15.6312236721
 Ga         1.8306953341       10.2478324682       16.5153729063
  N         3.2886218661        9.4063830285       17.6287174884
  N         9.6802844390        1.9824748224        2.6565490019
 Ga         9.6486378488        0.1516115420        3.2794637351
  N         9.7189866636        0.1259044520        5.2714005496
 Ga         9.7236228718        1.9670075463        5.9112313293
  N         9.7200695436        1.9765896285        7.8906769078
 Ga         9.7198293863        0.1059757903        8.4682385936
  N         9.7205641200        0.1081065353       10.4696571459
 Ga         9.7205307377        1.9766283709       11.0708121758
  N         9.7209089503        1.9771082916       13.0444363160
 Ga         9.7210950741        0.1082564513       13.6655100677
  N         9.7209150880        0.1424574395       15.6313377059
 Ga         9.7207597560        1.9828143152       15.9080240002
  N         8.1217618951        4.6868318574        2.5422145347
 Ga         8.1477663550        2.8886866833        3.3707852250
  N         8.1147381044        2.9027646300        5.3194545046
 Ga         8.1340306277        4.7895619183        5.8130646124
  N         8.1238688560        4.7707675190        7.8238729925
 Ga         8.1065085718        2.9168892764        8.4792401057
  N         8.1033887885        2.9146086043       10.4755426864
 Ga         8.1280810543        4.7740383257       11.1144743206
  N         8.1443727417        4.7827964230       13.1091011571
 Ga         8.1015711814        2.9139230428       13.6665662438
  N         8.1262384906        2.8964861296       15.6281948085
 Ga         7.9527019083        4.6716488130       16.5314080238
  N         6.4860105744        7.5223840747        2.6682498768
 Ga         6.5437960919        5.6967932098        3.2214063159
  N         6.4982272309        5.6891924077        5.2267719032
 Ga         6.4762993576        7.5466254011        5.8629510717
  N         6.4985189887        7.5541241234        7.8588211326
 Ga         6.5103113123        5.6870789666        8.4698130220
  N         6.5068556291        5.6823818869       10.4692007831
 Ga         6.5040058414        7.5488999538       11.0705878105
  N         6.5043971755        7.5492213047       13.0436029284
 Ga         6.5048221161        5.6791263400       13.6673439546
  N         6.5018817577        5.7098942531       15.6286324871
 Ga         6.5081736692        7.5475091216       15.9091362336
  N         4.8685711063       10.3869145005        2.5345824807
 Ga         4.9385455450        8.5046367606        3.1491459018
  N         4.8866755229        8.4893003966        5.1890808347
 Ga         4.9128077310       10.3414538845        5.8123958447
  N         4.9053926536       10.3353855493        7.8237859834
 Ga         4.8868285078        8.4847503492        8.4746564675
  N         4.8853462441        8.4828939854       10.4720320123
 Ga         4.9090417719       10.3416299049       11.1136174104
  N         4.9281699850       10.3521028025       13.1102074748
 Ga         4.8859333205        8.4839759818       13.6650921624
  N         4.9148447786        8.4674602028       15.6306990300
 Ga         4.7463368553       10.2475707568       16.5152505714
  O         0.6373366841        4.1811526393       -0.2964658719
  H         3.1242305584        5.0018232245        0.3464270020
  C         0.9124262356        3.0816798713       -1.1729530870
  H         1.5203077970        2.2989740300       -0.6896436415
  H        -0.0137107333        2.6256400411       -1.5553499976
  H         1.4813967395        3.4772155314       -2.0279596481
 Ga         3.1929689231        5.6626836627        3.1291133982
  O         3.9311610195        5.5557099646        0.5041196886
  H         0.0180830874        7.5020167486        1.6823121354
  C         4.9238932296        4.7351433796        1.1395178821
  H         5.8786188557        5.1488949749        0.7889282878
  H         3.2876750507        7.5510621914        1.5836294371
  H         4.8778959116        3.6914336258        0.7835621913
     212
 i =        3, E =     -8504.7850579403
  N         0.0895719719        2.1324065805        2.5649504591
 Ga         0.0933189353        0.1881411937        2.9990052756
  N         0.0945363467        0.1329953413        5.1057581832
 Ga         0.0652265126        1.9586949209        5.8635208394
  N         0.0670918425        1.9703492260        7.8599395852
 Ga         0.0651401478        0.1174885459        8.4862118117
  N         0.0701226816        0.1196714668       10.4655714738
 Ga         0.0707038007        1.9598422853       11.1161227396
  N         0.0717990137        1.9416426825       13.1117144451
 Ga         0.0742288950        0.1226771812       13.9140938255
  N         0.0744621414        0.1229752197       16.1179506986
 Ga         0.0735686189        2.1695320421       16.5301238498
 Ga         0.1442887470        3.8546510721        1.4306038737
  N        -1.3937561739        4.7032765106        2.5312754823
 Ga        -1.6106221794        2.8676957267        3.2889227514
  N        -1.5478279841        2.9028263487        5.2765159550
 Ga        -1.5689229622        4.7705769651        5.8526568314
  N        -1.5441624443        4.7663897084        7.8492301297
 Ga        -1.5320558429        2.9113188896        8.4891289625
  N        -1.5265356191        2.9140800959       10.4836496187
 Ga        -1.5525250273        4.7737507445       11.1156729128
  N        -1.5670004843        4.7822490618       13.1115900706
 Ga        -1.5243818643        2.9132946783       13.6659756029
  N        -1.5489731055        2.8957857788       15.6291849373
 Ga        -1.3765079530        4.6718686192       16.5292419115
  N         0.0649564385        3.8393526837       17.6711642000
  N        -3.1295532311        7.6700023687        2.5563027466
 Ga        -3.1161081515        5.6519735016        2.9030383333
  N        -3.1274122651        5.7026976563        5.0800101117
 Ga        -3.1467345757        7.5141850756        5.8509916238
  N        -3.1424040611        7.5405776660        7.8436310227
 Ga        -3.1461721392        5.6899123420        8.4810307551
  N        -3.1440027070        5.6916978617       10.4598155584
 Ga        -3.1450970188        7.5289084864       11.1146233913
  N        -3.1437594787        7.5126235662       13.1109826222