     212
 i =        1, E =     -8504.7247781797
  N         0.0137571991        1.9776269491        2.5505274447
 Ga        -0.0019642704       -0.0159809657        2.8870050369
  N         0.0197331120       -0.0001271086        5.0498843581
 Ga         0.0119419652        1.8132109140        5.8362387072
  N         0.0123013721        1.8344984681        7.8271755710
 Ga         0.0129055097       -0.0198820264        8.4514328636
  N         0.0137841342       -0.0162771156       10.4266318480
 Ga         0.0126413168        1.8223931520       11.0769943910
  N         0.0137504234        1.8023987816       13.0728162253
 Ga         0.0135264347       -0.0244228471       13.8662801686
  N         0.0146681248       -0.0128852164       16.0719067265
 Ga         0.0143119000        2.0005242244       16.4510317535
 Ga         0.0011186446        3.6539418946        1.5253423770
  N        -1.4676121466        4.5770246070        2.5198980488
 Ga        -1.6895701862        2.7030995608        3.3256513447
  N        -1.5948001918        2.7790431828        5.2834346878
 Ga        -1.6262537957        4.6483961472        5.8252574773
  N        -1.6013214393        4.6394224681        7.8141596895
 Ga        -1.5875004229        2.7794219790        8.4555124407
  N        -1.5840446248        2.7787363389       10.4470814425
 Ga        -1.6111620792        4.6375812622       11.0782724800
  N        -1.6277678666        4.6472438197       13.0736196869
 Ga        -1.5844767635        2.7753038943       13.6166001953
  N        -1.6072335510        2.7605706589       15.5841829055
 Ga        -1.4600770406        4.5477947972       16.4505720186
  N         0.0151876397        3.7038265390       17.5856080563
  N        -3.1909792272        7.5233921018        2.5119732427
 Ga        -3.1960400150        5.5708780159        2.8833741147
  N        -3.1981693832        5.5550007301        5.0320162522
 Ga        -3.2082770223        7.3878096894        5.7982584931
  N        -3.1994609894        7.4036412788        7.7950370044
 Ga        -3.2055664339        5.5601060610        8.4520526662
  N        -3.2031904775        5.5563459982       10.4249733472
 Ga        -3.2036323340        7.3971178797       11.0738648744
  N        -3.2023440039        7.3775332724       13.0660485525
 Ga        -3.2105123687        5.5607558862       13.8691492274
  N        -3.2040160834        5.5562312245       16.0723306946
 Ga        -3.2020212800        7.6093370033       16.4964708599
 Ga        -3.2353966985        9.3163271653        1.2771997074
  N        -4.7108269812       10.1597853296        2.5307253527
 Ga        -4.8886898868        8.3154292235        3.2401673117
  N        -4.8098220316        8.3431364463        5.2314335557
 Ga        -4.8305718087       10.2131476665        5.8029042716
  N        -4.8165491496       10.2033173890        7.8049138116
 Ga        -4.8042017233        8.3453382827        8.4322529787
  N        -4.7991346235        8.3456791254       10.4280799135
 Ga        -4.8248278235       10.2030277288       11.0739640740
  N        -4.8407375099       10.2141245793       13.0665535557
 Ga        -4.7992627856        8.3471820296       13.6289811473
  N        -4.8249463639        8.3325087049       15.5888206219
 Ga        -4.6419351767       10.1004109294       16.4946573512
  N        -3.1960981575        9.2755822695       17.6311303418
  N         3.2181526365        1.8486379247        2.6228920462
 Ga         3.2303069994        0.0749776086        3.2660883931
  N         3.2331555122       -0.0102655662        5.2535412365
 Ga         3.2292324803        1.8337350847        5.9001102785
  N         3.2312570903        1.8417147561        7.8721737886
 Ga         3.2296390140       -0.0289301651        8.4536768029
  N         3.2314600758       -0.0285130941       10.4443981900
 Ga         3.2310453094        1.8405456861       11.0395687353
  N         3.2303384086        1.8413714081       13.0090885654
 Ga         3.2296889861       -0.0291328990       13.6314596880
  N         3.2267117915        0.0049761298       15.5915051462
 Ga         3.2339276678        1.8412816882       15.8678886176
  N         1.4966042252        4.5582355147        2.5510121534
 Ga         1.7040346168        2.6971712412        3.3329196791
  N         1.6231246279        2.7703632846        5.2907947815
 Ga         1.6401319509        4.6304836376        5.8504040090
  N         1.6279584331        4.6346650758        7.8261653939
 Ga         1.6134718562        2.7740695704        8.4602035605
  N         1.6113184629        2.7770758011       10.4496399902
 Ga         1.6391979129        4.6379996472       11.0765377650
  N         1.6571668118        4.6474733409       13.0731148358
 Ga         1.6121325755        2.7755523461       13.6171769749
  N         1.6359001067        2.7608307620       15.5846895949
 Ga         1.4902371418        4.5487403233       16.4516945162
  N         0.0087945740        7.4248497700        2.6636613959
 Ga         0.0233812224        5.5975129635        3.3578211655
  N         0.0180486696        5.5786510128        5.2802063007
 Ga         0.0275178864        7.4336101147        5.8918178560
  N         0.0207169923        7.4195368270        7.8549882261
 Ga         0.0129676272        5.5522254016        8.4555820525
  N         0.0135826103        5.5459082397       10.4438698122
 Ga         0.0153556681        7.4151053688       11.0369885644
  N         0.0156312322        7.4130597457       13.0070494397
 Ga         0.0147598807        5.5440322894       13.6188362323
  N         0.0145458228        5.5727701209       15.5885078817
 Ga         0.0150599980        7.4174171445       15.8673971429
  N        -1.6868679104       10.1522936505        2.5217968526
 Ga        -1.6013851892        8.3620092598        3.3054705386
  N        -1.5786139960        8.3392523400        5.2495843962
 Ga        -1.5710305448       10.2234737548        5.8161717112
  N        -1.5869002423       10.2006280811        7.8111526318
 Ga        -1.6039359408        8.3472064358        8.4476438461
  N        -1.6034465655        8.3459821885       10.4375037483
 Ga        -1.5772382823       10.2057532520       11.0808237245
  N        -1.5609806470       10.2158123776       13.0737958355
 Ga        -1.6059918857        8.3472582449       13.6304744803
  N        -1.5785573781        8.3283279559       15.5900547894
 Ga        -1.7525528348       10.1059076892       16.4967591428
  N         6.4468659598        1.9748928336        2.5499709151
 Ga         6.4551642638       -0.0219244250        2.8870315389
  N         6.4412647771       -0.0052995210        5.0615322158
 Ga         6.4473282390        1.8131512041        5.8269046142
  N         6.4458263911        1.8340803233        7.8199654287
 Ga         6.4464678683       -0.0170076463        8.4544899656
  N         6.4471767811       -0.0156965259       10.4277602101
 Ga         6.4466818240        1.8230872269       11.0838782575
  N         6.4471432101        1.8044861102       13.0754907260
 Ga         6.4478032609       -0.0146028642       13.8868613510
  N         6.4470797105       -0.0101660480       16.0806266323
 Ga         6.4473568625        2.0362893578       16.5043007380
 Ga         6.4494176368        3.6985363965        1.5700841866
  N         4.9463929752        4.5546764543        2.5575160176
 Ga         4.7354820499        2.6861563234        3.3227694700
  N         4.8360850175        2.7682018495        5.2777822786
 Ga         4.8299599536        4.6338880932        5.8311927547
  N         4.8309208370        4.6326791088        7.8148285100
 Ga         4.8485094650        2.7761751024        8.4586105849
  N         4.8493005712        2.7765654399       10.4474720528
 Ga         4.8260716323        4.6378919406       11.0754100630
  N         4.8090839827        4.6461047349       13.0678051441
 Ga         4.8504153943        2.7775327469       13.6321303681
  N         4.8193875341        2.7617366039       15.5890794016
 Ga         5.0112045049        4.5258156954       16.5034723629
  N         6.4473403236        3.6972306289       17.6452948992
  N         3.2207601820        7.3695167661        2.6008531504
  N         3.2275409070        5.5299875450        5.0949958388
 Ga         3.2364986877        7.3962368510        5.7904815873
  N         3.2263147562        7.4052442837        7.7843454524
 Ga         3.2331658739        5.5629415912        8.4499005644
  N         3.2312744044        5.5585491475       10.4223500913
 Ga         3.2332950598        7.3976211388       11.0755333179
  N         3.2323677910        7.3780829904       13.0675415653
 Ga         3.2399898030        5.5609750065       13.8702892372
  N         3.2332115974        5.5558156720       16.0753504137
 Ga         3.2312769879        7.6112457553       16.5013234740
 Ga         3.1859620058        9.5145332644        1.0253354249
  N         1.7111079078       10.1740667793        2.5212281029
 Ga         1.6174044849        8.3956517425        3.2347939157
  N         1.6220169232        8.3413333787        5.2044592476
 Ga         1.5944853296       10.2180702222        5.8070696119
  N         1.6101156996       10.1957771043        7.8047082207
 Ga         1.6373995447        8.3486950782        8.4525867258
  N         1.6347541497        8.3473030739       10.4393931074
 Ga         1.6084837546       10.2077780204       11.0792982768
  N         1.5918145993       10.2162333292       13.0727071999
 Ga         1.6363463229        8.3481136500       13.6314597381
  N         1.6082286508        8.3285895039       15.5912511001
 Ga         1.7849019318       10.1043413227       16.5007852852
  N         3.2258596596        9.2754567149       17.6351649641
  N         9.6677402000        1.8446110879        2.6280945199
 Ga         9.6595584597        0.0669155295        3.2786716460
  N         9.6548469009       -0.0067328893        5.2588080255
 Ga         9.6597812090        1.8410272680        5.8939220774
  N         9.6591159968        1.8465091562        7.8678477337
 Ga         9.6609515127       -0.0280058022        8.4382601431
  N         9.6610017692       -0.0274501946       10.4345666022
 Ga         9.6608213227        1.8407657823       11.0339892039
  N         9.6629611626        1.8409308609       13.0050376481
 Ga         9.6641552365       -0.0282163030       13.6313823217
  N         9.6670801471        0.0046828420       15.5914824832
 Ga         9.6596965636        1.8404255556       15.8688705662
  N         7.9422079450        4.5786042323        2.5448469755
 Ga         8.1663071706        2.7088384885        3.3135013533
  N         8.0525534918        2.7760660583        5.2706806978
 Ga         8.0749227959        4.6503617787        5.8035607536
  N         8.0622965140        4.6366137355        7.8009522794
 Ga         8.0418248290        2.7813622387        8.4537207060
  N         8.0417105368        2.7781186425       10.4448989923
 Ga         8.0666319642        4.6373137889       11.0774582880
  N         8.0847274715        4.6458927784       13.0687585688
 Ga         8.0442192730        2.7770602596       13.6312536678
  N         8.0747905981        2.7614194910       15.5882765927
 Ga         7.8820182521        4.5253140058       16.5021590311
  N         6.4441813255        7.4339599535        2.5836006522
 Ga         6.4347086526        5.7113003010        3.2980455486
  N         6.4407026777        5.5666531060        5.2542557326
 Ga         6.4324459079        7.4361057454        5.8441457367
  N         6.4415518979        7.4182993351        7.8294006788
 Ga         6.4476521514        5.5547986269        8.4375055320
  N         6.4472369504        5.5461298275       10.4313991906
 Ga         6.4464747654        7.4142602833       11.0293861762
  N         6.4465448786        7.4133463019       13.0007478483
 Ga         6.4467930713        5.5444813459       13.6323042101
  N         6.4464443507        5.5760626643       15.5916305286
 Ga         6.4464741563        7.4135205918       15.8661603539
  N         4.7353633951       10.1768203761        2.5056733440
 Ga         4.9271433383        8.3598792730        3.1843639021
  N         4.8222390641        8.3489056450        5.1924093105
 Ga         4.8589022628       10.2129102148        5.7905642693
  N         4.8471081109       10.2012600850        7.7960705138
 Ga         4.8282890526        8.3468803330        8.4328322596
  N         4.8269907008        8.3461282004       10.4276056021
 Ga         4.8506765969       10.2044512868       11.0708727637
  N         4.8685310479       10.2144564851       13.0645315549
 Ga         4.8288050331        8.3480815361       13.6300250459
  N         4.8539634127        8.3329656179       15.5899552344
 Ga         4.6684640113       10.0991037789       16.4991354224
  O         0.3582688307        3.8634050494       -0.4604665365
  H         0.0381078663        4.7892256820       -0.7136022233
  C         1.7831288409        3.7298466228       -0.8099712482
  H         2.4005235983        4.2500322004       -0.0626091642
  H         2.0200997931        2.6607739560       -0.8024604528
  H         1.9260860432        4.1569033472       -1.8088493679
 Ga         3.2170388785        5.4180711874        3.0585777377
  O        -0.4784191122        6.3143678300       -1.0416339304
  H        -0.0336926962        7.3964526435        1.6384102321
  C        -1.6676328559        6.6203246090       -0.9073012361
  H        -2.0094236952        7.6631478489       -1.0655359274
  H         3.2074282812        7.2544689230        1.5473543487
  H        -2.4232838313        5.8869523224       -0.5656521300
     212
 i =        2, E =     -8504.7333537432
  N         0.0084623363        1.9714694385        2.5480754057
 Ga        -0.0120922392       -0.0242966289        2.8742358829
  N         0.0168789268       -0.0030534733        5.0446343735
 Ga         0.0107713983        1.8102501232        5.8332999766
  N         0.0124977777        1.8343734744        7.8234308573
 Ga         0.0119055940       -0.0196847905        8.4509500347
  N         0.0137586065       -0.0171810218       10.4248623121
 Ga         0.0128215556        1.8224262423       11.0761342271
  N         0.0139929408        1.8033751463       13.0673926876
 Ga         0.0137321527       -0.0189528263       13.8705610229
  N         0.0143856506       -0.0087544531       16.0709766315
 Ga         0.0148369319        2.0195979150       16.4707989112
 Ga         0.0087016651        3.6474055542        1.5233103203
  N        -1.4697189909        4.5739769865        2.5085250864
 Ga        -1.6912992753        2.7044950075        3.3234731096
  N        -1.5950130861        2.7788065902        5.2803268238
 Ga        -1.6254242520        4.6456700712        5.8268098714
  N        -1.6023296510        4.6390033557        7.8133104359
 Ga        -1.5869530937        2.7780396916        8.4558144723
  N        -1.5842560411        2.7794424654       10.4447498905
 Ga        -1.6114860650        4.6383060225       11.0785137366
  N        -1.6270578286        4.6473001592       13.0688296155
 Ga        -1.5847287141        2.7752772790       13.6188574732
  N        -1.6096697721        2.7583114486       15.5791502422
 Ga        -1.4447988921        4.5395589389       16.4702603294
  N         0.0146085587        3.7056483625       17.6002763069
  N        -3.1915170504        7.5202789343        2.5057759247
 Ga        -3.1964112153        5.5659016965        2.8887549524
  N        -3.1984678433        5.5553333169        5.0303248972
 Ga        -3.2090843401        7.3886034187        5.8004487520
  N        -3.2000248552        7.4037945816        7.7942918460
 Ga        -3.2049670791        5.5604929894        8.4542314961
  N        -3.2034861025        5.5574559365       10.4242238274
 Ga        -3.2038382708        7.3971223179       11.0757174964
  N        -3.2022716780        7.3762033737       13.0667402836
 Ga        -3.2062362289        5.5580500843       13.8744176711
  N        -3.1994282522        5.5537433730       16.0704602208
 Ga        -3.2001341425        7.6028721860       16.4931964802
 Ga        -3.2338845856        9.3197573046        1.2944950493
  N        -4.7110535011       10.1556337966        2.5230773431
 Ga        -4.8917773309        8.3105234078        3.2392912810
  N        -4.8088836356        8.3445552982        5.2280175346
 Ga        -4.8340411759       10.2157189417        5.8017705358
  N        -4.8169277114       10.2034995027        7.8020061875
 Ga        -4.8040254913        8.3471370622        8.4347479673
  N        -4.7993449408        8.3454498646       10.4284677526
 Ga        -4.8250509818       10.2030572868       11.0752690457
  N        -4.8416676200       10.2144163909       13.0675041188
 Ga        -4.7984613610        8.3469284530       13.6293180213
  N        -4.8240234266        8.3322830965       15.5902952758
 Ga        -4.6467940169       10.1053217000       16.4918850857
  N        -3.1987496294        9.2754261897       17.6272724274
  N         3.2209724321        1.8500599538        2.6249044804
 Ga         3.2261129954        0.0786528043        3.2659594907
  N         3.2333439869       -0.0124893045        5.2501753420
 Ga         3.2289026426        1.8328635610        5.8999512536
  N         3.2311241888        1.8415443109        7.8701424695
 Ga         3.2286774607       -0.0287859282        8.4545248407
  N         3.2312718283       -0.0288627354       10.4433965187
 Ga         3.2318366471        1.8406401728       11.0392246851
  N         3.2316446989        1.8403962787       13.0059355276
 Ga         3.2298003520       -0.0289531588       13.6311055520
  N         3.2300635287        0.0030285450       15.5917833100
 Ga         3.2323860741        1.8415633180       15.8690304126
  N         1.4980012379        4.5509805858        2.5593532757
 Ga         1.6998577138        2.6870500825        3.3333320326
  N         1.6229329261        2.7694986237        5.2898162222
 Ga         1.6359841712        4.6280339825        5.8554075650
  N         1.6266450899        4.6337048359        7.8290647998
 Ga         1.6126315212        2.7721152018        8.4622150820
  N         1.6122404937        2.7775645327       10.4486283755
 Ga         1.6391005050        4.6384811944       11.0773351929
  N         1.6564569234        4.6474416154       13.0683123148
 Ga         1.6125706161        2.7756364933       13.6193836133
  N         1.6387859294        2.7585752642       15.5792950739
 Ga         1.4746876368        4.5396798867       16.4713937218
  N         0.0108817357        7.4249870646        2.6710474339
 Ga         0.0191135956        5.5907583045        3.3495635824
  N         0.0164034393        5.5801818271        5.2724728570
 Ga         0.0239762295        7.4317284677        5.8988037001
  N         0.0178529907        7.4187569902        7.8589613289
 Ga         0.0113766195        5.5509199496        8.4590142570
  N         0.0134720638        5.5465793534       10.4439845454
 Ga         0.0147826336        7.4157840316       11.0378200022
  N         0.0153040450        7.4149486190       13.0048546506
 Ga         0.0148120133        5.5445172400       13.6210728546
  N         0.0148545490        5.5761510271       15.5829462153
 Ga         0.0149649729        7.4145151761       15.8697707982
  N        -1.6876252454       10.1541729054        2.5194074820
 Ga        -1.6021504286        8.3604745259        3.3009538931
  N        -1.5795290188        8.3395020770        5.2428685609
 Ga        -1.5701641784       10.2241551135        5.8164842862
  N        -1.5866305857       10.2016579342        7.8089071844
 Ga        -1.6057149214        8.3488354547        8.4503020668
  N        -1.6044219596        8.3465886316       10.4378630602
 Ga        -1.5779714379       10.2057630643       11.0824268570
  N        -1.5608688982       10.2155708587       13.0739169101
 Ga        -1.6059037803        8.3466490377       13.6308043616
  N        -1.5781055386        8.3309267157       15.5904064469
 Ga        -1.7507525619       10.1067910151       16.4947899210
  N         6.4506638704        1.9645244562        2.5495177265
 Ga         6.4549001592       -0.0239479913        2.8950370142
  N         6.4416230512       -0.0060698720        5.0573755509
 Ga         6.4480535084        1.8127813586        5.8281995070
  N         6.4464787761        1.8336038759        7.8186057396
 Ga         6.4470850846       -0.0167887087        8.4570958758
  N         6.4466052199       -0.0158635284       10.4290369958
 Ga         6.4468815780        1.8240579640       11.0833832509
  N         6.4469399241        1.8042096680       13.0735878175
 Ga         6.4474804290       -0.0138831309       13.8863377503
  N         6.4471271411       -0.0116169550       16.0802619368
 Ga         6.4468428615        2.0383732911       16.5046899560
 Ga         6.4460842464        3.6947964678        1.5717766608
  N         4.9453503357        4.5509678143        2.5673319076
 Ga         4.7417786405        2.6824322472        3.3223612844
  N         4.8364603005        2.7658981009        5.2762600858
 Ga         4.8328951840        4.6296959836        5.8388887790
  N         4.8324572851        4.6321034975        7.8190014427
 Ga         4.8487244877        2.7744550940        8.4601755670
  N         4.8495863301        2.7775328626       10.4462533578
 Ga         4.8261783513        4.6384240156       11.0766758639
  N         4.8076031756        4.6470344427       13.0677006311
 Ga         4.8503036648        2.7776991798       13.6318117972
  N         4.8219874715        2.7587618481       15.5884943633
 Ga         5.0069781097        4.5262188833       16.5028371425
  N         6.4472322521        3.7019399671       17.6409456786
  N         3.2160593836        7.3505615840        2.5911115459
  N         3.2279892866        5.5246452164        5.1013023776
 Ga         3.2376373522        7.3961322005        5.7967923688
  N         3.2277981712        7.4043679030        7.7894217274
 Ga         3.2328092530        5.5611736129        8.4537263170
  N         3.2315078506        5.5587316844       10.4235371698
 Ga         3.2333765339        7.3972447385       11.0781087137
  N         3.2320129384        7.3763821127       13.0686183271
 Ga         3.2355921240        5.5580920125       13.8749090803
  N         3.2285171849        5.5536079753       16.0727908107
 Ga         3.2293996181        7.6039991020       16.4961938357
 Ga         3.2176933770        9.6845074427        0.9328502682
  N         1.7082111733       10.1613262510        2.5187697746
 Ga         1.6271242449        8.3796583343        3.2432690423
  N         1.6173018410        8.3331155375        5.2021828827
 Ga         1.6000837835       10.2172360759        5.7996814451
  N         1.6111884198       10.1988583573        7.7984588031
 Ga         1.6364973409        8.3506826375        8.4528489386
  N         1.6349967396        8.3470519888       10.4392065966
 Ga         1.6084173478       10.2075462249       11.0809739651
  N         1.5909620197       10.2160539194       13.0731259228
 Ga         1.6359425472        8.3474980582       13.6316885007
  N         1.6077959057        8.3311292057       15.5915475712
 Ga         1.7816094698       10.1058775268       16.4971743629
  N         3.2280918820        9.2755793761       17.6298581081
  N         9.6658907544        1.8431722533        2.6321556085
 Ga         9.6700694991        0.0619143841        3.2656090627
  N         9.6562501140       -0.0020510338        5.2509734627
 Ga         9.6605766182        1.8413235127        5.8934228763
  N         9.6598061249        1.8459043744        7.8656328652
 Ga         9.6626824605       -0.0272986969        8.4410356382
  N         9.6613449746       -0.0280334522       10.4351131815
 Ga         9.6603493337        1.8411376366       11.0334427047
  N         9.6616235295        1.8398970220       13.0020654652
 Ga         9.6638221598       -0.0282907481       13.6312077372
  N         9.6637247900        0.0029153814       15.5922577699
 Ga         9.6613578925        1.8411607503       15.8699227595
  N         7.9454669824        4.5755092169        2.5439934152
 Ga         8.1653659902        2.7078558969        3.3163162528
  N         8.0518477567        2.7767554526        5.2710406065
 Ga         8.0746321047        4.6490986219        5.8086594730
  N         8.0630585749        4.6375397211        7.8025020664
 Ga         8.0433555853        2.7806942772        8.4536527867
  N         8.0417621661        2.7794068555       10.4424343291
 Ga         8.0668985265        4.6381162856       11.0782117011
  N         8.0858388637        4.6468142345       13.0686021761
 Ga         8.0441018163        2.7770047679       13.6311510367
  N         8.0718808635        2.7582793747       15.5879996175
 Ga         7.8862046607        4.5261305675       16.5015568255
  N         6.4412671536        7.4301842705        2.5892261323
 Ga         6.4371911220        5.7048131499        3.2972316834
  N         6.4411999214        5.5658985294        5.2533388851
 Ga         6.4341515432        7.4351424065        5.8492732799
  N         6.4430137626        7.4179684797        7.8317482656
 Ga         6.4488700669        5.5551912336        8.4412583196
  N         6.4472149953        5.5467468906       10.4320184537
 Ga         6.4464039640        7.4143042206       11.0313748298
  N         6.4465711942        7.4138484975       13.0019026525
 Ga         6.4465593917        5.5435770864       13.6319654257
  N         6.4463244874        5.5754579431       15.5919603947
 Ga         6.4467058672        7.4125796970       15.8697455565
  N         4.7302790839       10.1647477515        2.5036701139
 Ga         4.9154415641        8.3515738480        3.1797435303
  N         4.8254867112        8.3411658695        5.1878742579
 Ga         4.8556051312       10.2096822110        5.7840246289
  N         4.8462138901       10.2021409065        7.7909152721
 Ga         4.8300081059        8.3495392437        8.4348518270
  N         4.8271197292        8.3458976347       10.4280484116
 Ga         4.8511928648       10.2043009052       11.0731254722
  N         4.8697581539       10.2147107389       13.0662576779
 Ga         4.8277828582        8.3477396718       13.6302771783
  N         4.8531475376        8.3324315460       15.5913830305
 Ga         4.6745324487       10.1043240480       16.4945395253
  O         0.3524859121        3.8664546461       -0.4600725857
  H         0.0402613530        4.7964223580       -0.7184003109
  C         1.7789518481        3.7355093701       -0.8070514983
  H         2.4030073714        4.2492848227       -0.0644355857
  H         2.0133982721        2.6654604724       -0.7991248207
  H         1.9276390944        4.1516269430       -1.8085676671
 Ga         3.2163765837        5.4082906709        3.0710702853
  O        -0.4820673392        6.3103439990       -1.0358861377
  H        -0.0267303847        7.3961185447        1.6450715953
  C        -1.6668134975        6.6234255817       -0.8754844673
  H        -2.0076993309        7.6564870579       -1.0799867879
  H         3.2137255825        7.2839161868        1.5754544062
  H        -2.4282816107        5.8866693212       -0.5655021303
     212
 i =        3, E =     -8504.7374993599
  N         0.0056427356        1.9652466838        2.5421222511
 Ga        -0.0155403038       -0.0303102861        2.8679922458
  N         0.0157909068       -0.0065140551        5.0404552822
 Ga         0.0073741311        1.8052535555        5.8307346923
  N         0.0120712687        1.8333417878        7.8201382973
 Ga         0.0103408042       -0.0201339261        8.4490601808
  N         0.0133752447       -0.0175013739       10.4220963910
 Ga         0.0127833287        1.8223167569       11.0773067542
  N         0.0141017838        1.8046787158       13.0648723255
 Ga         0.0139842496       -0.0141288099       13.8745770468
  N         0.0145010682       -0.0084939003       16.0736420817
 Ga         0.0148538278        2.0362638690       16.4842833325
 Ga         0.0135820578        3.6415677288        1.5152927362
  N        -1.4693523936        4.5700933330        2.5010960271
 Ga        -1.6923687706        2.7043974387        3.3197413399
  N        -1.5958131400        2.7786132160        5.2767450017
 Ga        -1.6258394743        4.6430814814        5.8281349739
  N        -1.6029011164        4.6384140967        7.8125496752
 Ga        -1.5865185109        2.7766048210        8.4552103569
  N        -1.5842584189        2.7794846726       10.4417567428
 Ga        -1.6118143568        4.6380855906       11.0808464344
  N        -1.6260434549        4.6466889540       13.0672161074
 Ga        -1.5843719621        2.7753274259       13.6235920710
  N        -1.6120059950        2.7569785317       15.5781292080
 Ga        -1.4309596335        4.5327954085       16.4838854810
  N         0.0143100128        3.7063358636       17.6105683220
  N        -3.1911762799        7.5213574125        2.5010544126
 Ga        -3.1968677783        5.5611593783        2.8904957672
  N        -3.1986814049        5.5555397429        5.0272565920
 Ga        -3.2100643743        7.3896541072        5.8014857313
  N        -3.2005236318        7.4044581650        7.7933206756
 Ga        -3.2042507056        5.5610647891        8.4558138408
  N        -3.2034025980        5.5583742921       10.4237854016
 Ga        -3.2042901963        7.3968464646       11.0791869608
  N        -3.2022346444        7.3762078424       13.0695687067