 DBCSR| Multiplication driver                                               BLAS
 DBCSR| Multrec recursion limit                                              512
 DBCSR| Multiplication stack size                                           1000
 DBCSR| Maximum elements for images                                    UNLIMITED
 DBCSR| Multiplicative factor virtual images                                   1
 DBCSR| Multiplication size stacks                                             3
 DBCSR| Number of 3D layers                                               SINGLE
 DBCSR| Use MPI memory allocation                                              T
 DBCSR| Use RMA algorithm                                                      F
 DBCSR| Use Communication thread                                               T
 DBCSR| Communication thread load                                             87


  **** **** ******  **  PROGRAM STARTED AT               2019-05-23 13:49:37.428
 ***** ** ***  *** **   PROGRAM STARTED ON        blg8230.int.ets1.calculquebec.
 **    ****   ******    PROGRAM STARTED BY                                   rzk
 ***** **    ** ** **   PROGRAM PROCESS ID                                413138
  **** **  *******  **  PROGRAM STARTED IN /lustre03/project/6004141/rzk/GaN-car
                                           bene/01-Methanol/02-OH-ads

 CP2K| version string:                    CP2K version 7.0 (Development Version)
 CP2K| source code revision number:                                    svn:18619
 CP2K| cp2kflags: libint fftw3 libxc parallel mpi3 scalapack mkl                
 CP2K| is freely available from                            https://www.cp2k.org/
 CP2K| Program compiled at                          Sun Apr  7 00:48:11 EDT 2019
 CP2K| Program compiled on                      beluga2.int.ets1.calculquebec.ca
 CP2K| Program compiled for                    Beluga-Linux-x86-64-intel-openmpi
 CP2K| Data directory path    /home/rzk/projects/def-rzk/group/cp2k/cp2k-mcgill/
 CP2K| Input file name                                                 start.inp
 
 GLOBAL| Force Environment number                                              1
 GLOBAL| Basis set file name                                        BASIS_MOLOPT
 GLOBAL| Potential file name                                      GTH_POTENTIALS
 GLOBAL| MM Potential file name                                     MM_POTENTIAL
 GLOBAL| Coordinate file name                                      __STD_INPUT__
 GLOBAL| Method name                                                        CP2K
 GLOBAL| Project name                                                       TEST
 GLOBAL| Preferred FFT library                                             FFTW3
 GLOBAL| Preferred diagonalization lib.                                       SL
 GLOBAL| Run type                                                        GEO_OPT
 GLOBAL| All-to-all communication in single precision                          F
 GLOBAL| FFTs using library dependent lengths                                  F
 GLOBAL| Global print level                                               MEDIUM
 GLOBAL| MPI I/O enabled                                                       T
 GLOBAL| Total number of message passing processes                            80
 GLOBAL| Number of threads for this process                                    1
 GLOBAL| This output is from process                                           0
 GLOBAL| CPU model name :  Intel(R) Xeon(R) Gold 6148 CPU @ 2.40GHz

 MEMORY| system memory details [Kb]
 MEMORY|                        rank 0           min           max       average
 MEMORY| MemTotal            196614300     196614300     196614300     196614300
 MEMORY| MemFree             101947732     101941532     109027864     105454904
 MEMORY| Buffers                     0             0             8             4
 MEMORY| Cached               69135160      63517532      69135160      66326350
 MEMORY| Slab                  9736872       9318628       9736872       9527750
 MEMORY| SReclaimable           403424        403424        595480        499452
 MEMORY| MemLikelyFree       171486316     171480116     173140884     172280710


 *** Fundamental physical constants (SI units) ***

 *** Literature: B. J. Mohr and B. N. Taylor,
 ***             CODATA recommended values of the fundamental physical
 ***             constants: 2006, Web Version 5.1
 ***             http://physics.nist.gov/constants

 Speed of light in vacuum [m/s]                             2.99792458000000E+08
 Magnetic constant or permeability of vacuum [N/A**2]       1.25663706143592E-06
 Electric constant or permittivity of vacuum [F/m]          8.85418781762039E-12
 Planck constant (h) [J*s]                                  6.62606896000000E-34
 Planck constant (h-bar) [J*s]                              1.05457162825177E-34
 Elementary charge [C]                                      1.60217648700000E-19
 Electron mass [kg]                                         9.10938215000000E-31
 Electron g factor [ ]                                     -2.00231930436220E+00
 Proton mass [kg]                                           1.67262163700000E-27
 Fine-structure constant                                    7.29735253760000E-03
 Rydberg constant [1/m]                                     1.09737315685270E+07
 Avogadro constant [1/mol]                                  6.02214179000000E+23
 Boltzmann constant [J/K]                                   1.38065040000000E-23
 Atomic mass unit [kg]                                      1.66053878200000E-27
 Bohr radius [m]                                            5.29177208590000E-11

 *** Conversion factors ***

 [u] -> [a.u.]                                              1.82288848426455E+03
 [Angstrom] -> [Bohr] = [a.u.]                              1.88972613288564E+00
 [a.u.] = [Bohr] -> [Angstrom]                              5.29177208590000E-01
 [a.u.] -> [s]                                              2.41888432650478E-17
 [a.u.] -> [fs]                                             2.41888432650478E-02
 [a.u.] -> [J]                                              4.35974393937059E-18
 [a.u.] -> [N]                                              8.23872205491840E-08
 [a.u.] -> [K]                                              3.15774647902944E+05
 [a.u.] -> [kJ/mol]                                         2.62549961709828E+03
 [a.u.] -> [kcal/mol]                                       6.27509468713739E+02
 [a.u.] -> [Pa]                                             2.94210107994716E+13
 [a.u.] -> [bar]                                            2.94210107994716E+08
 [a.u.] -> [atm]                                            2.90362800883016E+08
 [a.u.] -> [eV]                                             2.72113838565563E+01
 [a.u.] -> [Hz]                                             6.57968392072181E+15
 [a.u.] -> [1/cm] (wave numbers)                            2.19474631370540E+05
 [a.u./Bohr**2] -> [1/cm]                                   5.14048714338585E+03
 

 CELL_TOP| Volume [angstrom^3]:                                         2519.385
 CELL_TOP| Vector a [angstrom     9.737     0.000     0.000    |a| =       9.737
 CELL_TOP| Vector b [angstrom    -4.859     8.416     0.000    |b| =       9.718
 CELL_TOP| Vector c [angstrom     0.000     0.000    30.744    |c| =      30.744
 CELL_TOP| Angle (b,c), alpha [degree]:                                   90.000
 CELL_TOP| Angle (a,c), beta  [degree]:                                   90.000
 CELL_TOP| Angle (a,b), gamma [degree]:                                  120.000
 CELL_TOP| Numerically orthorhombic:                                          NO
 
 GENERATE|  Preliminary Number of Bonds generated:                             0
 GENERATE|  Achieved consistency in connectivity generation.

 CELL| Volume [angstrom^3]:                                             2519.385
 CELL| Vector a [angstrom]:       9.737     0.000     0.000    |a| =       9.737
 CELL| Vector b [angstrom]:      -4.859     8.416     0.000    |b| =       9.718
 CELL| Vector c [angstrom]:       0.000     0.000    30.744    |c| =      30.744
 CELL| Angle (b,c), alpha [degree]:                                       90.000
 CELL| Angle (a,c), beta  [degree]:                                       90.000
 CELL| Angle (a,b), gamma [degree]:                                      120.000
 CELL| Numerically orthorhombic:                                              NO

 CELL_REF| Volume [angstrom^3]:                                         2432.344
 CELL_REF| Vector a [angstrom     9.558     0.000     0.000    |a| =       9.558
 CELL_REF| Vector b [angstrom    -4.779     8.277     0.000    |b| =       9.558
 CELL_REF| Vector c [angstrom     0.000     0.000    30.744    |c| =      30.744
 CELL_REF| Angle (b,c), alpha [degree]:                                   90.000
 CELL_REF| Angle (a,c), beta  [degree]:                                   90.000
 CELL_REF| Angle (a,b), gamma [degree]:                                  120.000
 CELL_REF| Numerically orthorhombic:                                          NO

 *******************************************************************************
 *******************************************************************************
 **                                                                           **
 **     #####                         ##              ##                      **
 **    ##   ##            ##          ##              ##                      **
 **   ##     ##                       ##            ######                    **
 **   ##     ##  ##   ##  ##   #####  ##  ##   ####   ##    #####    #####    **
 **   ##     ##  ##   ##  ##  ##      ## ##   ##      ##   ##   ##  ##   ##   **
 **   ##  ## ##  ##   ##  ##  ##      ####     ###    ##   ######   ######    **
 **    ##  ###   ##   ##  ##  ##      ## ##      ##   ##   ##       ##        **
 **     #######   #####   ##   #####  ##  ##  ####    ##    #####   ##        **
 **           ##                                                    ##        **
 **                                                                           **
 **                                                ... make the atoms dance   **
 **                                                                           **
 **            Copyright (C) by CP2K developers group (2000 - 2018)           **
 **                                                                           **
 *******************************************************************************

 DFT| Spin restricted Kohn-Sham (RKS) calculation                            RKS
 DFT| Multiplicity                                                             1
 DFT| Number of spin states                                                    1
 DFT| Charge                                                                   0
 DFT| Self-interaction correction (SIC)                                       NO
 DFT| Cutoffs: density                                              1.000000E-10
 DFT|          gradient                                             1.000000E-10
 DFT|          tau                                                  1.000000E-10
 DFT|          cutoff_smoothing_range                               0.000000E+00
 DFT| XC density smoothing                                                  NONE
 DFT| XC derivatives                                                          PW
 FUNCTIONAL| ROUTINE=NEW
 FUNCTIONAL| PBE:
 FUNCTIONAL| J.P.Perdew, K.Burke, M.Ernzerhof, Phys. Rev. Letter, vol. 77, n 18,
 FUNCTIONAL|  pp. 3865-3868, (1996){spin unpolarized}                           
 vdW POTENTIAL|                                                   Pair Potential
 vdW POTENTIAL|          DFT-D3 (Version 3.1)
 vdW POTENTIAL|          Potential Form: S. Grimme et al, JCP 132: 154104 (2010)
 vdW POTENTIAL|          Zero Damping
 vdW POTENTIAL|          Cutoff Radius [Bohr]:                             18.90
 vdW POTENTIAL|          s6 Scaling Factor:                               1.0000
 vdW POTENTIAL|          sr6 Scaling Factor:                              1.2170
 vdW POTENTIAL|          s8 Scaling Factor:                               0.7220
 vdW POTENTIAL|          Cutoff for CN calculation:                   0.1000E-05

 QS| Method:                                                                 GPW
 QS| Density plane wave grid type                        NON-SPHERICAL FULLSPACE
 QS| Number of grid levels:                                                    5
 QS| Density cutoff [a.u.]:                                                600.0
 QS| Multi grid cutoff [a.u.]: 1) grid level                               600.0
 QS|                           2) grid level                               200.0
 QS|                           3) grid level                                66.7
 QS|                           4) grid level                                22.2
 QS|                           5) grid level                                 7.4
 QS| Grid level progression factor:                                          3.0
 QS| Relative density cutoff [a.u.]:                                        20.0
 QS| Consistent realspace mapping and integration 
 QS| Interaction thresholds: eps_pgf_orb:                                1.0E-07
 QS|                         eps_filter_matrix:                          0.0E+00
 QS|                         eps_core_charge:                            1.0E-16
 QS|                         eps_rho_gspace:                             1.0E-14
 QS|                         eps_rho_rspace:                             1.0E-14
 QS|                         eps_gvg_rspace:                             1.0E-07
 QS|                         eps_ppl:                                    1.0E-02
 QS|                         eps_ppnl:                                   1.0E-09


 ATOMIC KIND INFORMATION

  1. Atomic kind: Ga                                    Number of atoms:      72

     Orbital Basis Set                                    DZVP-MOLOPT-SR-GTH-q13

       Number of orbital shell sets:                                           1
       Number of orbital shells:                                               7
       Number of primitive Cartesian functions:                                6
       Number of Cartesian basis functions:                                   30
       Number of spherical basis functions:                                   25
       Norm type:                                                              2

       Normalised Cartesian orbitals:

                        Set   Shell   Orbital            Exponent    Coefficient

                          1       1    2s                7.066654       0.013136
                                                         3.428369      -0.094392
                                                         1.430064       0.265435
                                                         0.571611       0.056465
                                                         0.232197      -0.192187
                                                         0.076562      -0.044987

                          1       2    3s                7.066654      -0.098564
                                                         3.428369       0.010390
                                                         1.430064       0.351249
                                                         0.571611       0.182615
                                                         0.232197      -0.425358
                                                         0.076562       0.190349

                          1       3    3px               7.066654       0.002364
                                                         3.428369       0.019222
                                                         1.430064       0.250132
                                                         0.571611      -0.058486
                                                         0.232197      -0.159451
                                                         0.076562      -0.020696
                          1       3    3py               7.066654       0.002364
                                                         3.428369       0.019222
                                                         1.430064       0.250132
                                                         0.571611      -0.058486
                                                         0.232197      -0.159451
                                                         0.076562      -0.020696
                          1       3    3pz               7.066654       0.002364
                                                         3.428369       0.019222
                                                         1.430064       0.250132
                                                         0.571611      -0.058486
                                                         0.232197      -0.159451
                                                         0.076562      -0.020696

                          1       4    4px               7.066654       0.492448
                                                         3.428369      -0.614736
                                                         1.430064      -0.191654
                                                         0.571611       0.037801
                                                         0.232197       0.302315
                                                         0.076562      -0.071336
                          1       4    4py               7.066654       0.492448
                                                         3.428369      -0.614736
                                                         1.430064      -0.191654
                                                         0.571611       0.037801
                                                         0.232197       0.302315
                                                         0.076562      -0.071336
                          1       4    4pz               7.066654       0.492448
                                                         3.428369      -0.614736
                                                         1.430064      -0.191654
                                                         0.571611       0.037801
                                                         0.232197       0.302315
                                                         0.076562      -0.071336

                          1       5    4dx2              7.066654     -15.264855
                                                         3.428369      -5.345726
                                                         1.430064      -1.022732
                                                         0.571611      -0.123148
                                                         0.232197      -0.006983
                                                         0.076562      -0.000022
                          1       5    4dxy              7.066654     -26.439504
                                                         3.428369      -9.259069
                                                         1.430064      -1.771423
                                                         0.571611      -0.213299
                                                         0.232197      -0.012094
                                                         0.076562      -0.000037
                          1       5    4dxz              7.066654     -26.439504
                                                         3.428369      -9.259069
                                                         1.430064      -1.771423
                                                         0.571611      -0.213299
                                                         0.232197      -0.012094
                                                         0.076562      -0.000037
                          1       5    4dy2              7.066654     -15.264855
                                                         3.428369      -5.345726
                                                         1.430064      -1.022732
                                                         0.571611      -0.123148
                                                         0.232197      -0.006983
                                                         0.076562      -0.000022
                          1       5    4dyz              7.066654     -26.439504
                                                         3.428369      -9.259069
                                                         1.430064      -1.771423
                                                         0.571611      -0.213299
                                                         0.232197      -0.012094
                                                         0.076562      -0.000037
                          1       5    4dz2              7.066654     -15.264855
                                                         3.428369      -5.345726
                                                         1.430064      -1.022732
                                                         0.571611      -0.123148
                                                         0.232197      -0.006983
                                                         0.076562      -0.000022

                          1       6    5dx2              7.066654      -5.739265
                                                         3.428369      -2.129289
                                                         1.430064      -0.700423
                                                         0.571611       0.161606
                                                         0.232197       0.043513
                                                         0.076562       0.011205
                          1       6    5dxy              7.066654      -9.940698
                                                         3.428369      -3.688037
                                                         1.430064      -1.213168
                                                         0.571611       0.279909
                                                         0.232197       0.075368
                                                         0.076562       0.019407
                          1       6    5dxz              7.066654      -9.940698
                                                         3.428369      -3.688037
                                                         1.430064      -1.213168
                                                         0.571611       0.279909
                                                         0.232197       0.075368
                                                         0.076562       0.019407
                          1       6    5dy2              7.066654      -5.739265
                                                         3.428369      -2.129289
                                                         1.430064      -0.700423
                                                         0.571611       0.161606
                                                         0.232197       0.043513
                                                         0.076562       0.011205
                          1       6    5dyz              7.066654      -9.940698
                                                         3.428369      -3.688037
                                                         1.430064      -1.213168
                                                         0.571611       0.279909
                                                         0.232197       0.075368
                                                         0.076562       0.019407
                          1       6    5dz2              7.066654      -5.739265
                                                         3.428369      -2.129289
                                                         1.430064      -0.700423
                                                         0.571611       0.161606
                                                         0.232197       0.043513
                                                         0.076562       0.011205

                          1       7    5fx3              7.066654       0.705879
                                                         3.428369      -0.273976
                                                         1.430064       0.113667
                                                         0.571611       0.132480
                                                         0.232197       0.012437
                                                         0.076562       0.003241
                          1       7    5fx2y             7.066654       1.578393
                                                         3.428369      -0.612629
                                                         1.430064       0.254167
                                                         0.571611       0.296234
                                                         0.232197       0.027811
                                                         0.076562       0.007246
                          1       7    5fx2z             7.066654       1.578393
                                                         3.428369      -0.612629
                                                         1.430064       0.254167
                                                         0.571611       0.296234
                                                         0.232197       0.027811
                                                         0.076562       0.007246
                          1       7    5fxy2             7.066654       1.578393
                                                         3.428369      -0.612629
                                                         1.430064       0.254167
                                                         0.571611       0.296234
                                                         0.232197       0.027811
                                                         0.076562       0.007246
                          1       7    5fxyz             7.066654       2.733856
                                                         3.428369      -1.061105
                                                         1.430064       0.440230
                                                         0.571611       0.513092
                                                         0.232197       0.048170
                                                         0.076562       0.012551
                          1       7    5fxz2             7.066654       1.578393
                                                         3.428369      -0.612629
                                                         1.430064       0.254167
                                                         0.571611       0.296234
                                                         0.232197       0.027811
                                                         0.076562       0.007246
                          1       7    5fy3              7.066654       0.705879
                                                         3.428369      -0.273976
                                                         1.430064       0.113667
                                                         0.571611       0.132480
                                                         0.232197       0.012437
                                                         0.076562       0.003241
                          1       7    5fy2z             7.066654       1.578393
                                                         3.428369      -0.612629
                                                         1.430064       0.254167
                                                         0.571611       0.296234
                                                         0.232197       0.027811
                                                         0.076562       0.007246
                          1       7    5fyz2             7.066654       1.578393
                                                         3.428369      -0.612629
                                                         1.430064       0.254167
                                                         0.571611       0.296234
                                                         0.232197       0.027811
                                                         0.076562       0.007246
                          1       7    5fz3              7.066654       0.705879
                                                         3.428369      -0.273976
                                                         1.430064       0.113667
                                                         0.571611       0.132480
                                                         0.232197       0.012437
                                                         0.076562       0.003241

     GTH Potential information for                                   GTH-PBE-q13

       Description:                       Goedecker-Teter-Hutter pseudopotential
                                           Goedecker et al., PRB 54, 1703 (1996)
                                          Hartwigsen et al., PRB 58, 3641 (1998)
                                                      Krack, TCA 114, 145 (2005)

       Gaussian exponent of the core charge distribution:               2.082466
       Electronic configuration (s p d ...):                           2   1  10

       Parameters of the local part of the GTH pseudopotential:

                          rloc        C1          C2          C3          C4
                        0.490000

       Parameters of the non-local part of the GTH pseudopotential:

                   l      r(l)      h(i,j,l)

                   0    0.416777   10.475690   -4.921768    0.870706
                                   -4.921768    7.770178   -2.248152
                                    0.870706   -2.248152    1.784415
                   1    0.569627    1.777985    0.195860
                                    0.195860   -0.231744
                   2    0.238126  -16.248680

  2. Atomic kind: N                                     Number of atoms:      72

     Orbital Basis Set                                     DZVP-MOLOPT-SR-GTH-q5

       Number of orbital shell sets:                                           1
       Number of orbital shells:                                               5
       Number of primitive Cartesian functions:                                5
       Number of Cartesian basis functions:                                   14
       Number of spherical basis functions:                                   13
       Norm type:                                                              2

       Normalised Cartesian orbitals:

                        Set   Shell   Orbital            Exponent    Coefficient

                          1       1    2s                7.341988       0.360561
                                                         2.542637       0.139177
                                                         0.888575      -0.289383
                                                         0.333802      -0.182244
                                                         0.112012      -0.019197

                          1       2    3s                7.341988       0.282000
                                                         2.542637       0.177875
                                                         0.888575      -0.278381
                                                         0.333802       0.008577
                                                         0.112012       0.154176

                          1       3    3px               7.341988      -1.188719
                                                         2.542637      -0.973969
                                                         0.888575      -0.501079
                                                         0.333802      -0.144894
                                                         0.112012      -0.013986
                          1       3    3py               7.341988      -1.188719
                                                         2.542637      -0.973969
                                                         0.888575      -0.501079
                                                         0.333802      -0.144894
                                                         0.112012      -0.013986
                          1       3    3pz               7.341988      -1.188719
                                                         2.542637      -0.973969
                                                         0.888575      -0.501079
                                                         0.333802      -0.144894
                                                         0.112012      -0.013986

                          1       4    4px               7.341988      -0.094798
                                                         2.542637       0.050069
                                                         0.888575      -0.114797
                                                         0.333802       0.144793
                                                         0.112012       0.066710
                          1       4    4py               7.341988      -0.094798
                                                         2.542637       0.050069
                                                         0.888575      -0.114797
                                                         0.333802       0.144793
                                                         0.112012       0.066710
                          1       4    4pz               7.341988      -0.094798
                                                         2.542637       0.050069
                                                         0.888575      -0.114797
                                                         0.333802       0.144793
                                                         0.112012       0.066710

                          1       5    4dx2              7.341988       1.354688
                                                         2.542637       0.690378
                                                         0.888575       0.855359
                                                         0.333802       0.091746
                                                         0.112012       0.001253
                          1       5    4dxy              7.341988       2.346389
                                                         2.542637       1.195770
                                                         0.888575       1.481524
                                                         0.333802       0.158910
                                                         0.112012       0.002169
                          1       5    4dxz              7.341988       2.346389
                                                         2.542637       1.195770
                                                         0.888575       1.481524
                                                         0.333802       0.158910
                                                         0.112012       0.002169
                          1       5    4dy2              7.341988       1.354688
                                                         2.542637       0.690378
                                                         0.888575       0.855359
                                                         0.333802       0.091746
                                                         0.112012       0.001253
                          1       5    4dyz              7.341988       2.346389
                                                         2.542637       1.195770
                                                         0.888575       1.481524
                                                         0.333802       0.158910
                                                         0.112012       0.002169
                          1       5    4dz2              7.341988       1.354688
                                                         2.542637       0.690378
                                                         0.888575       0.855359
                                                         0.333802       0.091746
                                                         0.112012       0.001253

     GTH Potential information for                                    GTH-PBE-q5

       Description:                       Goedecker-Teter-Hutter pseudopotential
                                           Goedecker et al., PRB 54, 1703 (1996)
                                          Hartwigsen et al., PRB 58, 3641 (1998)
                                                      Krack, TCA 114, 145 (2005)

       Gaussian exponent of the core charge distribution:               6.208322
       Electronic configuration (s p d ...):                               2   3

       Parameters of the local part of the GTH pseudopotential:

                          rloc        C1          C2          C3          C4
                        0.283791  -12.415226    1.868096

       Parameters of the non-local part of the GTH pseudopotential:

                   l      r(l)      h(i,j,l)

                   0    0.255405   13.630263
                   1    0.245495

  3. Atomic kind: O                                     Number of atoms:       1

     Orbital Basis Set                                     DZVP-MOLOPT-SR-GTH-q6

       Number of orbital shell sets:                                           1
       Number of orbital shells:                                               5
       Number of primitive Cartesian functions:                                5
       Number of Cartesian basis functions:                                   14
       Number of spherical basis functions:                                   13
       Norm type:                                                              2

       Normalised Cartesian orbitals:

                        Set   Shell   Orbital            Exponent    Coefficient

                          1       1    2s               10.389228       0.396646
                                                         3.849621       0.208811
                                                         1.388401      -0.301641
                                                         0.496955      -0.274061
                                                         0.162492      -0.033677

                          1       2    3s               10.389228       0.303673
                                                         3.849621       0.240943
                                                         1.388401      -0.313066
                                                         0.496955      -0.043055
                                                         0.162492       0.213991

                          1       3    3px              10.389228      -1.530415
                                                         3.849621      -1.371928
                                                         1.388401      -0.761951
                                                         0.496955      -0.253695
                                                         0.162492      -0.035541
                          1       3    3py              10.389228      -1.530415
                                                         3.849621      -1.371928
                                                         1.388401      -0.761951
                                                         0.496955      -0.253695
                                                         0.162492      -0.035541
                          1       3    3pz              10.389228      -1.530415
                                                         3.849621      -1.371928
                                                         1.388401      -0.761951
                                                         0.496955      -0.253695
                                                         0.162492      -0.035541

                          1       4    4px              10.389228      -0.565392
                                                         3.849621      -0.038231
                                                         1.388401      -0.382373
                                                         0.496955       0.179070
                                                         0.162492       0.122714
                          1       4    4py              10.389228      -0.565392
                                                         3.849621      -0.038231
                                                         1.388401      -0.382373
                                                         0.496955       0.179070
                                                         0.162492       0.122714
                          1       4    4pz              10.389228      -0.565392
                                                         3.849621      -0.038231
                                                         1.388401      -0.382373
                                                         0.496955       0.179070
                                                         0.162492       0.122714

                          1       5    4dx2             10.389228       1.867377
                                                         3.849621       0.670994
                                                         1.388401       1.353441
                                                         0.496955       0.273538
                                                         0.162492       0.006620
                          1       5    4dxy             10.389228       3.234392
                                                         3.849621       1.162195
                                                         1.388401       2.344229
                                                         0.496955       0.473781
                                                         0.162492       0.011466
                          1       5    4dxz             10.389228       3.234392
                                                         3.849621       1.162195
                                                         1.388401       2.344229
                                                         0.496955       0.473781
                                                         0.162492       0.011466
                          1       5    4dy2             10.389228       1.867377
                                                         3.849621       0.670994
                                                         1.388401       1.353441
                                                         0.496955       0.273538
                                                         0.162492       0.006620
                          1       5    4dyz             10.389228       3.234392
                                                         3.849621       1.162195
                                                         1.388401       2.344229
                                                         0.496955       0.473781
                                                         0.162492       0.011466
                          1       5    4dz2             10.389228       1.867377
                                                         3.849621       0.670994
                                                         1.388401       1.353441
                                                         0.496955       0.273538
                                                         0.162492       0.006620

     GTH Potential information for                                    GTH-PBE-q6

       Description:                       Goedecker-Teter-Hutter pseudopotential
                                           Goedecker et al., PRB 54, 1703 (1996)
                                          Hartwigsen et al., PRB 58, 3641 (1998)
                                                      Krack, TCA 114, 145 (2005)

       Gaussian exponent of the core charge distribution:               8.360253
       Electronic configuration (s p d ...):                               2   4

       Parameters of the local part of the GTH pseudopotential:

                          rloc        C1          C2          C3          C4
                        0.244554  -16.667215    2.487311

       Parameters of the non-local part of the GTH pseudopotential:

                   l      r(l)      h(i,j,l)

                   0    0.220956   18.337458
                   1    0.211332

  4. Atomic kind: H                                     Number of atoms:       4

     Orbital Basis Set                                     DZVP-MOLOPT-SR-GTH-q1

       Number of orbital shell sets:                                           1
       Number of orbital shells:                                               3
       Number of primitive Cartesian functions:                                5
       Number of Cartesian basis functions:                                    5
       Number of spherical basis functions:                                    5
       Norm type:                                                              2

       Normalised Cartesian orbitals:

                        Set   Shell   Orbital            Exponent    Coefficient

                          1       1    2s               10.068468      -0.133023
                                                         2.680223      -0.177618
                                                         0.791502      -0.258419
                                                         0.239116      -0.107525
                                                         0.082193      -0.014019

                          1       2    3s               10.068468       0.344673
                                                         2.680223       1.819821
                                                         0.791502      -0.999069
                                                         0.239116       0.017430
                                                         0.082193       0.082660

                          1       3    3px              10.068468       0.155326
                                                         2.680223       0.367157
                                                         0.791502       0.311480
                                                         0.239116       0.080105
                                                         0.082193       0.033440
                          1       3    3py              10.068468       0.155326
                                                         2.680223       0.367157
                                                         0.791502       0.311480
                                                         0.239116       0.080105
                                                         0.082193       0.033440
                          1       3    3pz              10.068468       0.155326
                                                         2.680223       0.367157
                                                         0.791502       0.311480
                                                         0.239116       0.080105
                                                         0.082193       0.033440

     GTH Potential information for                                    GTH-PBE-q1

       Description:                       Goedecker-Teter-Hutter pseudopotential
                                           Goedecker et al., PRB 54, 1703 (1996)
                                          Hartwigsen et al., PRB 58, 3641 (1998)
                                                      Krack, TCA 114, 145 (2005)

       Gaussian exponent of the core charge distribution:              12.500000
       Electronic configuration (s p d ...):                                   1

       Parameters of the local part of the GTH pseudopotential:

                          rloc        C1          C2          C3          C4
                        0.200000   -4.178900    0.724463

  5. Atomic kind: C                                     Number of atoms:       1

     Orbital Basis Set                                     DZVP-MOLOPT-SR-GTH-q4

       Number of orbital shell sets:                                           1
       Number of orbital shells:                                               5
       Number of primitive Cartesian functions:                                5
       Number of Cartesian basis functions:                                   14
       Number of spherical basis functions:                                   13
       Norm type:                                                              2

       Normalised Cartesian orbitals:

                        Set   Shell   Orbital            Exponent    Coefficient

                          1       1    2s                5.605331       0.322515
                                                         2.113016       0.213043
                                                         0.769911      -0.209686
                                                         0.348157      -0.219794
                                                         0.128212      -0.022789

                          1       2    3s                5.605331       0.552234
                                                         2.113016       0.082072
                                                         0.769911       0.007843
                                                         0.348157       0.136893
                                                         0.128212       0.074283

                          1       3    3px               5.605331      -0.703879
                                                         2.113016      -0.642521
                                                         0.769911      -0.374851
                                                         0.348157      -0.139743
                                                         0.128212      -0.027849
                          1       3    3py               5.605331      -0.703879
                                                         2.113016      -0.642521
                                                         0.769911      -0.374851
                                                         0.348157      -0.139743
                                                         0.128212      -0.027849
                          1       3    3pz               5.605331      -0.703879
                                                         2.113016      -0.642521
                                                         0.769911      -0.374851
                                                         0.348157      -0.139743
                                                         0.128212      -0.027849

                          1       4    4px               5.605331      -0.480376
                                                         2.113016      -0.552894
                                                         0.769911      -0.316145
                                                         0.348157       0.210505
                                                         0.128212       0.076095
                          1       4    4py               5.605331      -0.480376
                                                         2.113016      -0.552894
                                                         0.769911      -0.316145
                                                         0.348157       0.210505
                                                         0.128212       0.076095
                          1       4    4pz               5.605331      -0.480376
                                                         2.113016      -0.552894
                                                         0.769911      -0.316145
                                                         0.348157       0.210505
                                                         0.128212       0.076095

                          1       5    4dx2              5.605331       0.640026
                                                         2.113016       0.274300
                                                         0.769911       0.446711
                                                         0.348157       0.028674
                                                         0.128212       0.029790
                          1       5    4dxy              5.605331       1.108557
                                                         2.113016       0.475102
                                                         0.769911       0.773726
                                                         0.348157       0.049666
                                                         0.128212       0.051599
                          1       5    4dxz              5.605331       1.108557
                                                         2.113016       0.475102
                                                         0.769911       0.773726
                                                         0.348157       0.049666
                                                         0.128212       0.051599
                          1       5    4dy2              5.605331       0.640026
                                                         2.113016       0.274300
                                                         0.769911       0.446711
                                                         0.348157       0.028674
                                                         0.128212       0.029790
                          1       5    4dyz              5.605331       1.108557
                                                         2.113016       0.475102
                                                         0.769911       0.773726
                                                         0.348157       0.049666
                                                         0.128212       0.051599
                          1       5    4dz2              5.605331       0.640026
                                                         2.113016       0.274300
                                                         0.769911       0.446711
                                                         0.348157       0.028674
                                                         0.128212       0.029790

     GTH Potential information for                                    GTH-PBE-q4

       Description:                       Goedecker-Teter-Hutter pseudopotential
                                           Goedecker et al., PRB 54, 1703 (1996)
                                          Hartwigsen et al., PRB 58, 3641 (1998)
                                                      Krack, TCA 114, 145 (2005)

       Gaussian exponent of the core charge distribution:               4.364419
       Electronic configuration (s p d ...):                               2   2

       Parameters of the local part of the GTH pseudopotential:

                          rloc        C1          C2          C3          C4
                        0.338471   -8.803674    1.339211

       Parameters of the non-local part of the GTH pseudopotential:

                   l      r(l)      h(i,j,l)

                   0    0.302576    9.622487
                   1    0.291507


 MOLECULE KIND INFORMATION


 All atoms are their own molecule, skipping detailed information


 TOTAL NUMBERS AND MAXIMUM NUMBERS

  Total number of            - Atomic kinds:                                   5
                             - Atoms:                                        150
                             - Shell sets:                                   150
                             - Shells:                                       886
                             - Primitive Cartesian functions:                822
                             - Cartesian basis functions:                   3216
                             - Spherical basis functions:                   2782

  Maximum angular momentum of- Orbital basis functions:                        3
                             - Local part of the GTH pseudopotential:          2
                             - Non-local part of the GTH pseudopotential:      4


 MODULE QUICKSTEP:  ATOMIC COORDINATES IN angstrom

  Atom  Kind  Element       X           Y           Z          Z(eff)       Mass

       1     1 Ga  31    0.000360   -0.002487   -0.587894     13.00      69.7230
       2     2 N    7    0.003347    1.871515    0.566332      5.00      14.0067
       3     1 Ga  31    0.002818    1.839149    2.596260     13.00      69.7230
       4     2 N    7   -0.000026   -0.003698    3.229868      5.00      14.0067
       5     1 Ga  31    0.000554   -0.003207    5.220727     13.00      69.7230
       6     2 N    7    0.003200    1.871609    5.807480      5.00      14.0067
       7     1 Ga  31    0.002713    1.870134    7.805998     13.00      69.7230
       8     2 N    7   -0.000031   -0.003041    8.408967      5.00      14.0067
       9     1 Ga  31   -0.000186   -0.000964   10.406371     13.00      69.7230
      10     2 N    7    0.002660    1.871331   11.010597      5.00      14.0067
      11     1 Ga  31    0.002162    1.877771   13.003938     13.00      69.7230
      12     2 N    7   -0.001053    0.008021   13.608321      5.00      14.0067
      13     1 Ga  31   -0.003586    0.017478   15.611338     13.00      69.7230
      14     2 N    7    0.001984    1.883587   16.265172      5.00      14.0067
      15     1 Ga  31    0.007350    1.895829   18.386242     13.00      69.7230
      16     2 N    7    0.003201    0.000926   18.659710      5.00      14.0067
      17     1 Ga  31   -1.618091    2.802783    0.280660     13.00      69.7230
      18     2 N    7   -1.621656    4.671868    0.566100      5.00      14.0067
      19     1 Ga  31   -1.592904    4.687638    2.595742     13.00      69.7230
      20     2 N    7   -1.619448    2.802043    3.187948      5.00      14.0067
      21     1 Ga  31   -1.618937    2.802725    5.198711     13.00      69.7230
      22     2 N    7   -1.619258    4.672840    5.807515      5.00      14.0067
      23     1 Ga  31   -1.618485    4.673120    7.806158     13.00      69.7230
      24     2 N    7   -1.619979    2.802404    8.410675      5.00      14.0067
      25     1 Ga  31   -1.619583    2.803819   10.405985     13.00      69.7230
      26     2 N    7   -1.612939    4.674395   11.013700      5.00      14.0067
      27     1 Ga  31   -1.608417    4.673976   13.008992     13.00      69.7230
      28     2 N    7   -1.617628    2.805347   13.623149      5.00      14.0067
      29     1 Ga  31   -1.619239    2.804736   15.631565     13.00      69.7230
      30     2 N    7   -1.621860    4.682361   16.214071      5.00      14.0067
      31     1 Ga  31   -1.616308    4.670930   18.295916     13.00      69.7230
      32     2 N    7   -1.622959    2.811046   18.747260      5.00      14.0067
      33     1 Ga  31   -3.238991    5.609007    0.280185     13.00      69.7230
      34     2 N    7   -3.233108    7.478336    0.566128      5.00      14.0067
      35     1 Ga  31   -3.261648    7.493168    2.595995     13.00      69.7230
      36     2 N    7   -3.239588    5.607693    3.188508      5.00      14.0067
      37     1 Ga  31   -3.239269    5.608423    5.199334     13.00      69.7230
      38     2 N    7   -3.233490    7.477896    5.808811      5.00      14.0067
      39     1 Ga  31   -3.234753    7.477734    7.807924     13.00      69.7230
      40     2 N    7   -3.238893    5.607358    8.415191      5.00      14.0067
      41     1 Ga  31   -3.238436    5.608703   10.412584     13.00      69.7230
      42     2 N    7   -3.237007    7.482657   11.012975      5.00      14.0067
      43     1 Ga  31   -3.236686    7.486776   13.008515     13.00      69.7230
      44     2 N    7   -3.236174    5.607466   13.589808      5.00      14.0067
      45     1 Ga  31   -3.236242    5.609858   15.582405     13.00      69.7230
      46     2 N    7   -3.243494    7.481934   16.155652      5.00      14.0067
      47     1 Ga  31   -3.251582    7.489763   18.205733     13.00      69.7230
      48     2 N    7   -3.251198    5.612851   18.596616      5.00      14.0067
      49     1 Ga  31    3.246046   -0.003955    0.280782     13.00      69.7230
      50     2 N    7    3.245382    1.867233    0.565225      5.00      14.0067
      51     1 Ga  31    3.272073    1.881816    2.598031     13.00      69.7230
      52     2 N    7    3.245183   -0.003573    3.187981      5.00      14.0067
      53     1 Ga  31    3.245629   -0.003058    5.198664     13.00      69.7230
      54     2 N    7    3.246202    1.867022    5.807241      5.00      14.0067
      55     1 Ga  31    3.246955    1.866736    7.806095     13.00      69.7230
      56     2 N    7    3.246186   -0.003450    8.412543      5.00      14.0067
      57     1 Ga  31    3.246132   -0.001817   10.408957     13.00      69.7230
      58     2 N    7    3.246422    1.869779   11.014616      5.00      14.0067
      59     1 Ga  31    3.241602    1.869001   13.011485     13.00      69.7230
      60     2 N    7    3.246402   -0.001066   13.623593      5.00      14.0067
      61     1 Ga  31    3.254814    0.000043   15.627316     13.00      69.7230
      62     2 N    7    3.230138    1.881168   16.202750      5.00      14.0067
      63     1 Ga  31    3.233541    1.885488   18.270085     13.00      69.7230
      64     2 N    7    3.237905   -0.007852   18.575037      5.00      14.0067
      65     1 Ga  31    1.624786    2.803278    0.280888     13.00      69.7230
      66     2 N    7    1.633452    4.672437    0.566286      5.00      14.0067
      67     1 Ga  31    1.604475    4.687678    2.595848     13.00      69.7230
      68     2 N    7    1.625708    2.801979    3.188146      5.00      14.0067
      69     1 Ga  31    1.626189    2.802679    5.198983     13.00      69.7230
      70     2 N    7    1.631984    4.672886    5.807609      5.00      14.0067
      71     1 Ga  31    1.630445    4.673166    7.806376     13.00      69.7230
      72     2 N    7    1.626135    2.802315    8.410521      5.00      14.0067
      73     1 Ga  31    1.625762    2.803807   10.405879     13.00      69.7230
      74     2 N    7    1.624428    4.674608   11.012947      5.00      14.0067
      75     1 Ga  31    1.617732    4.674666   13.008104     13.00      69.7230
      76     2 N    7    1.621543    2.806078   13.620734      5.00      14.0067
      77     1 Ga  31    1.620550    2.805986   15.628301     13.00      69.7230
      78     2 N    7    1.632548    4.682252   16.214539      5.00      14.0067
      79     1 Ga  31    1.642439    4.669710   18.296372     13.00      69.7230
      80     2 N    7    1.634737    2.808994   18.747091      5.00      14.0067
      81     1 Ga  31    0.006664    5.608915   -0.585853     13.00      69.7230
      82     2 N    7    0.009483    7.483863    0.566574      5.00      14.0067
      83     1 Ga  31    0.008963    7.450743    2.596037     13.00      69.7230
      84     2 N    7    0.006095    5.607184    3.228726      5.00      14.0067
      85     1 Ga  31    0.006675    5.608134    5.219347     13.00      69.7230
      86     2 N    7    0.009418    7.482791    5.806759      5.00      14.0067
      87     1 Ga  31    0.009027    7.481022    7.805241     13.00      69.7230
      88     2 N    7    0.006193    5.608293    8.407349      5.00      14.0067
      89     1 Ga  31    0.006041    5.610831   10.403930     13.00      69.7230
      90     2 N    7    0.008999    7.480181   11.016630      5.00      14.0067
      91     1 Ga  31    0.008089    7.481358   13.014892     13.00      69.7230
      92     2 N    7    0.004661    5.615077   13.636789      5.00      14.0067
      93     1 Ga  31    0.004787    5.625443   15.648097     13.00      69.7230
      94     2 N    7    0.007134    7.494603   16.229312      5.00      14.0067
      95     1 Ga  31    0.015810    7.470789   18.297690     13.00      69.7230
      96     2 N    7    0.011365    5.587628   18.657261      5.00      14.0067
      97     1 Ga  31    6.491258   -0.003519    0.280651     13.00      69.7230
      98     2 N    7    6.497149    1.867735    0.565198      5.00      14.0067
      99     1 Ga  31    6.470102    1.881958    2.598062     13.00      69.7230
     100     2 N    7    6.491516   -0.003527    3.188074      5.00      14.0067
     101     1 Ga  31    6.492164   -0.003065    5.198712     13.00      69.7230
     102     2 N    7    6.497163    1.867113    5.807093      5.00      14.0067
     103     1 Ga  31    6.495596    1.866802    7.805806     13.00      69.7230
     104     2 N    7    6.490764   -0.003381    8.412331      5.00      14.0067
     105     1 Ga  31    6.490866   -0.001840   10.408800     13.00      69.7230
     106     2 N    7    6.496320    1.869433   11.015090      5.00      14.0067
     107     1 Ga  31    6.499458    1.868210   13.011833     13.00      69.7230
     108     2 N    7    6.488080   -0.001295   13.625235      5.00      14.0067
     109     1 Ga  31    6.479218   -0.001296   15.629768     13.00      69.7230
     110     2 N    7    6.509976    1.877688   16.208351      5.00      14.0067
     111     1 Ga  31    6.519534    1.884775   18.278542     13.00      69.7230
     112     2 N    7    6.505787   -0.007525   18.584359      5.00      14.0067
     113     1 Ga  31    4.871889    2.803069   -0.559252     13.00      69.7230
     114     2 N    7    4.874805    4.676590    0.565258      5.00      14.0067
     115     1 Ga  31    4.874313    4.645974    2.597941     13.00      69.7230
     116     2 N    7    4.871395    2.802090    3.229176      5.00      14.0067
     117     1 Ga  31    4.871933    2.802946    5.220696     13.00      69.7230
     118     2 N    7    4.874741    4.677229    5.809600      5.00      14.0067
     119     1 Ga  31    4.874309    4.675048    7.809448     13.00      69.7230
     120     2 N    7    4.871667    2.800688    8.409624      5.00      14.0067
     121     1 Ga  31    4.871882    2.800447   10.407653     13.00      69.7230
     122     2 N    7    4.874386    4.671207   11.011614      5.00      14.0067
     123     1 Ga  31    4.873623    4.666926   13.006634     13.00      69.7230
     124     2 N    7    4.871198    2.789711   13.614257      5.00      14.0067
     125     1 Ga  31    4.869308    2.783661   15.615531     13.00      69.7230
     126     2 N    7    4.872039    4.674823   16.115264      5.00      14.0067
     127     1 Ga  31    4.880031    4.684568   18.151247     13.00      69.7230
     128     2 N    7    4.874364    2.810854   18.564256      5.00      14.0067
     129     1 Ga  31    3.251808    5.608458    0.280250     13.00      69.7230
     130     2 N    7    3.251160    7.477717    0.566051      5.00      14.0067
     131     1 Ga  31    3.279297    7.492985    2.595984     13.00      69.7230
     132     2 N    7    3.251986    5.607511    3.188427      5.00      14.0067
     133     1 Ga  31    3.252659    5.608277    5.199230     13.00      69.7230
     134     2 N    7    3.252407    7.477780    5.808697      5.00      14.0067
     135     1 Ga  31    3.252750    7.477639    7.807730     13.00      69.7230
     136     2 N    7    3.251445    5.607395    8.415312      5.00      14.0067
     137     1 Ga  31    3.251044    5.608891   10.412750     13.00      69.7230
     138     2 N    7    3.254657    7.482714   11.013486      5.00      14.0067
     139     1 Ga  31    3.252803    7.486261   13.009443     13.00      69.7230
     140     2 N    7    3.246472    5.606835   13.588854      5.00      14.0067
     141     1 Ga  31    3.243271    5.610640   15.581266     13.00      69.7230
     142     2 N    7    3.259363    7.481180   16.158075      5.00      14.0067
     143     1 Ga  31    3.278537    7.489335   18.208218     13.00      69.7230
     144     2 N    7    3.272135    5.613377   18.601627      5.00      14.0067
     145     3 O    8    1.658770    4.679267   20.304183      6.00      15.9994
     146     4 H    1    1.373578    5.538911   20.622425      1.00       1.0079
     147     5 C    6    0.770043    3.671189   20.792898      4.00      12.0107
     148     4 H    1   -0.124381    3.669058   20.205615      1.00       1.0079
     149     4 H    1    1.243929    2.714293   20.724479      1.00       1.0079
     150     4 H    1    0.525588    3.875921   21.814283      1.00       1.0079




 SCF PARAMETERS         Density guess:                                    ATOMIC
                        --------------------------------------------------------
                        max_scf:                                             100
                        max_scf_history:                                       0
                        max_diis:                                              4
                        --------------------------------------------------------
                        eps_scf:                                        5.00E-06
                        eps_scf_history:                                0.00E+00
                        eps_diis:                                       1.00E-01
                        eps_eigval:                                     1.00E-05
                        --------------------------------------------------------
                        level_shift [a.u.]:                                 0.00
                        --------------------------------------------------------
                        Outer loop SCF in use 
                        No variables optimised in outer loop
                        eps_scf                                         5.00E-06
                        max_scf                                                4
                        No outer loop optimization
                        step_size                                       5.00E-01

 PW_GRID| Information for grid number                                          1
 PW_GRID| Grid distributed over                                    80 processors
 PW_GRID| Real space group dimensions                                    80    1
 PW_GRID| the grid is blocked:                                                NO
 PW_GRID| Cutoff [a.u.]                                                    600.0
 PW_GRID| spherical cutoff:                                                   NO
 PW_GRID|   Bounds   1           -100      99                Points:         200
 PW_GRID|   Bounds   2           -100      99                Points:         200
 PW_GRID|   Bounds   3           -324     323                Points:         648
 PW_GRID| Volume element (a.u.^3)  0.6333E-03     Volume (a.u.^3)     16414.2734
 PW_GRID| Grid span                                                    FULLSPACE
 PW_GRID|   Distribution                         Average         Max         Min
 PW_GRID|   G-Vectors                           324000.0      324000      324000
 PW_GRID|   G-Rays                                1620.0        1620        1620
 PW_GRID|   Real Space Points                   324000.0      388800      259200

 PW_GRID| Information for grid number                                          2
 PW_GRID| Grid distributed over                                    80 processors
 PW_GRID| Real space group dimensions                                    80    1
 PW_GRID| the grid is blocked:                                                NO
 PW_GRID| Cutoff [a.u.]                                                    200.0
 PW_GRID| spherical cutoff:                                                   NO
 PW_GRID|   Bounds   1            -60      59                Points:         120
 PW_GRID|   Bounds   2            -60      59                Points:         120
 PW_GRID|   Bounds   3           -187     187                Points:         375
 PW_GRID| Volume element (a.u.^3)  0.3040E-02     Volume (a.u.^3)     16414.2734
 PW_GRID| Grid span                                                    FULLSPACE
 PW_GRID|   Distribution                         Average         Max         Min
 PW_GRID|   G-Vectors                            67500.0       68520       66240
 PW_GRID|   G-Rays                                 562.5         571         552
 PW_GRID|   Real Space Points                    67500.0       90000       45000

 PW_GRID| Information for grid number                                          3
 PW_GRID| Grid distributed over                                    80 processors
 PW_GRID| Real space group dimensions                                     8   10
 PW_GRID| the grid is blocked:                                                NO
 PW_GRID| Cutoff [a.u.]                                                     66.7
 PW_GRID| spherical cutoff:                                                   NO
 PW_GRID|   Bounds   1            -36      35                Points:          72
 PW_GRID|   Bounds   2            -36      35                Points:          72
 PW_GRID|   Bounds   3           -108     107                Points:         216
 PW_GRID| Volume element (a.u.^3)  0.1466E-01     Volume (a.u.^3)     16414.2734
 PW_GRID| Grid span                                                    FULLSPACE
 PW_GRID|   Distribution                         Average         Max         Min
 PW_GRID|   G-Vectors                            13996.8       14976       12816
 PW_GRID|   G-Rays                                 194.4         208         178
 PW_GRID|   Real Space Points                    13996.8       15552       13608

 PW_GRID| Information for grid number                                          4
 PW_GRID| Grid distributed over                                    80 processors
 PW_GRID| Real space group dimensions                                     8   10
 PW_GRID| the grid is blocked:                                                NO
 PW_GRID| Cutoff [a.u.]                                                     22.2
 PW_GRID| spherical cutoff:                                                   NO
 PW_GRID|   Bounds   1            -20      19                Points:          40
 PW_GRID|   Bounds   2            -20      19                Points:          40
 PW_GRID|   Bounds   3            -62      62                Points:         125
 PW_GRID| Volume element (a.u.^3)  0.8207E-01     Volume (a.u.^3)     16414.2734
 PW_GRID| Grid span                                                    FULLSPACE
 PW_GRID|   Distribution                         Average         Max         Min
 PW_GRID|   G-Vectors                             2500.0        2960        2040
 PW_GRID|   G-Rays                                  62.5          74          51
 PW_GRID|   Real Space Points                     2500.0        2500        2500

 PW_GRID| Information for grid number                                          5
 PW_GRID| Grid distributed over                                    80 processors
 PW_GRID| Real space group dimensions                                     8   10
 PW_GRID| the grid is blocked:                                                NO
 PW_GRID| Cutoff [a.u.]                                                      7.4
 PW_GRID| spherical cutoff:                                                   NO
 PW_GRID|   Bounds   1            -12      11                Points:          24
 PW_GRID|   Bounds   2            -12      11                Points:          24
 PW_GRID|   Bounds   3            -36      35                Points:          72
 PW_GRID| Volume element (a.u.^3)  0.3958         Volume (a.u.^3)     16414.2734
 PW_GRID| Grid span                                                    FULLSPACE
 PW_GRID|   Distribution                         Average         Max         Min
 PW_GRID|   G-Vectors                              518.4         648         240
 PW_GRID|   G-Rays                                  21.6          27          10
 PW_GRID|   Real Space Points                      518.4         648         432

 POISSON| Solver                                                        PERIODIC
 POISSON| Periodicity                                                        XYZ

 RS_GRID| Information for grid number                                          1
 RS_GRID|   Bounds   1           -100      99                Points:         200
 RS_GRID|   Bounds   2           -100      99                Points:         200
 RS_GRID|   Bounds   3           -324     323                Points:         648
 RS_GRID| Real space distribution over                                 80 groups
 RS_GRID| Real space distribution along direction                              3
 RS_GRID| Border size                                                         73
 RS_GRID|   Distribution                         Average         Max         Min
 RS_GRID|   Planes                                 154.1         155         154

 RS_GRID| Information for grid number                                          2
 RS_GRID|   Bounds   1            -60      59                Points:         120
 RS_GRID|   Bounds   2            -60      59                Points:         120
 RS_GRID|   Bounds   3           -187     187                Points:         375
 RS_GRID| Real space distribution over                                 80 groups
 RS_GRID| Real space distribution along direction                              3
 RS_GRID| Border size                                                         45
 RS_GRID|   Distribution                         Average         Max         Min
 RS_GRID|   Planes                                  94.7          95          94

 RS_GRID| Information for grid number                                          3
 RS_GRID|   Bounds   1            -36      35                Points:          72
 RS_GRID|   Bounds   2            -36      35                Points:          72
 RS_GRID|   Bounds   3           -108     107                Points:         216
 RS_GRID| Real space fully replicated
 RS_GRID| Group size                                                           1

 RS_GRID| Information for grid number                                          4
 RS_GRID|   Bounds   1            -20      19                Points:          40
 RS_GRID|   Bounds   2            -20      19                Points:          40
 RS_GRID|   Bounds   3            -62      62                Points:         125
 RS_GRID| Real space fully replicated
 RS_GRID| Group size                                                           1

 RS_GRID| Information for grid number                                          5
 RS_GRID|   Bounds   1            -12      11                Points:          24
 RS_GRID|   Bounds   2            -12      11                Points:          24
[...]
 flops     5 x    13 x    47            710458580     100.0%      0.0%      0.0%
 flops    13 x    15 x     5           1395901650     100.0%      0.0%      0.0%
 flops     5 x    15 x    13           1395901650     100.0%      0.0%      0.0%
 flops    25 x     5 x    47           1483649000     100.0%      0.0%      0.0%
 flops     5 x    32 x     5           1524224000     100.0%      0.0%      0.0%
 flops    13 x    32 x    32           1576140800     100.0%      0.0%      0.0%
 flops    13 x     5 x    47           1896727300     100.0%      0.0%      0.0%
 flops    25 x    32 x    32           2949120000     100.0%      0.0%      0.0%
 flops    25 x    15 x     5           3203797500     100.0%      0.0%      0.0%
 flops     5 x    15 x    25           3203797500     100.0%      0.0%      0.0%
 flops     5 x    25 x    47           4504186250     100.0%      0.0%      0.0%
 flops   175 x    47 x    47           5657911700     100.0%      0.0%      0.0%
 flops     5 x    13 x    32           9190613120     100.0%      0.0%      0.0%
 flops   160 x    47 x    47          15518843520     100.0%      0.0%      0.0%
 flops    25 x     5 x    32          19192736000     100.0%      0.0%      0.0%
 flops   175 x    47 x   139          19947862200     100.0%      0.0%      0.0%
 flops    13 x     5 x    32          24536387200     100.0%      0.0%      0.0%
 flops   175 x    47 x   128          27553881600     100.0%      0.0%      0.0%
 flops   695 x    47 x    47          37036491620     100.0%      0.0%      0.0%
 flops   696 x    47 x    47          37089781536     100.0%      0.0%      0.0%
 flops   175 x    47 x   127          45564361500     100.0%      0.0%      0.0%
 flops   160 x    47 x   139          54714136320     100.0%      0.0%      0.0%
 flops     5 x    25 x    32          58266920000     100.0%      0.0%      0.0%
 flops    13 x    32 x     5          59558470400     100.0%      0.0%      0.0%
 flops     5 x    32 x    13          59558470400     100.0%      0.0%      0.0%
 flops    13 x    13 x    47          63170583684     100.0%      0.0%      0.0%
 flops   695 x    47 x   139          66181380560     100.0%      0.0%      0.0%
 flops   696 x    47 x   139          66276605568     100.0%      0.0%      0.0%
 flops    13 x    15 x    13          66468815400     100.0%      0.0%      0.0%
 flops   175 x    47 x    32          73191708800     100.0%      0.0%      0.0%
 flops   175 x    32 x    47          73191708800     100.0%      0.0%      0.0%
 flops   160 x    47 x   128          75576360960     100.0%      0.0%      0.0%
 flops   695 x    47 x   128          91416007680     100.0%      0.0%      0.0%
 flops   696 x    47 x   128          91547541504     100.0%      0.0%      0.0%
 flops   160 x    47 x   127         124976534400     100.0%      0.0%      0.0%
 flops    13 x    25 x    47         136088182750     100.0%      0.0%      0.0%
 flops    25 x    32 x     5         136695360000     100.0%      0.0%      0.0%
 flops     5 x    32 x    25         136695360000     100.0%      0.0%      0.0%
 flops    25 x    13 x    47         138001345950     100.0%      0.0%      0.0%
 flops    13 x    15 x    25         146634793500     100.0%      0.0%      0.0%
 flops    25 x    15 x    13         146634793500     100.0%      0.0%      0.0%
 flops   695 x    47 x   127         151169700200     100.0%      0.0%      0.0%
 flops   696 x    47 x   127         151387210560     100.0%      0.0%      0.0%
 flops   160 x    32 x    47         200754401280     100.0%      0.0%      0.0%
 flops   160 x    47 x    32         200754401280     100.0%      0.0%      0.0%
 flops   175 x    32 x   139         258048940800     100.0%      0.0%      0.0%
 flops    25 x    25 x    47         274205520000     100.0%      0.0%      0.0%
 flops    25 x    15 x    25         289364400000     100.0%      0.0%      0.0%
 flops   175 x    32 x   128         356441702400     100.0%      0.0%      0.0%
 flops   695 x    32 x    47         479110359680     100.0%      0.0%      0.0%
 flops   695 x    47 x    32         479110359680     100.0%      0.0%      0.0%
 flops   696 x    47 x    32         479799727104     100.0%      0.0%      0.0%
 flops   696 x    32 x    47         479799727104     100.0%      0.0%      0.0%
 flops   175 x    32 x   127         589428336000     100.0%      0.0%      0.0%
 flops   160 x    32 x   139         707791380480     100.0%      0.0%      0.0%
 flops    13 x    13 x    32         817185422976     100.0%      0.0%      0.0%
 flops   695 x    32 x   139         856133603840     100.0%      0.0%      0.0%
 flops   696 x    32 x   139         857365450752     100.0%      0.0%      0.0%
 flops   175 x    32 x    32         946820403200     100.0%      0.0%      0.0%
 flops   160 x    32 x   128         977668669440     100.0%      0.0%      0.0%
 flops   695 x    32 x   128        1182573035520     100.0%      0.0%      0.0%
 flops   696 x    32 x   128        1184274579456     100.0%      0.0%      0.0%
 flops   160 x    32 x   127        1616717721600     100.0%      0.0%      0.0%
 flops    13 x    25 x    32        1760459896000     100.0%      0.0%      0.0%
 flops    25 x    13 x    32        1785208900800     100.0%      0.0%      0.0%
 flops   695 x    32 x   127        1955556972800     100.0%      0.0%      0.0%
 flops   696 x    32 x   127        1958370723840     100.0%      0.0%      0.0%
 flops   160 x    32 x    32        2596993105920     100.0%      0.0%      0.0%
 flops    13 x    32 x    13        2836002790400     100.0%      0.0%      0.0%
 flops    25 x    25 x    32        3547169280000     100.0%      0.0%      0.0%
 flops   695 x    32 x    32        6197853163520     100.0%      0.0%      0.0%
 flops   696 x    32 x    32        6206770937856     100.0%      0.0%      0.0%
 flops    13 x    32 x    25        6256417856000     100.0%      0.0%      0.0%
 flops    25 x    32 x    13        6256417856000     100.0%      0.0%      0.0%
 flops    25 x    32 x    25       12346214400000     100.0%      0.0%      0.0%
 flops inhomo. stacks              17028033637600     100.0%      0.0%      0.0%
 flops total                        86.398053E+12     100.0%      0.0%      0.0%
 flops max/rank                      1.511915E+12     100.0%      0.0%      0.0%
 matmuls inhomo. stacks                   4947200     100.0%      0.0%      0.0%
 matmuls total                         1700782038     100.0%      0.0%      0.0%
 number of processed stacks              72849274     100.0%      0.0%      0.0%
 average stack size                                    23.3       0.0       0.0
 marketing flops                    95.774885E+12
 -------------------------------------------------------------------------------
 # multiplications                          24366
 max memory usage/rank             876.838912E+06
 # max total images/rank                        5
 # max 3D layers                                1
 # MPI messages exchanged               222217920
 MPI messages size (bytes):
  total size                        13.253511E+12
  min size                           0.000000E+00
  max size                         913.152000E+03
  average size                      59.641953E+03
 MPI breakdown and total messages size (bytes):
             size <=      128              653600                        0
       128 < size <=     8192            91575231             750184292352
      8192 < size <=    32768            39656458            1080524367032
     32768 < size <=   131072            64480471            2546435134656
    131072 < size <=  4194304            25852160            8860592560416
   4194304 < size <= 16777216                   0                        0
  16777216 < size                               0                        0
 -------------------------------------------------------------------------------

 *** WARNING in dbcsr/mm/dbcsr_mm.F:268 :: Using a non-square number of ***
 *** MPI ranks might lead to poor performance.                          ***
 *** Used ranks: 80                                                     ***
 *** Suggested: 81 169                                                  ***

 -------------------------------------------------------------------------------
 
 MEMORY| Estimated peak process memory [MiB]                                 842

 -------------------------------------------------------------------------------
 ----                             MULTIGRID INFO                            ----
 -------------------------------------------------------------------------------
 count for grid        1:        1104917          cutoff [a.u.]          600.00
 count for grid        2:        4717424          cutoff [a.u.]          200.00
 count for grid        3:        3891147          cutoff [a.u.]           66.67
 count for grid        4:        4978736          cutoff [a.u.]           22.22
 count for grid        5:        4224812          cutoff [a.u.]            7.41
 total gridlevel count  :       18917036

 -------------------------------------------------------------------------------
 -                                                                             -
 -                         MESSAGE PASSING PERFORMANCE                         -
 -                                                                             -
 -------------------------------------------------------------------------------

 ROUTINE             CALLS      AVE VOLUME [Bytes]
 MP_Group             1306
 MP_Bcast            31161                  30796.
 MP_Allreduce       207517                    169.
 MP_Sync               827
 MP_Alltoall        118660                2944486.
 MP_SendRecv         10428                   5261.
 MP_ISendRecv       627339                  49867.
 MP_Wait           5534256
 MP_comm_split         822
 MP_ISend          6310442                  56157.
 MP_IRecv          6310442                  55998.
 MP_Recv               608                  82800.
 MP_Memory         2736584
 -------------------------------------------------------------------------------


 -------------------------------------------------------------------------------
 -                                                                             -
 -                           R E F E R E N C E S                               -
 -                                                                             -
 -------------------------------------------------------------------------------
 
 CP2K version 7.0 (Development Version), the CP2K developers group (2018).
 CP2K is freely available from https://www.cp2k.org/ .

 Schuett, Ole; Messmer, Peter; Hutter, Juerg; VandeVondele, Joost. 
 Electronic Structure Calculations on Graphics Processing Units, John Wiley & Sons, Ltd, 173-190 (2016). 
 GPU-Accelerated Sparse Matrix-Matrix Multiplication for Linear Scaling Density Functional Theory.
 http://dx.doi.org/10.1002/9781118670712.ch8


 Borstnik, U; VandeVondele, J; Weber, V; Hutter, J. 
 PARALLEL COMPUTING, 40 (5-6), 47-58 (2014). 
 Sparse matrix multiplication: The distributed block-compressed sparse
 row library.
 http://dx.doi.org/10.1016/j.parco.2014.03.012


 Hutter, J; Iannuzzi, M; Schiffmann, F; VandeVondele, J. 
 WILEY INTERDISCIPLINARY REVIEWS-COMPUTATIONAL MOLECULAR SCIENCE, 4 (1), 15-25 (2014). 
 CP2K: atomistic simulations of condensed matter systems.
 http://dx.doi.org/10.1002/wcms.1159


 Grimme, S; Ehrlich, S; Goerigk, L. 
 JOURNAL OF COMPUTATIONAL CHEMISTRY, 32, 1456 (2011). 
 Effect of the damping function in dispersion corrected density functional theory.
 http://dx.doi.org/10.1002/jcc.21759


 Grimme, S; Antony, J; Ehrlich, S; Krieg, H. 
 JOURNAL OF CHEMICAL PHYSICS, 132 (15), 154104 (2010). 
 A consistent and accurate ab initio parametrization of density
 functional dispersion correction (DFT-D) for the 94 elements H-Pu.
 http://dx.doi.org/10.1063/1.3382344


 VandeVondele, J; Hutter, J. 
 JOURNAL OF CHEMICAL PHYSICS, 127 (11), 114105 (2007). 
 Gaussian basis sets for accurate calculations on molecular systems in
 gas and condensed phases.
 http://dx.doi.org/10.1063/1.2770708


 Krack, M. 
 THEORETICAL CHEMISTRY ACCOUNTS, 114 (1-3), 145-152 (2005). 
 Pseudopotentials for H to Kr optimized for gradient-corrected
 exchange-correlation functionals.
 http://dx.doi.org/10.1007/s00214-005-0655-y


 VandeVondele, J; Krack, M; Mohamed, F; Parrinello, M; Chassaing, T;
 Hutter, J. COMPUTER PHYSICS COMMUNICATIONS, 167 (2), 103-128 (2005). 
 QUICKSTEP: Fast and accurate density functional calculations using a
 mixed Gaussian and plane waves approach.
 http://dx.doi.org/10.1016/j.cpc.2004.12.014


 Frigo, M; Johnson, SG. 
 PROCEEDINGS OF THE IEEE, 93 (2), 216-231 (2005). 
 The design and implementation of FFTW3.
 http://dx.doi.org/10.1109/JPROC.2004.840301


 Kolafa, J. 
 JOURNAL OF COMPUTATIONAL CHEMISTRY, 25 (3), 335-342 (2004). 
 Time-reversible always stable predictor-corrector method for molecular dynamics of polarizable molecules.
 http://dx.doi.org/10.1002/jcc.10385


 VandeVondele, J; Hutter, J. 
 JOURNAL OF CHEMICAL PHYSICS, 118 (10), 4365-4369 (2003). 
 An efficient orbital transformation method for electronic structure
 calculations.
 http://dx.doi.org/10.1063/1.1543154


 Hartwigsen, C; Goedecker, S; Hutter, J. 
 PHYSICAL REVIEW B, 58 (7), 3641-3662 (1998). 
 Relativistic separable dual-space Gaussian pseudopotentials from H to Rn.
 http://dx.doi.org/10.1103/PhysRevB.58.3641


 Lippert, G; Hutter, J; Parrinello, M. 
 MOLECULAR PHYSICS, 92 (3), 477-487 (1997). 
 A hybrid Gaussian and plane wave density functional scheme.
 http://dx.doi.org/10.1080/002689797170220


 Perdew, JP; Burke, K; Ernzerhof, M. 
 PHYSICAL REVIEW LETTERS, 77 (18), 3865-3868 (1996). 
 Generalized gradient approximation made simple.
 http://dx.doi.org/10.1103/PhysRevLett.77.3865


 Goedecker, S; Teter, M; Hutter, J. 
 PHYSICAL REVIEW B, 54 (3), 1703-1710 (1996). 
 Separable dual-space Gaussian pseudopotentials.
 http://dx.doi.org/10.1103/PhysRevB.54.1703


 -------------------------------------------------------------------------------
 -                                                                             -
 -                                T I M I N G                                  -
 -                                                                             -
 -------------------------------------------------------------------------------
 SUBROUTINE                       CALLS  ASD         SELF TIME        TOTAL TIME
                                MAXIMUM       AVERAGE  MAXIMUM  AVERAGE  MAXIMUM
 CP2K                                 1  1.0    0.206    0.232 7164.310 7164.356
 cp_geo_opt                           1  2.0    0.032    0.060 7162.427 7162.457
 geoopt_bfgs                          1  3.0    0.087    0.148 7162.395 7162.407
 cp_eval_at                          34  4.0    0.022    0.045 7144.671 7144.734
 qs_forces                           33  5.0    0.024    0.058 7074.750 7074.789
 qs_energies                         34  6.0    0.096    0.129 6871.635 6871.753
 scf_env_do_scf                      34  7.0    0.009    0.083 6685.822 6685.868
 scf_env_do_scf_inner_loop         1709  8.0    0.105    0.210 6366.071 6366.099
 qs_rho_update_rho                 1743  9.0    0.010    0.023 2936.051 2939.034
 calculate_rho_elec                1743 10.0 1649.902 1916.095 2936.041 2939.023
 rebuild_ks_matrix                 1742  9.9    0.006    0.007 2881.910 2882.806
 qs_ks_build_kohn_sham_matrix      1742 10.9    0.311    1.095 2881.904 2882.800
 qs_ks_update_qs_env               1749  9.0    0.016    0.029 2676.854 2677.930
 sum_up_and_integrate               904 11.9    3.090    3.827 1725.340 1725.657
 integrate_v_rspace                 904 12.9 1014.955 1188.479 1722.248 1723.007
 pw_transfer                      28242 13.4    2.968    3.434 1269.004 1273.562
 fft_wrap_pw1pw2                  24758 14.4    0.298    0.348 1256.856 1261.502
 rs_pw_transfer                   13370 13.0    0.156    0.181 1199.659 1260.689
 density_rs2pw                     1743 11.0    0.122    0.157 1171.672 1234.027
 fft_wrap_pw1pw2_600              14170 15.7   76.972   90.180 1138.007 1142.893
 fft3d_ps                         24758 16.4  266.610  307.222 1076.898 1094.120
 dbcsr_multiply_generic           24366 13.8    1.454    2.005  943.854  947.527
 qs_vxc_create                     1742 11.9    0.031    0.063  925.124  929.028
 qs_scf_new_mos                    1709  9.0    0.012    0.018  923.763  924.730
 qs_scf_loop_do_ot                 1709 10.0    0.053    0.161  923.751  924.720
 ot_scf_mini                       1709 11.0    0.101    0.150  845.443  846.845
 mp_waitany                      553488 14.9  764.512  846.751  764.512  846.751
 mp_waitall_1                   4980768 16.7  776.292  827.156  776.292  827.156
 mp_alltoall_z22v                 24758 18.4  700.561  768.409  700.561  768.409
 multiply_cannon                  24366 14.8    7.385    7.763  690.226  708.146
 rs_pw_transfer_RS2PW_600          1811 13.0   99.469  115.966  595.781  656.184
 xc_vxc_pw_create                   904 12.9   24.637   30.277  651.123  654.993
 xc_rho_set_and_dset_create        1742 13.9    5.199    5.947  512.072  526.290
 potential_pw2rs                    904 13.9    0.398    0.596  465.808  466.584
 multiply_cannon_metrocomm3      487320 15.8    1.279    1.366  408.426  462.102
 x_to_yz                           9681 18.0   40.683   51.072  430.862  446.817
 ot_mini                           1709 12.0    0.009    0.010  432.116  433.071
 yz_to_x                           7136 17.1   27.771   34.751  334.838  372.082
 mp_alltoall_d11v                 18386 15.6  287.003  325.064  287.003  325.064
 init_scf_loop                       40  8.0    0.005    0.027  319.139  319.150
 rs_distribute_matrix              2680 12.0    1.530    3.896  277.333  314.334
 xc_exc_calc                        838 13.0    1.926    2.335  273.969  274.109
 qs_ot_get_derivative               871 13.0    0.009    0.011  271.826  272.813
 multiply_cannon_metrocomm1      487320 15.8    1.418    1.499  160.633  249.701
 rs_pw_transfer_PW2RS_600           971 15.6   82.836   93.234  230.530  232.080
 qs_ks_update_qs_env_forces          33  6.0    0.000    0.000  214.457  214.523
 prepare_preconditioner              40  9.0    0.000    0.001  199.758  199.825
 make_preconditioner                 40 10.0    0.004    0.017  186.568  186.640
 cp_fm_syevd                        822 14.2    0.005    0.008  173.612  185.654
 qs_ot_get_p                       1749 11.9    0.018    0.045  183.859  185.654
 mp_sum_d                         33124 14.5  146.490  179.172  146.490  179.172
 cp_fm_redistribute_end             822 15.2   95.352  174.717   97.201  178.589
 make_full_all                       40 11.0    0.013    0.035  176.254  176.347
 cp_fm_syevd_base                   822 15.0   69.753  157.165   69.753  157.165
 ot_new_cg_direction                871 13.0    0.011    0.033  156.331  156.472
 apply_preconditioner_dbcsr         911 14.0    0.002    0.003  153.177  154.434
 apply_all                          911 15.0    0.063    0.097  153.174  154.432
 -------------------------------------------------------------------------------

 The number of warnings for this run is : 2
 
 -------------------------------------------------------------------------------
  **** **** ******  **  PROGRAM ENDED AT                 2019-05-23 15:49:34.990
 ***** ** ***  *** **   PROGRAM RAN ON            blg8230.int.ets1.calculquebec.
 **    ****   ******    PROGRAM RAN BY                                       rzk
 ***** **    ** ** **   PROGRAM PROCESS ID                                413138
  **** **  *******  **  PROGRAM STOPPED IN /lustre03/project/6004141/rzk/GaN-car
                                           bene/01-Methanol/02-OH-ads
