     150
 i =        1, E =     -6112.5130145069
 Ga        -0.0021025696       -0.0077962475       -0.5817275273
  N         0.0009317535        1.8711164582        0.5655582614
 Ga         0.0014690921        1.8354104898        2.5987860748
  N        -0.0005220943       -0.0063883658        3.2312443716
 Ga         0.0009550390       -0.0056066827        5.2233088905
  N         0.0061946308        1.8737241899        5.8014812340
 Ga         0.0043677979        1.8717642843        7.8040752516
  N        -0.0003077002       -0.0040833951        8.4072625940
 Ga         0.0007858085        0.0007472674       10.4071020146
  N         0.0022382835        1.8714972836       11.0153125430
 Ga        -0.0016494935        1.8731562705       13.0146370256
  N        -0.0000723754        0.0026702165       13.6122977239
 Ga         0.0006305254        0.0208206854       15.6206240392
  N        -0.0134232524        1.8750726629       16.2243869154
 Ga        -0.0206636876        1.8601875309       18.3121136850
  N         0.0116218378       -0.0022111288       18.6781272324
 Ga        -1.6158941033        2.8089627072        0.2589176509
  N        -1.6200830589        4.6753158884        0.5697724766
 Ga        -1.5920949308        4.6886721911        2.5988994886
  N        -1.6230304638        2.8005494464        3.1810123446
 Ga        -1.6212671249        2.8020151448        5.1985247316
  N        -1.6152669070        4.6747233408        5.8007275756
 Ga        -1.6169810277        4.6752715877        7.8034904657
  N        -1.6219656761        2.8023334386        8.4098337277
 Ga        -1.6202896445        2.8021148797       10.4082906481
  N        -1.6128075330        4.6740284335       11.0187221595
 Ga        -1.6124011653        4.6705450246       13.0189096508
  N        -1.6201463089        2.8033704269       13.6222491765
 Ga        -1.6140326861        2.8052895382       15.6342814953
  N        -1.6333479727        4.6733757495       16.2198508388
 Ga        -1.6204389770        4.6551788072       18.2969800537
  N        -1.6232603081        2.7999017883       18.7347396117
 Ga        -3.2359963731        5.6090155775        0.2694259500
  N        -3.2360316310        7.4774446537        0.5661204047
 Ga        -3.2629262597        7.4930408111        2.5993600518
  N        -3.2427541076        5.6060910161        3.1838387752
 Ga        -3.2404123773        5.6093453655        5.2008064707
  N        -3.2307698010        7.4782314616        5.8039767321
 Ga        -3.2303438639        7.4795850197        7.8047427811
  N        -3.2405025636        5.6075193930        8.4130281677
 Ga        -3.2379159665        5.6105715197       10.4121483605
  N        -3.2371728275        7.4827404017       11.0157741260
 Ga        -3.2378962788        7.4862201391       13.0140610222
  N        -3.2375618697        5.6110275688       13.5920295415
 Ga        -3.2305603066        5.6161314294       15.5908069268
  N        -3.2511993383        7.4827134809       16.1606081513
 Ga        -3.2597994986        7.4857831356       18.2060330103
  N        -3.2453645373        5.6157355632       18.5812862666
 Ga         3.2427099784       -0.0056777754        0.2864752609
  N         3.2441230367        1.8689436569        0.5615774183
 Ga         3.2777463303        1.8820800786        2.6046077443
  N         3.2448346999       -0.0042728013        3.1861057642
 Ga         3.2508081286        0.0063556025        5.2102529153
  N         3.2449614352        1.8686814913        5.8035684305
 Ga         3.2484784472        1.8651775209        7.7961984106
  N         3.2468976831       -0.0017888073        8.4141684146
 Ga         3.2450137105       -0.0007221120       10.4076199359
  N         3.2472301715        1.8695920340       11.0170186776
 Ga         3.2451104318        1.8694850506       13.0164962041
  N         3.2466459741       -0.0030337834       13.6156908310
 Ga         3.2354207378       -0.0034101516       15.6187274745
  N         3.2435926316        1.8699021380       16.1784247972
 Ga         3.2784264053        1.8730866783       18.2396632587
  N         3.2341834458       -0.0136238653       18.6012732706
 Ga         1.6195181103        2.8055348944        0.2659598434
  N         1.6355966630        4.6734252319        0.5657163404
 Ga         1.6042933907        4.6899215209        2.5988160912
  N         1.6270388132        2.8007829970        3.1830930532
 Ga         1.6410550879        2.7972940630        5.2040204369
  N         1.6299829541        4.6685218629        5.8020497572
 Ga         1.6295817064        4.6725834765        7.8029624732
  N         1.6291677212        2.8016669224        8.4111846706
 Ga         1.6255224235        2.8015006420       10.4061042315
  N         1.6249765833        4.6743885864       11.0131310341
 Ga         1.6206781891        4.6717434567       13.0146894462
  N         1.6210381575        2.8006948469       13.6193742691
 Ga         1.6089215662        2.7868417750       15.6344498141
  N         1.6271599369        4.6673098750       16.1890469609
 Ga         1.6548522442        4.6806278157       18.3107820388
  N         1.6351437774        2.7625328775       18.5765485797
 Ga         0.0064554589        5.5999042773       -0.5685542696
  N         0.0089394824        7.4854255509        0.5643642835
 Ga         0.0137733809        7.4497990301        2.6048762434
  N         0.0061984154        5.6056360402        3.2279375286
 Ga         0.0130776934        5.6184224766        5.2207801824
  N         0.0048395950        7.4820518053        5.8016588058
 Ga         0.0072209133        7.4839315347        7.7932588710
  N         0.0073302062        5.6123376495        8.4058289898
 Ga         0.0051648878        5.6117310062       10.4015346192
  N         0.0091461720        7.4811033106       11.0166930076
 Ga         0.0085294915        7.4847220640       13.0145714677
  N         0.0029865584        5.6176319312       13.6287594676
 Ga        -0.0063361604        5.6127852635       15.6494282470
  N         0.0101581844        7.5021256968       16.1765159775
 Ga         0.0210926731        7.4943520623       18.2459295989
  N        -0.0093192955        5.6278614152       18.6052013787
 Ga         6.4950702720       -0.0061356311        0.2793978707
  N         6.4997081416        1.8681786191        0.5587362316
 Ga         6.4672043641        1.8772996038        2.5996817994
  N         6.4923108874        0.0011444604        3.1813245691
 Ga         6.4819448101       -0.0089462059        5.1978254857
  N         6.4964732423        1.8649999516        5.8011650094
 Ga         6.4919390522        1.8649400065        7.8019780202
  N         6.4881680253       -0.0042509360        8.4124267012
 Ga         6.4912906348       -0.0008229794       10.4074599024
  N         6.4950004436        1.8679488687       11.0174200282
 Ga         6.4965094485        1.8687774976       13.0182772359
  N         6.4866192798       -0.0029103008       13.6142264626
 Ga         6.4994181008        0.0043143810       15.6197068301
  N         6.5087615281        1.8669616082       16.1962234433
 Ga         6.5054220278        1.8921251554       18.2627652964
  N         6.5105205800        0.0042531431       18.6226366692
 Ga         4.8753460936        2.8065399214       -0.4958838971
  N         4.8743366269        4.6777916339        0.5587266412
 Ga         4.8737300483        4.6419175104        2.5993703112
  N         4.8752831814        2.8026568228        3.2289431606
 Ga         4.8628867022        2.7980942345        5.2269912868
  N         4.8743087111        4.6767065518        5.8044475426
 Ga         4.8731773424        4.6723397014        7.8048924269
  N         4.8690015516        2.7989117289        8.4096985075
 Ga         4.8721335018        2.7993926157       10.4081977432
  N         4.8750597541        4.6707457712       11.0126268713
 Ga         4.8740326020        4.6640552743       13.0129077721
  N         4.8713422715        2.7905492809       13.6146709745
 Ga         4.8801616574        2.7943695414       15.6262137974
  N         4.8787969907        4.6816591523       16.1249410687
 Ga         4.8839674789        4.6679392597       18.1692364858
  N         4.8829638948        2.8150427684       18.5992308602
 Ga         3.2506437572        5.6131486038        0.2835830594
  N         3.2559286060        7.4801473751        0.5730081093
 Ga         3.2746473501        7.4958044470        2.6031332488
  N         3.2547773082        5.6072473391        3.1844085053
 Ga         3.2498993104        5.6079506198        5.2000529066
  N         3.2502970759        7.4790465361        5.8046884954
 Ga         3.2498481073        7.4780681255        7.8054452269
  N         3.2514896928        5.6069602005        8.4140552605
 Ga         3.2522479699        5.6106324536       10.4129919616
  N         3.2544606666        7.4839694605       11.0143828320
 Ga         3.2528715617        7.4884932425       13.0139582263
  N         3.2481155640        5.6100327353       13.5866261207
 Ga         3.2452725083        5.6112692088       15.5927010720
  N         3.2635107357        7.4833985259       16.1643870549
 Ga         3.2844728682        7.5080172929       18.2102698754
  N         3.3005836202        5.6445486784       18.5698741572
  O         1.6953541612        4.6676920576       20.4154147798
  H         1.3586489548        5.5591409098       20.6381880202
  C         0.7440984404        3.6866449767       20.8795002283
  H        -0.1389938482        3.6584566912       20.2393418816
  H         1.2539199291        2.7312287891       20.7444143435
  H         0.5024935395        3.8992780003       21.9129577693
     150
 i =        2, E =     -6112.5253608543
 Ga        -0.0019237952       -0.0072654039       -0.5848536847
  N         0.0029597910        1.8701938603        0.5624184849
 Ga         0.0024026824        1.8384608351        2.5962899975
  N         0.0009424729       -0.0023828390        3.2306017371
 Ga        -0.0007173220       -0.0039467061        5.2225011695
  N         0.0037722121        1.8709883375        5.8054660696
 Ga         0.0012348674        1.8708847112        7.8062619211
  N        -0.0009577307       -0.0012648553        8.4067426165
 Ga         0.0004122369        0.0008403016       10.4072044578
  N         0.0024785159        1.8714092957       11.0082458256
 Ga        -0.0004342642        1.8729019991       13.0073062947
  N        -0.0025536668        0.0042779808       13.6032583362
 Ga        -0.0013412725        0.0063771874       15.6104538409
  N        -0.0114043200        1.8754180433       16.1879502037
 Ga        -0.0282972740        1.8403422498       18.2527738577
  N         0.0164459057       -0.0055429403       18.6853597663
 Ga        -1.6152682972        2.8069737971        0.2666459265
  N        -1.6194483617        4.6750699771        0.5686226173
 Ga        -1.5924936653        4.6864146981        2.5998898678
  N        -1.6187738969        2.8006460948        3.1835812221
 Ga        -1.6183323321        2.8024644785        5.1983607724
  N        -1.6203462571        4.6721570234        5.8045712391
 Ga        -1.6188814235        4.6728870662        7.8060740842
  N        -1.6193332062        2.8035458384        8.4102084740
 Ga        -1.6193044449        2.8036399008       10.4088003764
  N        -1.6137963862        4.6744848427       11.0104055652
 Ga        -1.6113404449        4.6751528355       13.0090990437
  N        -1.6174010956        2.8086384019       13.6202345566
 Ga        -1.6286198388        2.8070389517       15.6318966742
  N        -1.6251805048        4.6791681715       16.2076297126
 Ga        -1.6197749447        4.6569037371       18.2773328457
  N        -1.6157577030        2.8004269976       18.7301787181
 Ga        -3.2357808497        5.6112304430        0.2728292530
  N        -3.2352916308        7.4802976115        0.5667602863
 Ga        -3.2636684669        7.4923175825        2.6003808817
  N        -3.2396257340        5.6072479928        3.1844682671
 Ga        -3.2393746866        5.6086111137        5.1997052354
  N        -3.2354828158        7.4768141517        5.8083438323
 Ga        -3.2368419794        7.4765952341        7.8103695387
  N        -3.2379152990        5.6064262354        8.4130497858
 Ga        -3.2386829145        5.6093874783       10.4132194602
  N        -3.2382706828        7.4819994416       11.0080723361
 Ga        -3.2399051856        7.4833219475       13.0081468286
  N        -3.2345669173        5.6097617903       13.5972705394
 Ga        -3.2393017658        5.6150625209       15.5974529517
  N        -3.2486216046        7.4857748129       16.1691868403
 Ga        -3.2460439618        7.4851468528       18.2179150627
  N        -3.2415449394        5.6130854742       18.5774143399
 Ga         3.2453754854       -0.0058335862        0.2866362387
  N         3.2486194539        1.8698636519        0.5598728666
 Ga         3.2708617297        1.8815402025        2.6014072742
  N         3.2451382783       -0.0027926073        3.1816697230
 Ga         3.2445438577       -0.0003384136        5.2038694769
  N         3.2459356240        1.8695660276        5.8051544746
 Ga         3.2462967129        1.8690615977        7.8093748513
  N         3.2438829708       -0.0037312847        8.4097243783
 Ga         3.2455953119       -0.0005472688       10.4102713409
  N         3.2469878008        1.8711273208       11.0135498444
 Ga         3.2453659204        1.8681901644       13.0138144020
  N         3.2427631002       -0.0040595515       13.6079182246
 Ga         3.2404467064       -0.0140164284       15.6088789153
  N         3.2507965273        1.8590629181       16.1578487209
 Ga         3.2962788278        1.8526291744       18.2108224734
  N         3.2409938376       -0.0123611602       18.6213155772
 Ga         1.6215819930        2.8054062932        0.2719009640
  N         1.6332337967        4.6745276429        0.5659128049
 Ga         1.6037485145        4.6847728567        2.5988083962
  N         1.6267351058        2.7993444408        3.1832668050
 Ga         1.6299940345        2.8009605380        5.2012889576
  N         1.6339023866        4.6725062242        5.8057118566
 Ga         1.6306113059        4.6733872177        7.8091391710
  N         1.6228695627        2.8023551471        8.4100338368
 Ga         1.6254313888        2.8036930901       10.4077911079
  N         1.6259104109        4.6741485669       11.0116980589
 Ga         1.6236643291        4.6737367395       13.0132225583
  N         1.6212089726        2.8009169363       13.6131568284
 Ga         1.6166165695        2.7966105056       15.6269366079
  N         1.6218259561        4.6640443133       16.1960900055
 Ga         1.6653630274        4.6975105188       18.3301084413
  N         1.6340151635        2.7497859427       18.4501012674
 Ga         0.0070501354        5.6023811134       -0.5718926640
  N         0.0097577283        7.4822369842        0.5625919958
 Ga         0.0094639240        7.4495324081        2.5994771075
  N         0.0078060543        5.6071572857        3.2256902886
 Ga         0.0080220422        5.6086389978        5.2199191729
  N         0.0088226900        7.4821118931        5.8033090301
 Ga         0.0097632834        7.4806243392        7.8053166613
  N         0.0049063742        5.6071718293        8.4057601793
 Ga         0.0064561029        5.6103226614       10.4054141980
  N         0.0091611181        7.4800695564       11.0162426428
 Ga         0.0096089150        7.4796193615       13.0187703318
  N         0.0036218448        5.6087736208       13.6243269654
 Ga        -0.0023346985        5.6156208145       15.6400788724
  N         0.0091231963        7.4919442306       16.1839271324
 Ga         0.0247165227        7.5080629488       18.2341593640
  N        -0.0183556718        5.6429849400       18.5473312334
 Ga         6.4924289624       -0.0058568719        0.2770006703
  N         6.4953600255        1.8696270403        0.5589824626
 Ga         6.4728959777        1.8798987980        2.6027450028
  N         6.4898500378       -0.0025821944        3.1806929196
 Ga         6.4904538298       -0.0037208425        5.1988416990
  N         6.4977521255        1.8674351885        5.8053705179
 Ga         6.4971604467        1.8673129433        7.8072050954
  N         6.4914719040       -0.0024656345        8.4100271451
 Ga         6.4908910022       -0.0015389201       10.4094572930
  N         6.4952937343        1.8699395867       11.0114043719
 Ga         6.4983163965        1.8707190461       13.0136039659
  N         6.4928436116       -0.0009765493       13.6066716106
 Ga         6.4803949207        0.0031144606       15.6110639090
  N         6.4974078607        1.8637964738       16.2094694124
 Ga         6.5052977524        1.8911009958       18.2818511541
  N         6.5063462186        0.0061579462       18.6369902636
 Ga         4.8731274128        2.8047242266       -0.4975125478
  N         4.8751727608        4.6739781638        0.5612165471
 Ga         4.8752732646        4.6463751213        2.6046701570
  N         4.8710711152        2.8000916697        3.2226013556
 Ga         4.8704241375        2.8037572508        5.2227214677
  N         4.8751049596        4.6787165190        5.8089726242
 Ga         4.8742066838        4.6765625160        7.8109156831
  N         4.8725952170        2.8009731360        8.4058372719
 Ga         4.8711966124        2.8014752660       10.4081056250
  N         4.8753313604        4.6716205546       11.0096908435
 Ga         4.8742346071        4.6717848226       13.0106786456
  N         4.8715618060        2.7965832539       13.6062365161
 Ga         4.8773926264        2.7941029112       15.6135189982
  N         4.8765190632        4.6695540628       16.1319557557
 Ga         4.8965916074        4.6636745994       18.1737960089
  N         4.8766015857        2.8160564800       18.6145800080
 Ga         3.2503836870        5.6121440005        0.2841079204
  N         3.2532769488        7.4802494745        0.5734681921
 Ga         3.2790136577        7.4953917982        2.6039730530
  N         3.2505356602        5.6067118319        3.1839959446
 Ga         3.2534226158        5.6082127103        5.1991842458
  N         3.2516023463        7.4766098761        5.8073147013
 Ga         3.2531715482        7.4777205683        7.8096557187
  N         3.2514410775        5.6077937894        8.4136207054
 Ga         3.2516793885        5.6087761580       10.4147605602
  N         3.2557434732        7.4830398677       11.0064694017
 Ga         3.2549878783        7.4835907122       13.0057859274
  N         3.2484170974        5.6102474307       13.5922591595
 Ga         3.2439343078        5.6054988265       15.5985006406
  N         3.2473726861        7.4852336556       16.1652595211
 Ga         3.2841351872        7.5279483392       18.2134131374
  N         3.3152275752        5.6605988016       18.5191052075
  O         1.7228716704        4.6703867844       20.5126194486
  H         1.3420587750        5.5786033384       20.6515188255
  C         0.7462705156        3.6840121742       20.9427496652
  H        -0.1558323909        3.6768954732       20.3030140216
  H         1.2612333842        2.7227954243       20.8118174039
  H         0.4652843418        3.8837671568       21.9789296954
     150
 i =        3, E =     -6112.5316743008
 Ga        -0.0017901610       -0.0065969072       -0.5895908367
  N         0.0041739943        1.8702165619        0.5595993821
 Ga         0.0030533956        1.8391633208        2.5943678848
  N        -0.0001435197       -0.0023952851        3.2312037701
 Ga        -0.0002999851       -0.0025138347        5.2246406360
  N         0.0028832799        1.8711507329        5.8063305705
 Ga         0.0018898020        1.8707915182        7.8077445456
  N        -0.0009786532       -0.0019422650        8.4045435120
 Ga        -0.0003640662        0.0001016313       10.4065487114
  N         0.0013763914        1.8713224948       11.0079944982
 Ga         0.0019483405        1.8731958028       13.0075160679
  N        -0.0032499933        0.0008685960       13.5882025570
 Ga        -0.0070982261       -0.0060112168       15.5874387623
  N        -0.0189798135        1.8714360670       16.1525926156
 Ga        -0.0196807894        1.8385167611       18.1969047340
  N         0.0210145251        0.0030181545       18.6917306055
 Ga        -1.6154757776        2.8049795783        0.2737495831
  N        -1.6192123515        4.6738287283        0.5655790870
 Ga        -1.5935352861        4.6861056531        2.5982431072
  N        -1.6174089627        2.8009906099        3.1867478216
 Ga        -1.6176908965        2.8025389839        5.2012157378
  N        -1.6201332641        4.6716948076        5.8049232423
 Ga        -1.6190807744        4.6731931082        7.8076157665
  N        -1.6197214822        2.8031606832        8.4075001786
 Ga        -1.6195471281        2.8052839012       10.4073294518
  N        -1.6150412891        4.6756064829       11.0077945250
 Ga        -1.6109120330        4.6805078994       13.0054749952
  N        -1.6188290092        2.8126240232       13.6124321814
 Ga        -1.6459724030        2.8055106405       15.6167964825
  N        -1.6163428444        4.6779959208       16.1873008672
 Ga        -1.6088642349        4.6629299691       18.2475186797
  N        -1.6052875036        2.8013320019       18.7214726343
 Ga        -3.2359070262        5.6120356104        0.2774667091
  N        -3.2352225090        7.4813384715        0.5658583062
 Ga        -3.2634394745        7.4923393696        2.5995154230
  N        -3.2388912681        5.6079245704        3.1883712448
 Ga        -3.2383209975        5.6087082374        5.2033845204
  N        -3.2352222920        7.4776881233        5.8080341534
 Ga        -3.2363217134        7.4772661670        7.8113726099
  N        -3.2386745916        5.6071218099        8.4102418886
 Ga        -3.2389688594        5.6085929393       10.4110613822
  N        -3.2384852537        7.4810249382       11.0018054730
 Ga        -3.2395537175        7.4814793504       12.9998730341
  N        -3.2357590006        5.6110833221       13.6005160254
 Ga        -3.2461336053        5.6094821651       15.6015935631
  N        -3.2550861458        7.4868429231       16.1801267118
 Ga        -3.2284585294        7.4855153654       18.2387079840
  N        -3.2356278521        5.6034219107       18.5787167776
 Ga         3.2469257843       -0.0063207057        0.2848710007
  N         3.2505916691        1.8700886590        0.5604861359
 Ga         3.2692542599        1.8812947013        2.6027211002
  N         3.2453390486       -0.0037935694        3.1827681128
 Ga         3.2435498833       -0.0038267664        5.2019936809
  N         3.2460350246        1.8680600754        5.8044276163
 Ga         3.2463007511        1.8684557935        7.8120705628
  N         3.2447995154       -0.0033754474        8.4089320037
 Ga         3.2460510518       -0.0020640970       10.4113030154
  N         3.2479218697        1.8704233630       11.0090049594
 Ga         3.2464157059        1.8667027147       13.0092130171
  N         3.2416144088       -0.0073470299       13.5970016997
 Ga         3.2380474228       -0.0250877401       15.5942715672
  N         3.2669403277        1.8517336773       16.1322109466
 Ga         3.2955624519        1.8428792845       18.1796245011
  N         3.2496570008       -0.0051519345       18.6474548544
 Ga         1.6233886147        2.8050249853        0.2752950100
  N         1.6315591846        4.6741027404        0.5657095292
 Ga         1.6046050071        4.6853205090        2.5989665964
  N         1.6256216379        2.8004448605        3.1851824511
 Ga         1.6251004815        2.8026480874        5.2018258694
  N         1.6332157608        4.6732546101        5.8056878539
 Ga         1.6305237263        4.6738919250        7.8096013331
  N         1.6242815258        2.8031121954        8.4091827140
 Ga         1.6251296514        2.8047255030       10.4097269274
  N         1.6268890172        4.6755402786       11.0106481450
 Ga         1.6265837579        4.6753087874       13.0120492223
  N         1.6251435133        2.8020483139       13.6117953414
 Ga         1.6206212506        2.8019019846       15.6259927846
  N         1.6187938402        4.6624479740       16.1980052477
 Ga         1.6749875462        4.7038769599       18.3299973870
  N         1.6340858447        2.7608433511       18.3840781763
 Ga         0.0072920012        5.6054368113       -0.5790590069
  N         0.0100062910        7.4801385343        0.5622169476
 Ga         0.0087568418        7.4495484222        2.5971274357
  N         0.0068373725        5.6069583708        3.2274079916
 Ga         0.0064976443        5.6063789944        5.2218110505
  N         0.0095703408        7.4827202006        5.8042402226
 Ga         0.0093603351        7.4804349397        7.8093663771
  N         0.0054538467        5.6073515754        8.4050863398
 Ga         0.0063222576        5.6100019352       10.4073478589
  N         0.0095212403        7.4799198826       11.0121507792
 Ga         0.0115853896        7.4759062964       13.0144327199
  N         0.0055316586        5.6058531693       13.6231849720
 Ga        -0.0012091729        5.6150495611       15.6347977077
  N         0.0117992569        7.4913623540       16.1742017301
 Ga         0.0264989803        7.5067921813       18.2143813285
  N        -0.0100520042        5.6369883699       18.5298992674
 Ga         6.4907699329       -0.0057739967        0.2784909409
  N         6.4930377985        1.8706660880        0.5587875565
 Ga         6.4738374408        1.8813957715        2.6034852013
  N         6.4902772528       -0.0037527944        3.1855087225
 Ga         6.4924451825       -0.0020882456        5.2030425840
  N         6.4980014769        1.8676204206        5.8051349595
 Ga         6.4963979612        1.8676566073        7.8082978889
  N         6.4908096777       -0.0024387847        8.4089963068
 Ga         6.4906004743       -0.0015592625       10.4105639995
  N         6.4960051522        1.8708592957       11.0069630561
 Ga         6.4993439799        1.8719290512       13.0061022967
  N         6.4928839894        0.0025409986       13.5994730238
 Ga         6.4693554649        0.0076737434       15.5979585462
  N         6.4895994886        1.8643082338       16.2156665407
 Ga         6.5082636598        1.8889868806       18.2936477552
  N         6.4983504894        0.0027003652       18.6663852241
 Ga         4.8722612722        2.8042583406       -0.5057396524
  N         4.8758751674        4.6722183791        0.5622096604
 Ga         4.8759723053        4.6481396957        2.6058516913
  N         4.8707217358        2.8009663650        3.2248467802
 Ga         4.8734122021        2.8041583745        5.2241632807
  N         4.8749837984        4.6782783916        5.8069284401
 Ga         4.8745607831        4.6766974019        7.8109391150
  N         4.8717816464        2.8017799396        8.4057237023
 Ga         4.8719236279        2.8035895119       10.4096386023
  N         4.8753945209        4.6742260361       11.0083953618
 Ga         4.8746572776        4.6761102579       13.0082752983
  N         4.8728284513        2.8004640180       13.5911783043
 Ga         4.8806352200        2.7928442339       15.5873077105
  N         4.8718309490        4.6565927763       16.1283694195
 Ga         4.9055007494        4.6632086536       18.1701067843
  N         4.8645730925        2.8148999750       18.6336578987
 Ga         3.2501987193        5.6108415790        0.2853100500
  N         3.2522695167        7.4799426343        0.5704220385
 Ga         3.2794958474        7.4938605330        2.6010944523
  N         3.2512500052        5.6070872554        3.1875121314
 Ga         3.2528362873        5.6082357730        5.2028003423
  N         3.2518959954        7.4771135038        5.8061134001
 Ga         3.2526502649        7.4776395675        7.8102986766
  N         3.2516247709        5.6073289778        8.4111693139
 Ga         3.2517880112        5.6082957580       10.4130557257
  N         3.2554289918        7.4818282291       11.0037182074
 Ga         3.2534596116        7.4814183039       13.0015749388
  N         3.2500480001        5.6109889451       13.6037090596
 Ga         3.2399522001        5.6060298294       15.6106508636
  N         3.2370397564        7.4930189524       16.1683217544
 Ga         3.2865231872        7.5434858921       18.2218787099
  N         3.3140393882        5.6625422332       18.4827444284
  O         1.7230298892        4.6822067263       20.5772484886
  H         1.3306978364        5.5789905435       20.6895037254
  C         0.7510838755        3.6863552031       21.0078630164
  H        -0.1550465505        3.6976624056       20.3639122097
  H         1.2526817790        2.7167441694       20.8934825344
  H         0.4412097315        3.8543549665       22.0472408030
     150
 i =        4, E =     -6112.5350940618
 Ga        -0.0012190382       -0.0054830149       -0.5937037366
  N         0.0044317682        1.8705754744        0.5596494735
 Ga         0.0034474608        1.8392442279        2.5946062583
  N        -0.0005324268       -0.0027974841        3.2298579379
 Ga         0.0001372958       -0.0019740633        5.2240007092
  N         0.0029179533        1.8719466241        5.8068228475
 Ga         0.0027853759        1.8710561283        7.8085679632
  N        -0.0008095799       -0.0022367070        8.4038986737