 Entering Gaussian System, Link 0=g16
 Input=/Users/rustam/Documents/Projects/Collaborations/Li-Colab/GaN-carbene/carbene.gjf
 Output=/Users/rustam/Documents/Projects/Collaborations/Li-Colab/GaN-carbene/carbene.log
 Initial command:
 /Applications/G16/g16/l1.exe "/Users/rustam/G16-scratch/Gau-86594.inp" -scrdir="/Users/rustam/G16-scratch/"
 Entering Link 1 = /Applications/G16/g16/l1.exe PID=     86595.
  
 Copyright (c) 1988,1990,1992,1993,1995,1998,2003,2009,2016,
            Gaussian, Inc.  All Rights Reserved.
  
 This is part of the Gaussian(R) 16 program.  It is based on
 the Gaussian(R) 09 system (copyright 2009, Gaussian, Inc.),
 the Gaussian(R) 03 system (copyright 2003, Gaussian, Inc.),
 the Gaussian(R) 98 system (copyright 1998, Gaussian, Inc.),
 the Gaussian(R) 94 system (copyright 1995, Gaussian, Inc.),
 the Gaussian 92(TM) system (copyright 1992, Gaussian, Inc.),
 the Gaussian 90(TM) system (copyright 1990, Gaussian, Inc.),
 the Gaussian 88(TM) system (copyright 1988, Gaussian, Inc.),
 the Gaussian 86(TM) system (copyright 1986, Carnegie Mellon
 University), and the Gaussian 82(TM) system (copyright 1983,
 Carnegie Mellon University). Gaussian is a federally registered
 trademark of Gaussian, Inc.
  
 This software contains proprietary and confidential information,
 including trade secrets, belonging to Gaussian, Inc.
  
 This software is provided under written license and may be
 used, copied, transmitted, or stored only in accord with that
 written license.
  
 The following legend is applicable only to US Government
 contracts under FAR:
  
                    RESTRICTED RIGHTS LEGEND
  
 Use, reproduction and disclosure by the US Government is
 subject to restrictions as set forth in subparagraphs (a)
 and (c) of the Commercial Computer Software - Restricted
 Rights clause in FAR 52.227-19.
  
 Gaussian, Inc.
 340 Quinnipiac St., Bldg. 40, Wallingford CT 06492
  
  
 ---------------------------------------------------------------
 Warning -- This program may not be used in any manner that
 competes with the business of Gaussian, Inc. or will provide
 assistance to any competitor of Gaussian, Inc.  The licensee
 of this program is prohibited from giving any competitor of
 Gaussian, Inc. access to this program.  By using this program,
 the user acknowledges that Gaussian, Inc. is engaged in the
 business of creating and licensing software in the field of
 computational chemistry and represents and warrants to the
 licensee that it is not a competitor of Gaussian, Inc. and that
 it will not use this program in any manner prohibited above.
 ---------------------------------------------------------------
  

 Cite this work as:
 Gaussian 16, Revision A.03,
 M. J. Frisch, G. W. Trucks, H. B. Schlegel, G. E. Scuseria, 
 M. A. Robb, J. R. Cheeseman, G. Scalmani, V. Barone, 
 G. A. Petersson, H. Nakatsuji, X. Li, M. Caricato, A. V. Marenich, 
 J. Bloino, B. G. Janesko, R. Gomperts, B. Mennucci, H. P. Hratchian, 
 J. V. Ortiz, A. F. Izmaylov, J. L. Sonnenberg, D. Williams-Young, 
 F. Ding, F. Lipparini, F. Egidi, J. Goings, B. Peng, A. Petrone, 
 T. Henderson, D. Ranasinghe, V. G. Zakrzewski, J. Gao, N. Rega, 
 G. Zheng, W. Liang, M. Hada, M. Ehara, K. Toyota, R. Fukuda, 
 J. Hasegawa, M. Ishida, T. Nakajima, Y. Honda, O. Kitao, H. Nakai, 
 T. Vreven, K. Throssell, J. A. Montgomery, Jr., J. E. Peralta, 
 F. Ogliaro, M. J. Bearpark, J. J. Heyd, E. N. Brothers, K. N. Kudin, 
 V. N. Staroverov, T. A. Keith, R. Kobayashi, J. Normand, 
 K. Raghavachari, A. P. Rendell, J. C. Burant, S. S. Iyengar, 
 J. Tomasi, M. Cossi, J. M. Millam, M. Klene, C. Adamo, R. Cammi, 
 J. W. Ochterski, R. L. Martin, K. Morokuma, O. Farkas, 
 J. B. Foresman, and D. J. Fox, Gaussian, Inc., Wallingford CT, 2016.
 
 ******************************************
 Gaussian 16:  EM64M-G16RevA.03 25-Dec-2016
                 8-May-2019 
 ******************************************
 %mem=4GB
 %chk=carbene.chk
 -----------------------------------------------
 # opt ub3lyp/6-31g(d,p) guess=(core,mix,always)
 -----------------------------------------------
 1/18=20,19=15,26=3,38=1/1,3;
 2/9=110,12=2,17=6,18=5,40=1/2;
 3/5=1,6=6,7=101,11=2,25=1,30=1,71=1,74=-5,116=2/1,2,3;
 4/5=2,13=-1/1;
 5/5=2,38=5/2;
 6/7=2,8=2,9=2,10=2,28=1/1;
 7//1,2,3,16;
 1/18=20,19=15,26=3/3(2);
 2/9=110/2;
 99//99;
 2/9=110/2;
 3/5=1,6=6,7=101,11=2,25=1,30=1,71=1,74=-5,116=2/1,2,3;
 4/5=2,13=-1/1;
 5/5=2,38=5/2;
 7//1,2,3,16;
 1/18=20,19=15,26=3/3(-5);
 2/9=110/2;
 6/7=2,8=2,9=2,10=2,19=2,28=1/1;
 99/9=1/99;
 -------------------
 Title Card Required
 -------------------
 Symbolic Z-matrix:
 Charge =  0 Multiplicity = 1
 C                    -3.35606  -0.40909   0. 
 H                    -2.99941  -1.4179    0. 
 H                    -4.42606  -0.40908   0. 
 

 GradGradGradGradGradGradGradGradGradGradGradGradGradGradGradGradGradGrad
 Berny optimization.
 Initialization pass.
                           ----------------------------
                           !    Initial Parameters    !
                           ! (Angstroms and Degrees)  !
 --------------------------                            --------------------------
 ! Name  Definition              Value          Derivative Info.                !
 --------------------------------------------------------------------------------
 ! R1    R(1,2)                  1.07           estimate D2E/DX2                !
 ! R2    R(1,3)                  1.07           estimate D2E/DX2                !
 ! A1    A(2,1,3)              109.4712         estimate D2E/DX2                !
 --------------------------------------------------------------------------------
 Trust Radius=3.00D-01 FncErr=1.00D-07 GrdErr=1.00D-06 EigMax=2.50D+02 EigMin=1.00D-04
 Number of steps in this run=     20 maximum allowed number of steps=    100.
 GradGradGradGradGradGradGradGradGradGradGradGradGradGradGradGradGradGrad

                          Input orientation:                          
 ---------------------------------------------------------------------
 Center     Atomic      Atomic             Coordinates (Angstroms)
 Number     Number       Type             X           Y           Z
 ---------------------------------------------------------------------
      1          6           0       -3.356061   -0.409091    0.000000
      2          1           0       -2.999406   -1.417901    0.000000
      3          1           0       -4.426061   -0.409078    0.000000
 ---------------------------------------------------------------------
                    Distance matrix (angstroms):
                    1          2          3
     1  C    0.000000
     2  H    1.070000   0.000000
     3  H    1.070000   1.747303   0.000000
 Stoichiometry    CH2
 Framework group  C2V[C2(C),SGV(H2)]
 Deg. of freedom     2
 Full point group                 C2V     NOp   4
 Largest Abelian subgroup         C2V     NOp   4
 Largest concise Abelian subgroup C2      NOp   2
                         Standard orientation:                         
 ---------------------------------------------------------------------
 Center     Atomic      Atomic             Coordinates (Angstroms)
 Number     Number       Type             X           Y           Z
 ---------------------------------------------------------------------
      1          6           0        0.000000    0.000000    0.154441
      2          1           0        0.000000    0.873651   -0.463324
      3          1           0       -0.000000   -0.873651   -0.463324
 ---------------------------------------------------------------------
 Rotational constants (GHZ):         767.3400571         328.4926860         230.0219609
 Standard basis: 6-31G(d,p) (6D, 7F)
 There are    12 symmetry adapted cartesian basis functions of A1  symmetry.
 There are     2 symmetry adapted cartesian basis functions of A2  symmetry.
 There are     4 symmetry adapted cartesian basis functions of B1  symmetry.
 There are     7 symmetry adapted cartesian basis functions of B2  symmetry.
 There are    12 symmetry adapted basis functions of A1  symmetry.
 There are     2 symmetry adapted basis functions of A2  symmetry.
 There are     4 symmetry adapted basis functions of B1  symmetry.
 There are     7 symmetry adapted basis functions of B2  symmetry.
    25 basis functions,    42 primitive gaussians,    25 cartesian basis functions
     4 alpha electrons        4 beta electrons
       nuclear repulsion energy         6.2375514209 Hartrees.
 NAtoms=    3 NActive=    3 NUniq=    2 SFac= 2.25D+00 NAtFMM=   60 NAOKFM=F Big=F
 Integral buffers will be    131072 words long.
 Raffenetti 2 integral format.
 Two-electron integral symmetry is turned on.
 One-electron integrals computed using PRISM.
 NBasis=    25 RedAO= T EigKep=  2.80D-02  NBF=    12     2     4     7
 NBsUse=    25 1.00D-06 EigRej= -1.00D+00 NBFU=    12     2     4     7
 Core hamiltonian diagonalized for initial guess.
 Mixing orbitals, IMix= 1 IMixAn=  0 NRI=1 NE=    4 Coef=  7.07106781D-01  7.07106781D-01
 Mixing orbitals, IMix= 1 IMixAn=  0 NRI=1 NE=    4 Coef= -7.07106781D-01  7.07106781D-01
 Initial guess orbital symmetries:
 Alpha Orbitals:
       Occupied  (A1) (A1) (B2) (?A)
       Virtual   (?A) (B2) (A1) (A1) (A2) (B1) (A1) (B2) (A1) (B1)
                 (A1) (B2) (A1) (B2) (B2) (A2) (B1) (A1) (A1) (B2)
                 (A1)
 Beta  Orbitals:
       Occupied  (A1) (A1) (B2) (?A)
       Virtual   (?A) (B2) (A1) (A1) (A2) (B1) (A1) (B2) (A1) (B1)
                 (A1) (B2) (A1) (B2) (B2) (A2) (B1) (A1) (A1) (B2)
                 (A1)
 Initial guess <Sx>= 0.0000 <Sy>= 0.0000 <Sz>= 0.0000 <S**2>= 1.0000 S= 0.6180
 Keep R1 and R2 ints in memory in symmetry-blocked form, NReq=916845.
 Requested convergence on RMS density matrix=1.00D-08 within 128 cycles.
 Requested convergence on MAX density matrix=1.00D-06.
 Requested convergence on             energy=1.00D-06.
 No special actions if energy rises.
 Integral accuracy reduced to 1.0D-05 until final iterations.
 An orbital has undefined symmetry, so N**3 symmetry is turned off.
 Density matrix breaks symmetry, PCut= 1.00D-04
 Density matrix has no symmetry -- integrals replicated.
 Density matrix breaks symmetry, PCut= 1.00D-04
 Density matrix has no symmetry -- integrals replicated.
 Density matrix breaks symmetry, PCut= 1.00D-04
 Density matrix has no symmetry -- integrals replicated.
 Density matrix breaks symmetry, PCut= 1.00D-04
 Density matrix has no symmetry -- integrals replicated.
 Density matrix breaks symmetry, PCut= 1.00D-04
 Density matrix has no symmetry -- integrals replicated.
 Density matrix breaks symmetry, PCut= 1.00D-04
 Density matrix has no symmetry -- integrals replicated.
 Density matrix breaks symmetry, PCut= 1.00D-04
 Density matrix has no symmetry -- integrals replicated.
 Density matrix breaks symmetry, PCut= 1.00D-04
 Density matrix has no symmetry -- integrals replicated.
 Density matrix breaks symmetry, PCut= 1.00D-04
 Density matrix has no symmetry -- integrals replicated.
 Initial convergence to 1.0D-05 achieved.  Increase integral accuracy.
 Density matrix breaks symmetry, PCut= 1.00D-04
 Density matrix has no symmetry -- integrals replicated.
 Density matrix breaks symmetry, PCut= 1.00D-04
 Density matrix has no symmetry -- integrals replicated.
 Density matrix breaks symmetry, PCut= 1.00D-04
 Density matrix has no symmetry -- integrals replicated.
 Density matrix breaks symmetry, PCut= 1.00D-04
 Density matrix has no symmetry -- integrals replicated.
 Density matrix breaks symmetry, PCut= 1.00D-04
 Density matrix has no symmetry -- integrals replicated.
 Density matrix breaks symmetry, PCut= 1.00D-04
 Density matrix has no symmetry -- integrals replicated.
 Density matrix breaks symmetry, PCut= 1.00D-04
 Density matrix has no symmetry -- integrals replicated.
 SCF Done:  E(UB3LYP) =  -39.1420157020     A.U. after   15 cycles
            NFock= 15  Conv=0.86D-08     -V/T= 2.0065
 <Sx>= 0.0000 <Sy>= 0.0000 <Sz>= 0.0000 <S**2>= 0.7074 S= 0.4785
 <L.S>= 0.000000000000E+00
 Annihilation of the first spin contaminant:
 S**2 before annihilation     0.7074,   after     0.0043
 SCF density gives NOpUse=  1 NOpAll=  4.

 **********************************************************************

            Population analysis using the SCF density.

 **********************************************************************

 Orbital symmetries:
 Alpha Orbitals:
       Occupied  (A1) (B2) (B2) (B2)
       Virtual   (B2) (B2) (?A) (B2) (B2) (B2) (B2) (?A) (B2) (?A)
                 (B2) (B2) (B2) (?A) (?A) (B2) (?A) (B2) (A1) (B2)
                 (A1)
 Beta  Orbitals:
       Occupied  (A1) (B2) (B2) (B2)
       Virtual   (B2) (B2) (?A) (B2) (B2) (B2) (B2) (?A) (B2) (?A)
                 (B2) (B2) (B2) (?A) (?A) (B2) (?A) (B2) (A1) (B2)
                 (A1)
 Unable to determine electronic state:  partially filled degenerate orbitals.
 Alpha  occ. eigenvalues --  -10.22408  -0.66080  -0.41744  -0.25754
 Alpha virt. eigenvalues --   -0.08997   0.13328   0.18229   0.53326   0.53801
 Alpha virt. eigenvalues --    0.58897   0.70954   0.87621   0.92892   1.45095
 Alpha virt. eigenvalues --    1.48708   1.57754   1.97976   2.04505   2.24104
 Alpha virt. eigenvalues --    2.45505   2.51581   2.78971   3.25976   3.44151
 Alpha virt. eigenvalues --    4.12275
  Beta  occ. eigenvalues --  -10.22408  -0.66080  -0.41744  -0.25754
  Beta virt. eigenvalues --   -0.08997   0.13328   0.18229   0.53326   0.53801
  Beta virt. eigenvalues --    0.58897   0.70954   0.87621   0.92892   1.45095
  Beta virt. eigenvalues --    1.48708   1.57754   1.97976   2.04505   2.24104
  Beta virt. eigenvalues --    2.45505   2.51581   2.78971   3.25976   3.44151
  Beta virt. eigenvalues --    4.12275
          Condensed to atoms (all electrons):
               1          2          3
     1  C    5.572901   0.331289   0.331289
     2  H    0.331289   0.601072  -0.050101
     3  H    0.331289  -0.050101   0.601072
          Atomic-Atomic Spin Densities.
               1          2          3
     1  C   -0.000000   0.000000   0.000000
     2  H    0.000000   0.000000  -0.000000
     3  H    0.000000  -0.000000   0.000000
 Mulliken charges and spin densities:
               1          2
     1  C   -0.235480   0.000000
     2  H    0.117740   0.000000
     3  H    0.117740   0.000000
 Sum of Mulliken charges =   0.00000   0.00000
 Mulliken charges and spin densities with hydrogens summed into heavy atoms:
               1          2
     1  C    0.000000   0.000000
 Electronic spatial extent (au):  <R**2>=             23.4739
 Charge=              0.0000 electrons
 Dipole moment (field-independent basis, Debye):
    X=             -0.0000    Y=             -0.0000    Z=             -1.3316  Tot=              1.3316
 Quadrupole moment (field-independent basis, Debye-Ang):
   XX=             -6.7959   YY=             -6.5844   ZZ=             -8.1111
   XY=             -0.0000   XZ=             -0.0000   YZ=             -0.0000
 Traceless Quadrupole moment (field-independent basis, Debye-Ang):
   XX=              0.3679   YY=              0.5794   ZZ=             -0.9473
   XY=             -0.0000   XZ=             -0.0000   YZ=             -0.0000
 Octapole moment (field-independent basis, Debye-Ang**2):
  XXX=             -0.0000  YYY=             -0.0000  ZZZ=             -2.0222  XYY=             -0.0000
  XXY=             -0.0000  XXZ=             -0.4318  XZZ=             -0.0000  YZZ=              0.0000
  YYZ=             -0.9544  XYZ=             -0.0000
 Hexadecapole moment (field-independent basis, Debye-Ang**3):
 XXXX=             -6.3694 YYYY=            -13.2670 ZZZZ=            -12.1390 XXXY=             -0.0000
 XXXZ=             -0.0000 YYYX=             -0.0000 YYYZ=             -0.0000 ZZZX=             -0.0000
 ZZZY=             -0.0000 XXYY=             -3.4900 XXZZ=             -3.0905 YYZZ=             -4.0255
 XXYZ=             -0.0000 YYXZ=             -0.0000 ZZXY=             -0.0000
 N-N= 6.237551420878D+00 E-N=-1.029796752098D+02  KE= 3.888879117216D+01
 Symmetry A1   KE= 3.631450066625D+01
 Symmetry A2   KE= 1.897359309354D-04
 Symmetry B1   KE= 5.547282390273D-01
 Symmetry B2   KE= 2.019372530946D+00
 Symmetry A1   SP= 1.725319376580D-14
 Symmetry A2   SP=-2.901344596271D-18
 Symmetry B1   SP= 1.892754284239D-15
 Symmetry B2   SP= 3.206115501966D-16
                          Isotropic Fermi Contact Couplings
        Atom                 a.u.       MegaHertz       Gauss      10(-4) cm-1
     1  C(13)              0.00000       0.00000       0.00000       0.00000
     2  H(1)               0.00000       0.00000       0.00000       0.00000
     3  H(1)               0.00000       0.00000       0.00000       0.00000
 --------------------------------------------------------
       Center         ----  Spin Dipole Couplings  ----
                      3XX-RR        3YY-RR        3ZZ-RR
 --------------------------------------------------------
     1   Atom       -0.000000     -0.000000      0.000000
     2   Atom       -0.000000      0.000000     -0.000000
     3   Atom       -0.000000      0.000000     -0.000000
 --------------------------------------------------------
                        XY            XZ            YZ
 --------------------------------------------------------
     1   Atom        0.000000      1.251479     -0.000000
     2   Atom        0.023943      0.039330     -0.000000
     3   Atom       -0.023943      0.039330      0.000000
 --------------------------------------------------------


 ---------------------------------------------------------------------------------
              Anisotropic Spin Dipole Couplings in Principal Axis System
 ---------------------------------------------------------------------------------

       Atom             a.u.   MegaHertz   Gauss  10(-4) cm-1        Axes

              Baa    -1.2515  -167.937   -59.924   -56.018  0.7071 -0.0000 -0.7071
     1 C(13)  Bbb    -0.0000    -0.000    -0.000    -0.000  0.0000  1.0000 -0.0000
              Bcc     1.2515   167.937    59.924    56.018  0.7071 -0.0000  0.7071
 
              Baa    -0.0460   -24.567    -8.766    -8.195  0.7071 -0.3677 -0.6040
     2 H(1)   Bbb     0.0000     0.000     0.000     0.000 -0.0000  0.8542 -0.5200
              Bcc     0.0460    24.567     8.766     8.195  0.7071  0.3677  0.6040
 
              Baa    -0.0460   -24.567    -8.766    -8.195  0.7071  0.3677 -0.6040
     3 H(1)   Bbb     0.0000     0.000     0.000     0.000  0.0000  0.8542  0.5200
              Bcc     0.0460    24.567     8.766     8.195  0.7071 -0.3677  0.6040
 

 ---------------------------------------------------------------------------------

 Density matrix is not symmetric, so symmetry will not be used here.
 Calling FoFJK, ICntrl=      2127 FMM=F ISym2X=0 I1Cent= 0 IOpClX= 1 NMat=1 NMatS=1 NMatT=0.
 ***** Axes restored to original set *****
 -------------------------------------------------------------------
 Center     Atomic                   Forces (Hartrees/Bohr)
 Number     Number              X              Y              Z
 -------------------------------------------------------------------
      1        6           0.009977885    0.014110493    0.000000000
      2        1           0.011724279   -0.018873585   -0.000000000
      3        1          -0.021702163    0.004763092   -0.000000000
 -------------------------------------------------------------------
 Cartesian Forces:  Max     0.021702163 RMS     0.011953642

 GradGradGradGradGradGradGradGradGradGradGradGradGradGradGradGradGradGrad
 Berny optimization.
 FormGI is forming the generalized inverse of G from B-inverse, IUseBI=4.
 Internal  Forces:  Max     0.021702222 RMS     0.018571651
 Search for a local minimum.
 Step number   1 out of a maximum of   20
 All quantities printed in internal units (Hartrees-Bohrs-Radians)
 Mixed Optimization -- RFO/linear search
 Second derivative matrix not updated -- first step.
 The second derivative matrix:
                          R1        R2        A1
           R1           0.37230
           R2           0.00000   0.37230
           A1           0.00000   0.00000   0.16000
 ITU=  0
     Eigenvalues ---    0.16000   0.37230   0.37230
 RFO step:  Lambda=-3.07811408D-03 EMin= 1.60000000D-01
 Linear search not attempted -- first point.
 Iteration  1 RMS(Cart)=  0.06704431 RMS(Int)=  0.00118429
 Iteration  2 RMS(Cart)=  0.00093368 RMS(Int)=  0.00000072
 Iteration  3 RMS(Cart)=  0.00000082 RMS(Int)=  0.00000000
 Variable       Old X    -DE/DX   Delta X   Delta X   Delta X     New X
                                 (Linear)    (Quad)   (Total)
    R1        2.02201   0.02170   0.00000   0.05781   0.05781   2.07982
    R2        2.02201   0.02170   0.00000   0.05781   0.05781   2.07982
    A1        1.91063   0.00963   0.00000   0.05905   0.05905   1.96969
         Item               Value     Threshold  Converged?
 Maximum Force            0.021702     0.000450     NO 
 RMS     Force            0.018572     0.000300     NO 
 Maximum Displacement     0.070209     0.001800     NO 
 RMS     Displacement     0.067378     0.001200     NO 
 Predicted change in Energy=-1.554711D-03
 GradGradGradGradGradGradGradGradGradGradGradGradGradGradGradGradGradGrad

                          Input orientation:                          
 ---------------------------------------------------------------------
 Center     Atomic      Atomic             Coordinates (Angstroms)
 Number     Number       Type             X           Y           Z
 ---------------------------------------------------------------------
      1          6           0       -3.359580   -0.414068    0.000000
      2          1           0       -2.962254   -1.440440    0.000000
      3          1           0       -4.459694   -0.381562   -0.000000
 ---------------------------------------------------------------------
                    Distance matrix (angstroms):
                    1          2          3
     1  C    0.000000
     2  H    1.100594   0.000000
     3  H    1.100594   1.833998   0.000000
 Stoichiometry    CH2
 Framework group  C2V[C2(C),SGV(H2)]
 Deg. of freedom     2
 Full point group                 C2V     NOp   4
 Largest Abelian subgroup         C2V     NOp   4
 Largest concise Abelian subgroup C2      NOp   2
                         Standard orientation:                         
 ---------------------------------------------------------------------
 Center     Atomic      Atomic             Coordinates (Angstroms)
 Number     Number       Type             X           Y           Z
 ---------------------------------------------------------------------
      1          6           0       -0.000000    0.000000    0.152155
      2          1           0        0.000000    0.916999   -0.456466
      3          1           0       -0.000000   -0.916999   -0.456466
 ---------------------------------------------------------------------
 Rotational constants (GHZ):         790.5698201         298.1701486         216.5111298
 Standard basis: 6-31G(d,p) (6D, 7F)
 There are    12 symmetry adapted cartesian basis functions of A1  symmetry.
 There are     2 symmetry adapted cartesian basis functions of A2  symmetry.
 There are     4 symmetry adapted cartesian basis functions of B1  symmetry.
 There are     7 symmetry adapted cartesian basis functions of B2  symmetry.
 There are    12 symmetry adapted basis functions of A1  symmetry.
 There are     2 symmetry adapted basis functions of A2  symmetry.
 There are     4 symmetry adapted basis functions of B1  symmetry.
 There are     7 symmetry adapted basis functions of B2  symmetry.
    25 basis functions,    42 primitive gaussians,    25 cartesian basis functions
     4 alpha electrons        4 beta electrons
       nuclear repulsion energy         6.0582644738 Hartrees.
 NAtoms=    3 NActive=    3 NUniq=    2 SFac= 2.25D+00 NAtFMM=   60 NAOKFM=F Big=F
 Integral buffers will be    131072 words long.
 Raffenetti 2 integral format.
 Two-electron integral symmetry is turned on.
 One-electron integrals computed using PRISM.
 NBasis=    25 RedAO= T EigKep=  3.13D-02  NBF=    12     2     4     7
 NBsUse=    25 1.00D-06 EigRej= -1.00D+00 NBFU=    12     2     4     7
 Core hamiltonian diagonalized for initial guess.
 Mixing orbitals, IMix= 1 IMixAn=  0 NRI=1 NE=    4 Coef=  7.07106781D-01  7.07106781D-01
 Mixing orbitals, IMix= 1 IMixAn=  0 NRI=1 NE=    4 Coef= -7.07106781D-01  7.07106781D-01
 Initial guess orbital symmetries:
 Alpha Orbitals:
       Occupied  (A1) (A1) (B2) (?A)
       Virtual   (?A) (B2) (A1) (A1) (A2) (B1) (A1) (B2) (A1) (B1)
                 (A1) (B2) (A1) (B2) (B2) (A2) (B1) (A1) (A1) (B2)
                 (A1)
 Beta  Orbitals:
       Occupied  (A1) (A1) (B2) (?A)
       Virtual   (?A) (B2) (A1) (A1) (A2) (B1) (A1) (B2) (A1) (B1)
                 (A1) (B2) (A1) (B2) (B2) (A2) (B1) (A1) (A1) (B2)
                 (A1)
 Initial guess <Sx>= 0.0000 <Sy>= 0.0000 <Sz>= 0.0000 <S**2>= 1.0000 S= 0.6180
 Keep R1 and R2 ints in memory in symmetry-blocked form, NReq=916845.
 Requested convergence on RMS density matrix=1.00D-08 within 128 cycles.
 Requested convergence on MAX density matrix=1.00D-06.
 Requested convergence on             energy=1.00D-06.
 No special actions if energy rises.
 Integral accuracy reduced to 1.0D-05 until final iterations.
 An orbital has undefined symmetry, so N**3 symmetry is turned off.
 Density matrix breaks symmetry, PCut= 1.00D-04
 Density matrix has no symmetry -- integrals replicated.
 Density matrix breaks symmetry, PCut= 1.00D-04
 Density matrix has no symmetry -- integrals replicated.
 Density matrix breaks symmetry, PCut= 1.00D-04
 Density matrix has no symmetry -- integrals replicated.
 Density matrix breaks symmetry, PCut= 1.00D-04
 Density matrix has no symmetry -- integrals replicated.
 Density matrix breaks symmetry, PCut= 1.00D-04
 Density matrix has no symmetry -- integrals replicated.
 Density matrix breaks symmetry, PCut= 1.00D-04
 Density matrix has no symmetry -- integrals replicated.
 Density matrix breaks symmetry, PCut= 1.00D-04
 Density matrix has no symmetry -- integrals replicated.
 Density matrix breaks symmetry, PCut= 1.00D-04
 Density matrix has no symmetry -- integrals replicated.
 Density matrix breaks symmetry, PCut= 1.00D-04
 Density matrix has no symmetry -- integrals replicated.
 Density matrix breaks symmetry, PCut= 1.00D-04
 Density matrix has no symmetry -- integrals replicated.
 Initial convergence to 1.0D-05 achieved.  Increase integral accuracy.
 Density matrix breaks symmetry, PCut= 1.00D-04
 Density matrix has no symmetry -- integrals replicated.
 Density matrix breaks symmetry, PCut= 1.00D-04
 Density matrix has no symmetry -- integrals replicated.
 Density matrix breaks symmetry, PCut= 1.00D-04
 Density matrix has no symmetry -- integrals replicated.
 Density matrix breaks symmetry, PCut= 1.00D-04
 Density matrix has no symmetry -- integrals replicated.
 Density matrix breaks symmetry, PCut= 1.00D-04
 Density matrix has no symmetry -- integrals replicated.
 Density matrix breaks symmetry, PCut= 1.00D-04
 Density matrix has no symmetry -- integrals replicated.
 Density matrix breaks symmetry, PCut= 1.00D-04
 Density matrix has no symmetry -- integrals replicated.
 SCF Done:  E(UB3LYP) =  -39.1434862021     A.U. after   16 cycles
            NFock= 16  Conv=0.10D-08     -V/T= 2.0088
 <Sx>= 0.0000 <Sy>= 0.0000 <Sz>= 0.0000 <S**2>= 0.7316 S= 0.4907
 <L.S>= 0.000000000000E+00
 Annihilation of the first spin contaminant:
 S**2 before annihilation     0.7316,   after     0.0049
 Density matrix is not symmetric, so symmetry will not be used here.
 Calling FoFJK, ICntrl=      2127 FMM=F ISym2X=0 I1Cent= 0 IOpClX= 1 NMat=1 NMatS=1 NMatT=0.
 ***** Axes restored to original set *****
 -------------------------------------------------------------------
 Center     Atomic                   Forces (Hartrees/Bohr)
 Number     Number              X              Y              Z
 -------------------------------------------------------------------
      1        6          -0.000639446   -0.000904289   -0.000000000
      2        1          -0.000051754    0.000714825    0.000000000
      3        1           0.000691200    0.000189464   -0.000000000
 -------------------------------------------------------------------
 Cartesian Forces:  Max     0.000904289 RMS     0.000500437

 GradGradGradGradGradGradGradGradGradGradGradGradGradGradGradGradGradGrad
 Berny optimization.
 Using GEDIIS/GDIIS optimizer.
 FormGI is forming the generalized inverse of G from B-inverse, IUseBI=4.
 Internal  Forces:  Max     0.000685302 RMS     0.000613642
 Search for a local minimum.
 Step number   2 out of a maximum of   20
 All quantities printed in internal units (Hartrees-Bohrs-Radians)
 Mixed Optimization -- En-DIIS/RFO-DIIS
 Update second derivatives using D2CorX and points    1    2
 DE= -1.47D-03 DEPred=-1.55D-03 R= 9.46D-01
 TightC=F SS=  1.41D+00  RLast= 1.01D-01 DXNew= 5.0454D-01 3.0257D-01
 Trust test= 9.46D-01 RLast= 1.01D-01 DXMaxT set to 3.03D-01
 The second derivative matrix:
                          R1        R2        A1
           R1           0.38029
           R2           0.00799   0.38029
           A1          -0.00102  -0.00102   0.15769
 ITU=  1  0
 Use linear search instead of GDIIS.
     Eigenvalues ---    0.15768   0.37230   0.38829
 RFO step:  Lambda=-2.57757667D-06 EMin= 1.57682160D-01
 Quartic linear search produced a step of -0.01851.
 Iteration  1 RMS(Cart)=  0.00152863 RMS(Int)=  0.00000192
 Iteration  2 RMS(Cart)=  0.00000229 RMS(Int)=  0.00000000
 Iteration  3 RMS(Cart)=  0.00000000 RMS(Int)=  0.00000000
 ClnCor:  largest displacement from symmetrization is 5.33D-15 for atom     3.
 Variable       Old X    -DE/DX   Delta X   Delta X   Delta X     New X
                                 (Linear)    (Quad)   (Total)
    R1        2.07982  -0.00069  -0.00107  -0.00075  -0.00182   2.07800
    R2        2.07982  -0.00069  -0.00107  -0.00075  -0.00182   2.07800
    A1        1.96969   0.00044  -0.00109   0.00367   0.00258   1.97227
         Item               Value     Threshold  Converged?
 Maximum Force            0.000685     0.000450     NO 
 RMS     Force            0.000614     0.000300     NO 
 Maximum Displacement     0.001764     0.001800     YES
 RMS     Displacement     0.001528     0.001200     NO 
 Predicted change in Energy=-1.799432D-06
 GradGradGradGradGradGradGradGradGradGradGradGradGradGradGradGradGradGrad

                          Input orientation:                          
 ---------------------------------------------------------------------
 Center     Atomic      Atomic             Coordinates (Angstroms)
 Number     Number       Type             X           Y           Z
 ---------------------------------------------------------------------
      1          6           0       -3.360240   -0.415002   -0.000000
      2          1           0       -2.961941   -1.439961    0.000000
      3          1           0       -4.459347   -0.381107   -0.000000
 ---------------------------------------------------------------------
                    Distance matrix (angstroms):
                    1          2          3
     1  C    0.000000
     2  H    1.099629   0.000000
     3  H    1.099629   1.833956   0.000000
 Stoichiometry    CH2
 Framework group  C2V[C2(C),SGV(H2)]
 Deg. of freedom     2
 Full point group                 C2V     NOp   4
 Largest Abelian subgroup         C2V     NOp   4
 Largest concise Abelian subgroup C2      NOp   2
                         Standard orientation:                         
 ---------------------------------------------------------------------
 Center     Atomic      Atomic             Coordinates (Angstroms)
 Number     Number       Type             X           Y           Z
 ---------------------------------------------------------------------
      1          6           0        0.000000    0.000000    0.151726
      2          1           0        0.000000    0.916978   -0.455179
      3          1           0       -0.000000   -0.916978   -0.455179
 ---------------------------------------------------------------------
 Rotational constants (GHZ):         795.0443858         298.1839875         216.8526824
 Standard basis: 6-31G(d,p) (6D, 7F)
 There are    12 symmetry adapted cartesian basis functions of A1  symmetry.
 There are     2 symmetry adapted cartesian basis functions of A2  symmetry.
 There are     4 symmetry adapted cartesian basis functions of B1  symmetry.
 There are     7 symmetry adapted cartesian basis functions of B2  symmetry.
 There are    12 symmetry adapted basis functions of A1  symmetry.
 There are     2 symmetry adapted basis functions of A2  symmetry.
 There are     4 symmetry adapted basis functions of B1  symmetry.
 There are     7 symmetry adapted basis functions of B2  symmetry.
    25 basis functions,    42 primitive gaussians,    25 cartesian basis functions
     4 alpha electrons        4 beta electrons
       nuclear repulsion energy         6.0633358344 Hartrees.
 NAtoms=    3 NActive=    3 NUniq=    2 SFac= 2.25D+00 NAtFMM=   60 NAOKFM=F Big=F
 Integral buffers will be    131072 words long.
 Raffenetti 2 integral format.
 Two-electron integral symmetry is turned on.
 One-electron integrals computed using PRISM.
 NBasis=    25 RedAO= T EigKep=  3.13D-02  NBF=    12     2     4     7
 NBsUse=    25 1.00D-06 EigRej= -1.00D+00 NBFU=    12     2     4     7
 Core hamiltonian diagonalized for initial guess.
 Mixing orbitals, IMix= 1 IMixAn=  0 NRI=1 NE=    4 Coef=  7.07106781D-01  7.07106781D-01
 Mixing orbitals, IMix= 1 IMixAn=  0 NRI=1 NE=    4 Coef= -7.07106781D-01  7.07106781D-01
 Initial guess orbital symmetries:
 Alpha Orbitals:
       Occupied  (A1) (A1) (B2) (?A)
       Virtual   (?A) (B2) (A1) (A1) (A2) (B1) (A1) (B2) (A1) (B1)
                 (A1) (B2) (A1) (B2) (B2) (A2) (B1) (A1) (A1) (B2)
                 (A1)
 Beta  Orbitals:
       Occupied  (A1) (A1) (B2) (?A)
       Virtual   (?A) (B2) (A1) (A1) (A2) (B1) (A1) (B2) (A1) (B1)
                 (A1) (B2) (A1) (B2) (B2) (A2) (B1) (A1) (A1) (B2)
                 (A1)
 Initial guess <Sx>= 0.0000 <Sy>= 0.0000 <Sz>= 0.0000 <S**2>= 1.0000 S= 0.6180
 Keep R1 and R2 ints in memory in symmetry-blocked form, NReq=916845.
 Requested convergence on RMS density matrix=1.00D-08 within 128 cycles.
 Requested convergence on MAX density matrix=1.00D-06.
 Requested convergence on             energy=1.00D-06.
 No special actions if energy rises.
 An orbital has undefined symmetry, so N**3 symmetry is turned off.
 Density matrix breaks symmetry, PCut= 1.00D-04
 Density matrix has no symmetry -- integrals replicated.
 Density matrix breaks symmetry, PCut= 1.00D-04
 Density matrix has no symmetry -- integrals replicated.
 Density matrix breaks symmetry, PCut= 1.00D-04
 Density matrix has no symmetry -- integrals replicated.
 Density matrix breaks symmetry, PCut= 1.00D-04
 Density matrix has no symmetry -- integrals replicated.
 Density matrix breaks symmetry, PCut= 1.00D-04
 Density matrix has no symmetry -- integrals replicated.
 Density matrix breaks symmetry, PCut= 1.00D-04
 Density matrix has no symmetry -- integrals replicated.
 Density matrix breaks symmetry, PCut= 1.00D-04
 Density matrix has no symmetry -- integrals replicated.
 Density matrix breaks symmetry, PCut= 1.00D-04
 Density matrix has no symmetry -- integrals replicated.
 Density matrix breaks symmetry, PCut= 1.00D-04
 Density matrix has no symmetry -- integrals replicated.
 Density matrix breaks symmetry, PCut= 1.00D-04
 Density matrix has no symmetry -- integrals replicated.
 Density matrix breaks symmetry, PCut= 1.00D-04
 Density matrix has no symmetry -- integrals replicated.
 Density matrix breaks symmetry, PCut= 1.00D-04
 Density matrix has no symmetry -- integrals replicated.
 Density matrix breaks symmetry, PCut= 1.00D-04
 Density matrix has no symmetry -- integrals replicated.
 Density matrix breaks symmetry, PCut= 1.00D-04
 Density matrix has no symmetry -- integrals replicated.
 Density matrix breaks symmetry, PCut= 1.00D-04
 Density matrix has no symmetry -- integrals replicated.
 SCF Done:  E(UB3LYP) =  -39.1434886808     A.U. after   14 cycles
            NFock= 14  Conv=0.66D-09     -V/T= 2.0087
 <Sx>= 0.0000 <Sy>= 0.0000 <Sz>= 0.0000 <S**2>= 0.7334 S= 0.4916
 <L.S>= 0.000000000000E+00
 Annihilation of the first spin contaminant:
 S**2 before annihilation     0.7334,   after     0.0050
 Density matrix is not symmetric, so symmetry will not be used here.
 Calling FoFJK, ICntrl=      2127 FMM=F ISym2X=0 I1Cent= 0 IOpClX= 1 NMat=1 NMatS=1 NMatT=0.
 ***** Axes restored to original set *****
 -------------------------------------------------------------------
 Center     Atomic                   Forces (Hartrees/Bohr)
 Number     Number              X              Y              Z
 -------------------------------------------------------------------
      1        6          -0.000236305   -0.000334177   -0.000000000
      2        1           0.000073396    0.000198737    0.000000000
      3        1           0.000162909    0.000135440    0.000000000
 -------------------------------------------------------------------
 Cartesian Forces:  Max     0.000334177 RMS     0.000169076

 GradGradGradGradGradGradGradGradGradGradGradGradGradGradGradGradGradGrad
 Berny optimization.
 Using GEDIIS/GDIIS optimizer.
 FormGI is forming the generalized inverse of G from B-inverse, IUseBI=4.
 Internal  Forces:  Max     0.000291745 RMS     0.000212493
 Search for a local minimum.
 Step number   3 out of a maximum of   20
 All quantities printed in internal units (Hartrees-Bohrs-Radians)
 Mixed Optimization -- En-DIIS/RFO-DIIS
 Swapping is turned off.
 Update second derivatives using D2CorX and points    1    2    3
 DE= -2.48D-06 DEPred=-1.80D-06 R= 1.38D+00
 TightC=F SS=  1.41D+00  RLast= 3.65D-03 DXNew= 5.0887D-01 1.0940D-02
 Trust test= 1.38D+00 RLast= 3.65D-03 DXMaxT set to 3.03D-01
 The second derivative matrix:
                          R1        R2        A1
           R1           0.36213
           R2          -0.01018   0.36213
           A1           0.04474   0.04474   0.11942
 ITU=  1  1  0
     Eigenvalues ---    0.10332   0.36806   0.37230
 En-DIIS/RFO-DIIS/Sim-DIIS IScMMF=       -3 using points:     3    2
 RFO step:  Lambda=-1.16374311D-06.
 DidBck=F Rises=F RFO-DIIS coefs:    1.82660   -0.82660
 Iteration  1 RMS(Cart)=  0.00170989 RMS(Int)=  0.00000213
 Iteration  2 RMS(Cart)=  0.00000226 RMS(Int)=  0.00000000
 Iteration  3 RMS(Cart)=  0.00000000 RMS(Int)=  0.00000000
 ClnCor:  largest displacement from symmetrization is 1.07D-14 for atom     3.
 Variable       Old X    -DE/DX   Delta X   Delta X   Delta X     New X
                                 (Linear)    (Quad)   (Total)
    R1        2.07800  -0.00016  -0.00151   0.00067  -0.00084   2.07716
    R2        2.07800  -0.00016  -0.00151   0.00067  -0.00084   2.07716
    A1        1.97227   0.00029   0.00213   0.00094   0.00307   1.97534
         Item               Value     Threshold  Converged?
 Maximum Force            0.000292     0.000450     YES
 RMS     Force            0.000212     0.000300     YES
 Maximum Displacement     0.001703     0.001800     YES
 RMS     Displacement     0.001709     0.001200     NO 
 Predicted change in Energy=-5.818716D-07
 GradGradGradGradGradGradGradGradGradGradGradGradGradGradGradGradGradGrad

                          Input orientation:                          
 ---------------------------------------------------------------------
 Center     Atomic      Atomic             Coordinates (Angstroms)
 Number     Number       Type             X           Y           Z
 ---------------------------------------------------------------------
      1          6           0       -3.360878   -0.415903   -0.000000
      2          1           0       -2.961165   -1.439833    0.000000
      3          1           0       -4.459485   -0.380334   -0.000000
 ---------------------------------------------------------------------
                    Distance matrix (angstroms):
                    1          2          3
     1  C    0.000000
     2  H    1.099183   0.000000
     3  H    1.099183   1.835076   0.000000
 Stoichiometry    CH2
 Framework group  C2V[C2(C),SGV(H2)]
 Deg. of freedom     2
 Full point group                 C2V     NOp   4
 Largest Abelian subgroup         C2V     NOp   4
 Largest concise Abelian subgroup C2      NOp   2
                         Standard orientation:                         
 ---------------------------------------------------------------------
 Center     Atomic      Atomic             Coordinates (Angstroms)
 Number     Number       Type             X           Y           Z
 ---------------------------------------------------------------------
      1          6           0       -0.000000   -0.000000    0.151313
      2          1           0       -0.000000    0.917538   -0.453938
      3          1           0       -0.000000   -0.917538   -0.453938
 ---------------------------------------------------------------------
 Rotational constants (GHZ):         799.3986404         297.8202022         216.9822970
 Standard basis: 6-31G(d,p) (6D, 7F)
 There are    12 symmetry adapted cartesian basis functions of A1  symmetry.
 There are     2 symmetry adapted cartesian basis functions of A2  symmetry.
 There are     4 symmetry adapted cartesian basis functions of B1  symmetry.
 There are     7 symmetry adapted cartesian basis functions of B2  symmetry.
 There are    12 symmetry adapted basis functions of A1  symmetry.
 There are     2 symmetry adapted basis functions of A2  symmetry.
 There are     4 symmetry adapted basis functions of B1  symmetry.
 There are     7 symmetry adapted basis functions of B2  symmetry.
    25 basis functions,    42 primitive gaussians,    25 cartesian basis functions
     4 alpha electrons        4 beta electrons
       nuclear repulsion energy         6.0654994027 Hartrees.
 NAtoms=    3 NActive=    3 NUniq=    2 SFac= 2.25D+00 NAtFMM=   60 NAOKFM=F Big=F
 Integral buffers will be    131072 words long.
 Raffenetti 2 integral format.
 Two-electron integral symmetry is turned on.
 One-electron integrals computed using PRISM.
 NBasis=    25 RedAO= T EigKep=  3.13D-02  NBF=    12     2     4     7
 NBsUse=    25 1.00D-06 EigRej= -1.00D+00 NBFU=    12     2     4     7
 Core hamiltonian diagonalized for initial guess.
 Mixing orbitals, IMix= 1 IMixAn=  0 NRI=1 NE=    4 Coef=  7.07106781D-01  7.07106781D-01
 Mixing orbitals, IMix= 1 IMixAn=  0 NRI=1 NE=    4 Coef= -7.07106781D-01  7.07106781D-01
 Initial guess orbital symmetries:
 Alpha Orbitals:
       Occupied  (A1) (A1) (B2) (?A)
       Virtual   (?A) (B2) (A1) (A1) (A2) (B1) (A1) (B2) (A1) (B1)
                 (A1) (B2) (A1) (B2) (B2) (A2) (B1) (A1) (A1) (B2)
                 (A1)
 Beta  Orbitals:
       Occupied  (A1) (A1) (B2) (?A)
       Virtual   (?A) (B2) (A1) (A1) (A2) (B1) (A1) (B2) (A1) (B1)
                 (A1) (B2) (A1) (B2) (B2) (A2) (B1) (A1) (A1) (B2)
                 (A1)
 Initial guess <Sx>= 0.0000 <Sy>= 0.0000 <Sz>= 0.0000 <S**2>= 1.0000 S= 0.6180
 Keep R1 and R2 ints in memory in symmetry-blocked form, NReq=916845.
 Requested convergence on RMS density matrix=1.00D-08 within 128 cycles.
 Requested convergence on MAX density matrix=1.00D-06.
 Requested convergence on             energy=1.00D-06.
 No special actions if energy rises.
 An orbital has undefined symmetry, so N**3 symmetry is turned off.
 Density matrix breaks symmetry, PCut= 1.00D-04
 Density matrix has no symmetry -- integrals replicated.
 Density matrix breaks symmetry, PCut= 1.00D-04
 Density matrix has no symmetry -- integrals replicated.
 Density matrix breaks symmetry, PCut= 1.00D-04
 Density matrix has no symmetry -- integrals replicated.
 Density matrix breaks symmetry, PCut= 1.00D-04
 Density matrix has no symmetry -- integrals replicated.
 Density matrix breaks symmetry, PCut= 1.00D-04
 Density matrix has no symmetry -- integrals replicated.
 Density matrix breaks symmetry, PCut= 1.00D-04
 Density matrix has no symmetry -- integrals replicated.
 Density matrix breaks symmetry, PCut= 1.00D-04
 Density matrix has no symmetry -- integrals replicated.
 Density matrix breaks symmetry, PCut= 1.00D-04
 Density matrix has no symmetry -- integrals replicated.
 Density matrix breaks symmetry, PCut= 1.00D-04
 Density matrix has no symmetry -- integrals replicated.
 Density matrix breaks symmetry, PCut= 1.00D-04
 Density matrix has no symmetry -- integrals replicated.
 Density matrix breaks symmetry, PCut= 1.00D-04
 Density matrix has no symmetry -- integrals replicated.
 Density matrix breaks symmetry, PCut= 1.00D-04
 Density matrix has no symmetry -- integrals replicated.
 Density matrix breaks symmetry, PCut= 1.00D-04
 Density matrix has no symmetry -- integrals replicated.
 Density matrix breaks symmetry, PCut= 1.00D-04
 Density matrix has no symmetry -- integrals replicated.
 Density matrix breaks symmetry, PCut= 1.00D-04
 Density matrix has no symmetry -- integrals replicated.
 SCF Done:  E(UB3LYP) =  -39.1434893071     A.U. after   14 cycles
            NFock= 14  Conv=0.64D-09     -V/T= 2.0087
 <Sx>= 0.0000 <Sy>= 0.0000 <Sz>= 0.0000 <S**2>= 0.7353 S= 0.4926
 <L.S>= 0.000000000000E+00
 Annihilation of the first spin contaminant:
 S**2 before annihilation     0.7353,   after     0.0050
 Density matrix is not symmetric, so symmetry will not be used here.
 Calling FoFJK, ICntrl=      2127 FMM=F ISym2X=0 I1Cent= 0 IOpClX= 1 NMat=1 NMatS=1 NMatT=0.
 ***** Axes restored to original set *****
 -------------------------------------------------------------------
 Center     Atomic                   Forces (Hartrees/Bohr)
 Number     Number              X              Y              Z
 -------------------------------------------------------------------
      1        6          -0.000000517   -0.000000731    0.000000000
      2        1           0.000033779   -0.000023337   -0.000000000
      3        1          -0.000033262    0.000024069   -0.000000000
 -------------------------------------------------------------------
 Cartesian Forces:  Max     0.000033779 RMS     0.000019357

 GradGradGradGradGradGradGradGradGradGradGradGradGradGradGradGradGradGrad
 Berny optimization.
 Using GEDIIS/GDIIS optimizer.
 FormGI is forming the generalized inverse of G from B-inverse, IUseBI=4.
 Internal  Forces:  Max     0.000047733 RMS     0.000039130
 Search for a local minimum.
 Step number   4 out of a maximum of   20
 All quantities printed in internal units (Hartrees-Bohrs-Radians)
 Mixed Optimization -- En-DIIS/RFO-DIIS
 Swapping is turned off.
 Update second derivatives using D2CorX and points    1    2    3    4
 DE= -6.26D-07 DEPred=-5.82D-07 R= 1.08D+00
 Trust test= 1.08D+00 RLast= 3.30D-03 DXMaxT set to 3.03D-01
 The second derivative matrix:
                          R1        R2        A1
           R1           0.35807
           R2          -0.01423   0.35807
           A1           0.03146   0.03146   0.09662
 ITU=  0  1  1  0
     Eigenvalues ---    0.08885   0.35161   0.37230
 En-DIIS/RFO-DIIS/Sim-DIIS IScMMF=       -3 using points:     4    3    2
 RFO step:  Lambda=-2.56951730D-08.
 DIIS inversion failure, remove point   3.
 RFO-DIIS uses    2 points instead of    3
 DidBck=F Rises=F RFO-DIIS coefs:    1.12040   -0.12040    0.00000
 Iteration  1 RMS(Cart)=  0.00030525 RMS(Int)=  0.00000004
 Iteration  2 RMS(Cart)=  0.00000004 RMS(Int)=  0.00000000
 ClnCor:  largest displacement from symmetrization is 1.11D-15 for atom     1.
 Variable       Old X    -DE/DX   Delta X   Delta X   Delta X     New X
                                 (Linear)    (Quad)   (Total)
    R1        2.07716   0.00003  -0.00010   0.00016   0.00006   2.07721
    R2        2.07716   0.00003  -0.00010   0.00016   0.00006   2.07721
    A1        1.97534   0.00005   0.00037   0.00009   0.00046   1.97580
         Item               Value     Threshold  Converged?
 Maximum Force            0.000048     0.000450     YES
 RMS     Force            0.000039     0.000300     YES
 Maximum Displacement     0.000322     0.001800     YES
 RMS     Displacement     0.000305     0.001200     YES
 Predicted change in Energy=-1.284759D-08
 Optimization completed.
    -- Stationary point found.
                           ----------------------------
                           !   Optimized Parameters   !
                           ! (Angstroms and Degrees)  !
 --------------------------                            --------------------------
 ! Name  Definition              Value          Derivative Info.                !
 --------------------------------------------------------------------------------
 ! R1    R(1,2)                  1.0992         -DE/DX =    0.0                 !
 ! R2    R(1,3)                  1.0992         -DE/DX =    0.0                 !
 ! A1    A(2,1,3)              113.1786         -DE/DX =    0.0                 !
 --------------------------------------------------------------------------------
 GradGradGradGradGradGradGradGradGradGradGradGradGradGradGradGradGradGrad

                          Input orientation:                          
 ---------------------------------------------------------------------
 Center     Atomic      Atomic             Coordinates (Angstroms)
 Number     Number       Type             X           Y           Z
 ---------------------------------------------------------------------
      1          6           0       -3.360878   -0.415903   -0.000000
      2          1           0       -2.961165   -1.439833    0.000000
      3          1           0       -4.459485   -0.380334   -0.000000
 ---------------------------------------------------------------------
                    Distance matrix (angstroms):
                    1          2          3
     1  C    0.000000
     2  H    1.099183   0.000000
     3  H    1.099183   1.835076   0.000000
 Stoichiometry    CH2
 Framework group  C2V[C2(C),SGV(H2)]
 Deg. of freedom     2
 Full point group                 C2V     NOp   4
 Largest Abelian subgroup         C2V     NOp   4
 Largest concise Abelian subgroup C2      NOp   2
                         Standard orientation:                         
 ---------------------------------------------------------------------
 Center     Atomic      Atomic             Coordinates (Angstroms)
 Number     Number       Type             X           Y           Z
 ---------------------------------------------------------------------
      1          6           0       -0.000000   -0.000000    0.151313
      2          1           0       -0.000000    0.917538   -0.453938
      3          1           0       -0.000000   -0.917538   -0.453938
 ---------------------------------------------------------------------
 Rotational constants (GHZ):         799.3986404         297.8202022         216.9822970
 SCF density gives NOpUse=  1 NOpAll=  4.

 **********************************************************************

            Population analysis using the SCF density.

 **********************************************************************

 Orbital symmetries:
 Alpha Orbitals:
       Occupied  (A1) (B2) (B2) (B2)
       Virtual   (B2) (B2) (?A) (B2) (B2) (B2) (B2) (?A) (B2) (?A)
                 (B2) (B2) (B2) (?A) (?A) (B2) (?A) (B2) (B2) (B2)
                 (A1)
 Beta  Orbitals:
       Occupied  (A1) (B2) (B2) (B2)
       Virtual   (B2) (B2) (?A) (B2) (B2) (B2) (B2) (?A) (B2) (?A)
                 (B2) (B2) (B2) (?A) (?A) (B2) (?A) (B2) (B2) (B2)
                 (A1)
 Unable to determine electronic state:  partially filled degenerate orbitals.
 Alpha  occ. eigenvalues --  -10.22873  -0.65019  -0.41660  -0.25468
 Alpha virt. eigenvalues --   -0.08833   0.12394   0.17558   0.53727   0.54698
 Alpha virt. eigenvalues --    0.58898   0.68991   0.86395   0.90514   1.44780
 Alpha virt. eigenvalues --    1.50859   1.58926   1.94987   1.98087   2.23719
 Alpha virt. eigenvalues --    2.40572   2.50164   2.71746   3.20034   3.37124
 Alpha virt. eigenvalues --    4.12784
  Beta  occ. eigenvalues --  -10.22873  -0.65019  -0.41660  -0.25468
  Beta virt. eigenvalues --   -0.08833   0.12394   0.17558   0.53727   0.54698
  Beta virt. eigenvalues --    0.58898   0.68991   0.86395   0.90514   1.44780
  Beta virt. eigenvalues --    1.50859   1.58926   1.94987   1.98087   2.23719
  Beta virt. eigenvalues --    2.40572   2.50164   2.71746   3.20034   3.37124
  Beta virt. eigenvalues --    4.12784
          Condensed to atoms (all electrons):
               1          2          3
     1  C    5.580867   0.326753   0.326753
     2  H    0.326753   0.599472  -0.043411
     3  H    0.326753  -0.043411   0.599472
          Atomic-Atomic Spin Densities.
               1          2          3
     1  C   -0.000000   0.000000   0.000000
     2  H    0.000000   0.000000  -0.000000
     3  H    0.000000  -0.000000  -0.000000
 Mulliken charges and spin densities:
               1          2
     1  C   -0.234373  -0.000000
     2  H    0.117186   0.000000
     3  H    0.117186  -0.000000
 Sum of Mulliken charges =  -0.00000  -0.00000
 Mulliken charges and spin densities with hydrogens summed into heavy atoms:
               1          2
     1  C   -0.000000  -0.000000
 Electronic spatial extent (au):  <R**2>=             24.0006
 Charge=             -0.0000 electrons
 Dipole moment (field-independent basis, Debye):
    X=              0.0000    Y=             -0.0000    Z=             -1.2708  Tot=              1.2708
 Quadrupole moment (field-independent basis, Debye-Ang):
   XX=             -6.9126   YY=             -6.4689   ZZ=             -8.1734
   XY=              0.0000   XZ=             -0.0000   YZ=              0.0000
 Traceless Quadrupole moment (field-independent basis, Debye-Ang):
   XX=              0.2724   YY=              0.7161   ZZ=             -0.9884
   XY=              0.0000   XZ=             -0.0000   YZ=              0.0000
 Octapole moment (field-independent basis, Debye-Ang**2):
  XXX=              0.0000  YYY=             -0.0000  ZZZ=             -1.8618  XYY=             -0.0000
  XXY=             -0.0000  XXZ=             -0.3947  XZZ=             -0.0000  YZZ=             -0.0000
  YYZ=             -0.9825  XYZ=             -0.0000
 Hexadecapole moment (field-independent basis, Debye-Ang**3):
 XXXX=             -6.5546 YYYY=            -13.8068 ZZZZ=            -12.1450 XXXY=              0.0000
 XXXZ=             -0.0000 YYYX=              0.0000 YYYZ=              0.0000 ZZZX=             -0.0000
 ZZZY=              0.0000 XXYY=             -3.6708 XXZZ=             -3.1219 YYZZ=             -4.1444
 XXYZ=              0.0000 YYXZ=             -0.0000 ZZXY=              0.0000
 N-N= 6.065499402683D+00 E-N=-1.025877831731D+02  KE= 3.880639593873D+01
 Symmetry A1   KE= 3.625167618419D+01
 Symmetry A2   KE= 1.760721849788D-04
 Symmetry B1   KE= 5.857410137088D-01
 Symmetry B2   KE= 1.968802668647D+00
 Symmetry A1   SP=-7.234335646059D-15
 Symmetry A2   SP= 4.073395021467D-18
 Symmetry B1   SP= 1.440694989360D-15
 Symmetry B2   SP=-4.978095263719D-15
                          Isotropic Fermi Contact Couplings
        Atom                 a.u.       MegaHertz       Gauss      10(-4) cm-1
     1  C(13)             -0.00000      -0.00000      -0.00000      -0.00000
     2  H(1)              -0.00000      -0.00000      -0.00000      -0.00000
     3  H(1)              -0.00000      -0.00000      -0.00000      -0.00000
 --------------------------------------------------------
       Center         ----  Spin Dipole Couplings  ----
                      3XX-RR        3YY-RR        3ZZ-RR
 --------------------------------------------------------
     1   Atom        0.000000     -0.000000      0.000000
     2   Atom        0.000000     -0.000000     -0.000000
     3   Atom        0.000000     -0.000000     -0.000000
 --------------------------------------------------------
                        XY            XZ            YZ
 --------------------------------------------------------
     1   Atom       -0.000000      1.281762      0.000000
     2   Atom        0.022276      0.037629      0.000000
     3   Atom       -0.022276      0.037629     -0.000000
 --------------------------------------------------------


 ---------------------------------------------------------------------------------
              Anisotropic Spin Dipole Couplings in Principal Axis System
 ---------------------------------------------------------------------------------

       Atom             a.u.   MegaHertz   Gauss  10(-4) cm-1        Axes

              Baa    -1.2818  -172.000   -61.374   -57.373  0.7071  0.0000 -0.7071
     1 C(13)  Bbb    -0.0000    -0.000    -0.000    -0.000 -0.0000  1.0000  0.0000
              Bcc     1.2818   172.000    61.374    57.373  0.7071 -0.0000  0.7071
 
              Baa    -0.0437   -23.332    -8.325    -7.783  0.7071 -0.3602 -0.6085
     2 H(1)   Bbb    -0.0000    -0.000    -0.000    -0.000 -0.0000  0.8605 -0.5094
              Bcc     0.0437    23.332     8.325     7.783  0.7071  0.3602  0.6085
 
              Baa    -0.0437   -23.332    -8.325    -7.783  0.7071  0.3602 -0.6085
     3 H(1)   Bbb    -0.0000    -0.000    -0.000    -0.000  0.0000  0.8605  0.5094
              Bcc     0.0437    23.332     8.325     7.783  0.7071 -0.3602  0.6085
 

 ---------------------------------------------------------------------------------

 1\1\GINC-RUSTAMS-MACBOOK-AIR\FOpt\UB3LYP\6-31G(d,p)\C1H2\RUSTAM\08-May
 -2019\0\\# opt ub3lyp/6-31g(d,p) guess=(core,mix,always)\\Title Card R
 equired\\0,1\C,-3.3608775322,-0.4159025852,0.\H,-2.9611652797,-1.43983
 33155,0.\H,-4.4594852301,-0.380333621,0.\\Version=EM64M-G16RevA.03\HF=
 -39.1434893\S2=0.735263\S2-1=0.\S2A=0.004987\RMSD=6.424e-10\RMSF=1.936
 e-05\Dipole=-0.2886533,-0.4082068,0.\Quadrupole=0.1099397,-0.3124424,0
 .2025027,-0.5973851,0.,0.\PG=C02V [C2(C1),SGV(H2)]\\@


 KNOWING HOW CONTENTED, FREE, AND JOYFUL IS LIFE IN
 THE REALMS OF SCIENCE, ONE FERVENTLY WISHES THAT
 MANY WOULD ENTER HER PORTALS.
   --  DMITRI IVANOVICH MENDELEEV
 "FIRST PRINCIPLES OF CHEMISTRY", LONGMANS, GREEN,
 AND CO.  LONDON, 1891
 Job cpu time:       0 days  0 hours  0 minutes 19.6 seconds.
 Elapsed time:       0 days  0 hours  0 minutes 24.3 seconds.
 File lengths (MBytes):  RWF=      6 Int=      0 D2E=      0 Chk=      1 Scr=      1
 Normal termination of Gaussian 16 at Wed May  8 11:05:55 2019.
