 Entering Gaussian System, Link 0=g16
 Input=/Users/rustam/Documents/Projects/Collaborations/Li-Colab/GaN-carbene/methanol.gjf
 Output=/Users/rustam/Documents/Projects/Collaborations/Li-Colab/GaN-carbene/methanol.log
 Initial command:
 /Applications/G16/g16/l1.exe "/Users/rustam/G16-scratch/Gau-86547.inp" -scrdir="/Users/rustam/G16-scratch/"
 Entering Link 1 = /Applications/G16/g16/l1.exe PID=     86548.
  
 Copyright (c) 1988,1990,1992,1993,1995,1998,2003,2009,2016,
            Gaussian, Inc.  All Rights Reserved.
  
 This is part of the Gaussian(R) 16 program.  It is based on
 the Gaussian(R) 09 system (copyright 2009, Gaussian, Inc.),
 the Gaussian(R) 03 system (copyright 2003, Gaussian, Inc.),
 the Gaussian(R) 98 system (copyright 1998, Gaussian, Inc.),
 the Gaussian(R) 94 system (copyright 1995, Gaussian, Inc.),
 the Gaussian 92(TM) system (copyright 1992, Gaussian, Inc.),
 the Gaussian 90(TM) system (copyright 1990, Gaussian, Inc.),
 the Gaussian 88(TM) system (copyright 1988, Gaussian, Inc.),
 the Gaussian 86(TM) system (copyright 1986, Carnegie Mellon
 University), and the Gaussian 82(TM) system (copyright 1983,
 Carnegie Mellon University). Gaussian is a federally registered
 trademark of Gaussian, Inc.
  
 This software contains proprietary and confidential information,
 including trade secrets, belonging to Gaussian, Inc.
  
 This software is provided under written license and may be
 used, copied, transmitted, or stored only in accord with that
 written license.
  
 The following legend is applicable only to US Government
 contracts under FAR:
  
                    RESTRICTED RIGHTS LEGEND
  
 Use, reproduction and disclosure by the US Government is
 subject to restrictions as set forth in subparagraphs (a)
 and (c) of the Commercial Computer Software - Restricted
 Rights clause in FAR 52.227-19.
  
 Gaussian, Inc.
 340 Quinnipiac St., Bldg. 40, Wallingford CT 06492
  
  
 ---------------------------------------------------------------
 Warning -- This program may not be used in any manner that
 competes with the business of Gaussian, Inc. or will provide
 assistance to any competitor of Gaussian, Inc.  The licensee
 of this program is prohibited from giving any competitor of
 Gaussian, Inc. access to this program.  By using this program,
 the user acknowledges that Gaussian, Inc. is engaged in the
 business of creating and licensing software in the field of
 computational chemistry and represents and warrants to the
 licensee that it is not a competitor of Gaussian, Inc. and that
 it will not use this program in any manner prohibited above.
 ---------------------------------------------------------------
  

 Cite this work as:
 Gaussian 16, Revision A.03,
 M. J. Frisch, G. W. Trucks, H. B. Schlegel, G. E. Scuseria, 
 M. A. Robb, J. R. Cheeseman, G. Scalmani, V. Barone, 
 G. A. Petersson, H. Nakatsuji, X. Li, M. Caricato, A. V. Marenich, 
 J. Bloino, B. G. Janesko, R. Gomperts, B. Mennucci, H. P. Hratchian, 
 J. V. Ortiz, A. F. Izmaylov, J. L. Sonnenberg, D. Williams-Young, 
 F. Ding, F. Lipparini, F. Egidi, J. Goings, B. Peng, A. Petrone, 
 T. Henderson, D. Ranasinghe, V. G. Zakrzewski, J. Gao, N. Rega, 
 G. Zheng, W. Liang, M. Hada, M. Ehara, K. Toyota, R. Fukuda, 
 J. Hasegawa, M. Ishida, T. Nakajima, Y. Honda, O. Kitao, H. Nakai, 
 T. Vreven, K. Throssell, J. A. Montgomery, Jr., J. E. Peralta, 
 F. Ogliaro, M. J. Bearpark, J. J. Heyd, E. N. Brothers, K. N. Kudin, 
 V. N. Staroverov, T. A. Keith, R. Kobayashi, J. Normand, 
 K. Raghavachari, A. P. Rendell, J. C. Burant, S. S. Iyengar, 
 J. Tomasi, M. Cossi, J. M. Millam, M. Klene, C. Adamo, R. Cammi, 
 J. W. Ochterski, R. L. Martin, K. Morokuma, O. Farkas, 
 J. B. Foresman, and D. J. Fox, Gaussian, Inc., Wallingford CT, 2016.
 
 ******************************************
 Gaussian 16:  EM64M-G16RevA.03 25-Dec-2016
                 8-May-2019 
 ******************************************
 %mem=4GB
 %chk=methanol.chk
 -----------------------------------------------
 # opt ub3lyp/6-31g(d,p) guess=(core,mix,always)
 -----------------------------------------------
 1/18=20,19=15,26=3,38=1/1,3;
 2/9=110,12=2,17=6,18=5,40=1/2;
 3/5=1,6=6,7=101,11=2,25=1,30=1,71=1,74=-5,116=2/1,2,3;
 4/5=2,13=-1/1;
 5/5=2,38=5/2;
 6/7=2,8=2,9=2,10=2,28=1/1;
 7//1,2,3,16;
 1/18=20,19=15,26=3/3(2);
 2/9=110/2;
 99//99;
 2/9=110/2;
 3/5=1,6=6,7=101,11=2,25=1,30=1,71=1,74=-5,116=2/1,2,3;
 4/5=2,13=-1/1;
 5/5=2,38=5/2;
 7//1,2,3,16;
 1/18=20,19=15,26=3/3(-5);
 2/9=110/2;
 6/7=2,8=2,9=2,10=2,19=2,28=1/1;
 99/9=1/99;
 -------------------
 Title Card Required
 -------------------
 Symbolic Z-matrix:
 Charge =  0 Multiplicity = 1
 C                    -3.35606  -0.40909   0. 
 H                    -2.99941  -1.4179    0. 
 H                    -2.99939   0.09531  -0.87365 
 H                    -4.42606  -0.40908   0. 
 O                    -2.87939   0.26501   1.16759 
 H                    -3.19773   1.17069   1.16714 
 

 GradGradGradGradGradGradGradGradGradGradGradGradGradGradGradGradGradGrad
 Berny optimization.
 Initialization pass.
                           ----------------------------
                           !    Initial Parameters    !
                           ! (Angstroms and Degrees)  !
 --------------------------                            --------------------------
 ! Name  Definition              Value          Derivative Info.                !
 --------------------------------------------------------------------------------
 ! R1    R(1,2)                  1.07           estimate D2E/DX2                !
 ! R2    R(1,3)                  1.07           estimate D2E/DX2                !
 ! R3    R(1,4)                  1.07           estimate D2E/DX2                !
 ! R4    R(1,5)                  1.43           estimate D2E/DX2                !
 ! R5    R(5,6)                  0.96           estimate D2E/DX2                !
 ! A1    A(2,1,3)              109.4712         estimate D2E/DX2                !
 ! A2    A(2,1,4)              109.4712         estimate D2E/DX2                !
 ! A3    A(2,1,5)              109.4712         estimate D2E/DX2                !
 ! A4    A(3,1,4)              109.4712         estimate D2E/DX2                !
 ! A5    A(3,1,5)              109.4713         estimate D2E/DX2                !
 ! A6    A(4,1,5)              109.4712         estimate D2E/DX2                !
 ! A7    A(1,5,6)              109.5            estimate D2E/DX2                !
 ! D1    D(2,1,5,6)            179.8898         estimate D2E/DX2                !
 ! D2    D(3,1,5,6)             59.8898         estimate D2E/DX2                !
 ! D3    D(4,1,5,6)            -60.1102         estimate D2E/DX2                !
 --------------------------------------------------------------------------------
 Trust Radius=3.00D-01 FncErr=1.00D-07 GrdErr=1.00D-06 EigMax=2.50D+02 EigMin=1.00D-04
 Number of steps in this run=     25 maximum allowed number of steps=    100.
 GradGradGradGradGradGradGradGradGradGradGradGradGradGradGradGradGradGrad

                          Input orientation:                          
 ---------------------------------------------------------------------
 Center     Atomic      Atomic             Coordinates (Angstroms)
 Number     Number       Type             X           Y           Z
 ---------------------------------------------------------------------
      1          6           0       -3.356061   -0.409091    0.000000
      2          1           0       -2.999406   -1.417901    0.000000
      3          1           0       -2.999388    0.095307   -0.873652
      4          1           0       -4.426061   -0.409078    0.000000
      5          8           0       -2.879386    0.265011    1.167590
      6          1           0       -3.197725    1.170693    1.167138
 ---------------------------------------------------------------------
                    Distance matrix (angstroms):
                    1          2          3          4          5
     1  C    0.000000
     2  H    1.070000   0.000000
     3  H    1.070000   1.747302   0.000000
     4  H    1.070000   1.747303   1.747303   0.000000
     5  O    1.430000   2.051796   2.051796   2.051796   0.000000
     6  H    1.970533   2.846465   2.315300   2.316613   0.960000
                    6
     6  H    0.000000
 Stoichiometry    CH4O
 Framework group  C1[X(CH4O)]
 Deg. of freedom    12
 Full point group                 C1      NOp   1
 Largest Abelian subgroup         C1      NOp   1
 Largest concise Abelian subgroup C1      NOp   1
                         Standard orientation:                         
 ---------------------------------------------------------------------
 Center     Atomic      Atomic             Coordinates (Angstroms)
 Number     Number       Type             X           Y           Z
 ---------------------------------------------------------------------
      1          6           0        0.674962   -0.019120    0.000000
      2          1           0        1.133309    0.947738   -0.001940
      3          1           0        0.977790   -0.559143   -0.872680
      4          1           0        0.978134   -0.555801    0.874620
      5          8           0       -0.747482    0.127687    0.000000
      6          1           0       -1.159146   -0.739570   -0.000000
 ---------------------------------------------------------------------
 Rotational constants (GHZ):         132.1395233          24.7235151          23.8511686
 Standard basis: 6-31G(d,p) (6D, 7F)
 There are    50 symmetry adapted cartesian basis functions of A   symmetry.
 There are    50 symmetry adapted basis functions of A   symmetry.
    50 basis functions,    84 primitive gaussians,    50 cartesian basis functions
     9 alpha electrons        9 beta electrons
       nuclear repulsion energy        40.4269940083 Hartrees.
 NAtoms=    6 NActive=    6 NUniq=    6 SFac= 1.00D+00 NAtFMM=   60 NAOKFM=F Big=F
 Integral buffers will be    131072 words long.
 Raffenetti 2 integral format.
 Two-electron integral symmetry is turned on.
 One-electron integrals computed using PRISM.
 NBasis=    50 RedAO= T EigKep=  9.20D-03  NBF=    50
 NBsUse=    50 1.00D-06 EigRej= -1.00D+00 NBFU=    50
 Core hamiltonian diagonalized for initial guess.
 Mixing orbitals, IMix= 1 IMixAn=  0 NRI=1 NE=    9 Coef=  7.07106781D-01  7.07106781D-01
 Mixing orbitals, IMix= 1 IMixAn=  0 NRI=1 NE=    9 Coef= -7.07106781D-01  7.07106781D-01
 Initial guess <Sx>= 0.0000 <Sy>= 0.0000 <Sz>= 0.0000 <S**2>= 1.0000 S= 0.6180
 Keep R1 and R2 ints in memory in canonical form, NReq=2498877.
 Requested convergence on RMS density matrix=1.00D-08 within 128 cycles.
 Requested convergence on MAX density matrix=1.00D-06.
 Requested convergence on             energy=1.00D-06.
 No special actions if energy rises.
 Integral accuracy reduced to 1.0D-05 until final iterations.
 EnCoef did   100 forward-backward iterations
 Initial convergence to 1.0D-05 achieved.  Increase integral accuracy.
 SCF Done:  E(UB3LYP) =  -115.721364229     A.U. after   16 cycles
            NFock= 16  Conv=0.64D-08     -V/T= 2.0079
 <Sx>= 0.0000 <Sy>= 0.0000 <Sz>= 0.0000 <S**2>=-0.0000 S=-0.0000
 <L.S>= 0.000000000000E+00
 Annihilation of the first spin contaminant:
 S**2 before annihilation    -0.0000,   after    -0.0000

 **********************************************************************

            Population analysis using the SCF density.

 **********************************************************************

 Orbital symmetries:
 Alpha Orbitals:
       Occupied  (A) (A) (A) (A) (A) (A) (A) (A) (A)
       Virtual   (A) (A) (A) (A) (A) (A) (A) (A) (A) (A) (A) (A)
                 (A) (A) (A) (A) (A) (A) (A) (A) (A) (A) (A) (A)
                 (A) (A) (A) (A) (A) (A) (A) (A) (A) (A) (A) (A)
                 (A) (A) (A) (A) (A)
 Beta  Orbitals:
       Occupied  (A) (A) (A) (A) (A) (A) (A) (A) (A)
       Virtual   (A) (A) (A) (A) (A) (A) (A) (A) (A) (A) (A) (A)
                 (A) (A) (A) (A) (A) (A) (A) (A) (A) (A) (A) (A)
                 (A) (A) (A) (A) (A) (A) (A) (A) (A) (A) (A) (A)
                 (A) (A) (A) (A) (A)
 The electronic state is 1-A.
 Alpha  occ. eigenvalues --  -19.13323 -10.21741  -1.00348  -0.68461  -0.49746
 Alpha  occ. eigenvalues --   -0.43915  -0.42485  -0.32471  -0.26079
 Alpha virt. eigenvalues --    0.07798   0.13723   0.17800   0.18061   0.20050
 Alpha virt. eigenvalues --    0.53040   0.55483   0.56057   0.77258   0.84988
 Alpha virt. eigenvalues --    0.85234   0.90348   0.94616   0.95971   1.01879
 Alpha virt. eigenvalues --    1.07945   1.35705   1.39678   1.54380   1.60333
 Alpha virt. eigenvalues --    1.80698   1.97024   1.98224   2.04133   2.07383
 Alpha virt. eigenvalues --    2.08412   2.33795   2.40451   2.53743   2.58752
 Alpha virt. eigenvalues --    2.69593   2.74127   2.80258   2.90207   2.98878
 Alpha virt. eigenvalues --    3.24337   3.38616   3.46069   3.54425   3.83667
 Alpha virt. eigenvalues --    4.41356
  Beta  occ. eigenvalues --  -19.13323 -10.21741  -1.00348  -0.68461  -0.49746
  Beta  occ. eigenvalues --   -0.43915  -0.42485  -0.32471  -0.26079
  Beta virt. eigenvalues --    0.07798   0.13723   0.17800   0.18061   0.20050
  Beta virt. eigenvalues --    0.53040   0.55483   0.56057   0.77258   0.84988
  Beta virt. eigenvalues --    0.85234   0.90348   0.94616   0.95971   1.01879
  Beta virt. eigenvalues --    1.07945   1.35705   1.39678   1.54380   1.60333
  Beta virt. eigenvalues --    1.80698   1.97024   1.98224   2.04133   2.07383
  Beta virt. eigenvalues --    2.08412   2.33795   2.40451   2.53743   2.58752
  Beta virt. eigenvalues --    2.69593   2.74127   2.80258   2.90207   2.98878
  Beta virt. eigenvalues --    3.24337   3.38616   3.46069   3.54425   3.83667
  Beta virt. eigenvalues --    4.41356
          Condensed to atoms (all electrons):
               1          2          3          4          5          6
     1  C    4.682901   0.400409   0.382888   0.382888   0.253312  -0.030546
     2  H    0.400409   0.580178  -0.038664  -0.038724  -0.033413   0.006428
     3  H    0.382888  -0.038664   0.653788  -0.049506  -0.038663  -0.005550
     4  H    0.382888  -0.038724  -0.049506   0.653831  -0.038728  -0.005497
     5  O    0.253312  -0.033413  -0.038663  -0.038728   8.117457   0.287682
     6  H   -0.030546   0.006428  -0.005550  -0.005497   0.287682   0.443214
          Atomic-Atomic Spin Densities.
               1          2          3          4          5          6
     1  C   -0.000000  -0.000000  -0.000000   0.000000  -0.000000   0.000000
     2  H   -0.000000  -0.000000   0.000000  -0.000000   0.000000  -0.000000
     3  H   -0.000000   0.000000   0.000000  -0.000000  -0.000000   0.000000
     4  H    0.000000  -0.000000  -0.000000  -0.000000   0.000000  -0.000000
     5  O   -0.000000   0.000000  -0.000000   0.000000   0.000000   0.000000
     6  H    0.000000  -0.000000   0.000000  -0.000000   0.000000  -0.000000
 Mulliken charges and spin densities:
               1          2
     1  C   -0.071852  -0.000000
     2  H    0.123786  -0.000000
     3  H    0.095706   0.000000
     4  H    0.095736  -0.000000
     5  O   -0.547646   0.000000
     6  H    0.304269  -0.000000
 Sum of Mulliken charges =  -0.00000  -0.00000
 Mulliken charges and spin densities with hydrogens summed into heavy atoms:
               1          2
     1  C    0.243377  -0.000000
     5  O   -0.243377   0.000000
 Electronic spatial extent (au):  <R**2>=             83.3290
 Charge=             -0.0000 electrons
 Dipole moment (field-independent basis, Debye):
    X=              0.8063    Y=             -1.5103    Z=             -0.0003  Tot=              1.7121
 Quadrupole moment (field-independent basis, Debye-Ang):
   XX=            -12.3717   YY=            -11.9754   ZZ=            -13.4278
   XY=              2.2797   XZ=             -0.0005   YZ=             -0.0002
 Traceless Quadrupole moment (field-independent basis, Debye-Ang):
   XX=              0.2199   YY=              0.6162   ZZ=             -0.8361
   XY=              2.2797   XZ=             -0.0005   YZ=             -0.0002
 Octapole moment (field-independent basis, Debye-Ang**2):
  XXX=             -4.6171  YYY=             -0.5415  ZZZ=              0.0017  XYY=             -1.7234
  XXY=             -2.0667  XXZ=             -0.0008  XZZ=             -0.5956  YZZ=             -0.5110
  YYZ=             -0.0026  XYZ=             -0.0006
 Hexadecapole moment (field-independent basis, Debye-Ang**3):
 XXXX=            -58.9015 YYYY=            -18.9856 ZZZZ=            -18.3894 XXXY=              3.9165
 XXXZ=             -0.0013 YYYX=              2.6171 YYYZ=             -0.0001 ZZZX=              0.0018
 ZZZY=             -0.0003 XXYY=            -11.9275 XXZZ=            -13.6614 YYZZ=             -6.3336
 XXYZ=             -0.0011 YYXZ=             -0.0030 ZZXY=             -0.0189
 N-N= 4.042699400834D+01 E-N=-3.521074834894D+02  KE= 1.148157424399D+02
                          Isotropic Fermi Contact Couplings
        Atom                 a.u.       MegaHertz       Gauss      10(-4) cm-1
     1  C(13)             -0.00000      -0.00000      -0.00000      -0.00000
     2  H(1)              -0.00000      -0.00000      -0.00000      -0.00000
     3  H(1)              -0.00000      -0.00000      -0.00000      -0.00000
     4  H(1)               0.00000       0.00000       0.00000       0.00000
     5  O(17)              0.00000      -0.00000      -0.00000      -0.00000
     6  H(1)              -0.00000      -0.00000      -0.00000      -0.00000
 --------------------------------------------------------
       Center         ----  Spin Dipole Couplings  ----
                      3XX-RR        3YY-RR        3ZZ-RR
 --------------------------------------------------------
     1   Atom       -0.000000      0.000000     -0.000000
     2   Atom        0.000000     -0.000000      0.000000
     3   Atom        0.000000     -0.000000     -0.000000
     4   Atom       -0.000000      0.000000      0.000000
     5   Atom        0.000000      0.000000     -0.000000
     6   Atom       -0.000000      0.000000     -0.000000
 --------------------------------------------------------
                        XY            XZ            YZ
 --------------------------------------------------------
     1   Atom        0.000000      0.000000      0.000000
     2   Atom       -0.000000     -0.000000     -0.000000
     3   Atom        0.000000      0.000000     -0.000000
     4   Atom       -0.000000      0.000000     -0.000000
     5   Atom        0.000000      0.000000      0.000000
     6   Atom        0.000000      0.000000     -0.000000
 --------------------------------------------------------


 ---------------------------------------------------------------------------------
              Anisotropic Spin Dipole Couplings in Principal Axis System
 ---------------------------------------------------------------------------------

       Atom             a.u.   MegaHertz   Gauss  10(-4) cm-1        Axes

              Baa    -0.0000    -0.000    -0.000    -0.000 -0.6105 -0.3550  0.7080
     1 C(13)  Bbb     0.0000     0.000     0.000     0.000 -0.5074  0.8617 -0.0055
              Bcc     0.0000     0.000     0.000     0.000  0.6081  0.3626  0.7062
 
              Baa    -0.0000    -0.000    -0.000    -0.000  0.3061  0.6387  0.7060
     2 H(1)   Bbb     0.0000     0.000     0.000     0.000  0.9010 -0.4337  0.0017
              Bcc     0.0000     0.000     0.000     0.000 -0.3073 -0.6356  0.7082
 
              Baa    -0.0000    -0.000    -0.000    -0.000 -0.1581  0.7928  0.5887
     3 H(1)   Bbb     0.0000     0.000     0.000     0.000  0.7136 -0.3203  0.6230
              Bcc     0.0000     0.000     0.000     0.000  0.6824  0.5186 -0.5151
 
              Baa    -0.0000    -0.000    -0.000    -0.000  0.7002  0.5147  0.4947
     4 H(1)   Bbb    -0.0000    -0.000    -0.000    -0.000  0.6960 -0.3376 -0.6338
              Bcc     0.0000     0.000     0.000     0.000 -0.1592  0.7881 -0.5946
 
              Baa    -0.0000     0.000     0.000     0.000 -0.5834 -0.3956  0.7093
     5 O(17)  Bbb     0.0000    -0.000    -0.000    -0.000 -0.5642  0.8256 -0.0035
              Bcc     0.0000    -0.000    -0.000    -0.000  0.5842  0.4023  0.7049
 
              Baa    -0.0000    -0.000    -0.000    -0.000 -0.1212  0.6692  0.7332
     6 H(1)   Bbb    -0.0000    -0.000    -0.000    -0.000  0.9925  0.0711  0.0992
              Bcc     0.0000     0.000     0.000     0.000  0.0142  0.7397 -0.6728
 

 ---------------------------------------------------------------------------------

 Calling FoFJK, ICntrl=      2127 FMM=F ISym2X=0 I1Cent= 0 IOpClX= 1 NMat=1 NMatS=1 NMatT=0.
 ***** Axes restored to original set *****
 -------------------------------------------------------------------
 Center     Atomic                   Forces (Hartrees/Bohr)
 Number     Number              X              Y              Z
 -------------------------------------------------------------------
      1        6           0.004070165    0.023309660    0.020085404
      2        1           0.006846237   -0.013324347    0.003488037
      3        1           0.004732620    0.004610965   -0.020017331
      4        1          -0.020100518   -0.004159225   -0.004812533
      5        8           0.007811723   -0.013354401    0.005064849
      6        1          -0.003360227    0.002917348   -0.003808425
 -------------------------------------------------------------------
 Cartesian Forces:  Max     0.023309660 RMS     0.011518271

 GradGradGradGradGradGradGradGradGradGradGradGradGradGradGradGradGradGrad
 Berny optimization.
 FormGI is forming the generalized inverse of G from B-inverse, IUseBI=4.
 Internal  Forces:  Max     0.020100542 RMS     0.009849271
 Search for a local minimum.
 Step number   1 out of a maximum of   25
 All quantities printed in internal units (Hartrees-Bohrs-Radians)
 Mixed Optimization -- RFO/linear search
 Second derivative matrix not updated -- first step.
 The second derivative matrix:
                          R1        R2        R3        R4        R5
           R1           0.37230
           R2           0.00000   0.37230
           R3           0.00000   0.00000   0.37230
           R4           0.00000   0.00000   0.00000   0.40989
           R5           0.00000   0.00000   0.00000   0.00000   0.55473
           A1           0.00000   0.00000   0.00000   0.00000   0.00000
           A2           0.00000   0.00000   0.00000   0.00000   0.00000
           A3           0.00000   0.00000   0.00000   0.00000   0.00000
           A4           0.00000   0.00000   0.00000   0.00000   0.00000
           A5           0.00000   0.00000   0.00000   0.00000   0.00000
           A6           0.00000   0.00000   0.00000   0.00000   0.00000
           A7           0.00000   0.00000   0.00000   0.00000   0.00000
           D1           0.00000   0.00000   0.00000   0.00000   0.00000
           D2           0.00000   0.00000   0.00000   0.00000   0.00000
           D3           0.00000   0.00000   0.00000   0.00000   0.00000
                          A1        A2        A3        A4        A5
           A1           0.16000
           A2           0.00000   0.16000
           A3           0.00000   0.00000   0.16000
           A4           0.00000   0.00000   0.00000   0.16000
           A5           0.00000   0.00000   0.00000   0.00000   0.16000
           A6           0.00000   0.00000   0.00000   0.00000   0.00000
           A7           0.00000   0.00000   0.00000   0.00000   0.00000
           D1           0.00000   0.00000   0.00000   0.00000   0.00000
           D2           0.00000   0.00000   0.00000   0.00000   0.00000
           D3           0.00000   0.00000   0.00000   0.00000   0.00000
                          A6        A7        D1        D2        D3
           A6           0.16000
           A7           0.00000   0.16000
           D1           0.00000   0.00000   0.01295
           D2           0.00000   0.00000   0.00000   0.01295
           D3           0.00000   0.00000   0.00000   0.00000   0.01295
 ITU=  0
     Eigenvalues ---    0.01295   0.10344   0.10344   0.16000   0.16000
     Eigenvalues ---    0.16000   0.16000   0.37230   0.37230   0.37230
     Eigenvalues ---    0.40989   0.55473
 RFO step:  Lambda=-5.41696710D-03 EMin= 1.29493789D-02
 Linear search not attempted -- first point.
 Iteration  1 RMS(Cart)=  0.04335726 RMS(Int)=  0.00161747
 Iteration  2 RMS(Cart)=  0.00101428 RMS(Int)=  0.00123812
 Iteration  3 RMS(Cart)=  0.00000279 RMS(Int)=  0.00123812
 Iteration  4 RMS(Cart)=  0.00000001 RMS(Int)=  0.00123812
 Variable       Old X    -DE/DX   Delta X   Delta X   Delta X     New X
                                 (Linear)    (Quad)   (Total)
    R1        2.02201   0.01484   0.00000   0.03930   0.03930   2.06131
    R2        2.02201   0.02010   0.00000   0.05320   0.05320   2.07521
    R3        2.02201   0.02010   0.00000   0.05322   0.05322   2.07522
    R4        2.70231  -0.00241   0.00000  -0.00580  -0.00580   2.69651
    R5        1.81414   0.00387   0.00000   0.00691   0.00691   1.82104
    A1        1.91063  -0.00237   0.00000  -0.02146  -0.02096   1.88967
    A2        1.91063  -0.00236   0.00000  -0.02144  -0.02093   1.88970
    A3        1.91063  -0.01051   0.00000  -0.07067  -0.07015   1.84048
    A4        1.91063  -0.00384   0.00000  -0.00889  -0.01155   1.89908
    A5        1.91063   0.00954   0.00000   0.06125   0.05990   1.97053
    A6        1.91063   0.00953   0.00000   0.06121   0.05985   1.97049
    A7        1.91114  -0.00798   0.00000  -0.04823  -0.04823   1.86291
    D1        3.13967   0.00000   0.00000   0.00022   0.00022   3.13989
    D2        1.04527   0.00349   0.00000   0.03227   0.03467   1.07994
    D3       -1.04912  -0.00349   0.00000  -0.03183  -0.03423  -1.08335
         Item               Value     Threshold  Converged?
 Maximum Force            0.020101     0.000450     NO 
 RMS     Force            0.009849     0.000300     NO 
 Maximum Displacement     0.082148     0.001800     NO 
 RMS     Displacement     0.043262     0.001200     NO 
 Predicted change in Energy=-2.798988D-03
 GradGradGradGradGradGradGradGradGradGradGradGradGradGradGradGradGradGrad

                          Input orientation:                          
 ---------------------------------------------------------------------
 Center     Atomic      Atomic             Coordinates (Angstroms)
 Number     Number       Type             X           Y           Z
 ---------------------------------------------------------------------
      1          6           0       -3.363033   -0.379849    0.005457
      2          1           0       -2.982526   -1.401641    0.036959
      3          1           0       -3.001797    0.093751   -0.917123
      4          1           0       -4.459997   -0.421708   -0.024096
      5          8           0       -2.862916    0.248596    1.184892
      6          1           0       -3.187758    1.155794    1.174988
 ---------------------------------------------------------------------
                    Distance matrix (angstroms):
                    1          2          3          4          5
     1  C    0.000000
     2  H    1.090797   0.000000
     3  H    1.098153   1.773934   0.000000
     4  H    1.098161   1.773955   1.785929   0.000000
     5  O    1.426929   2.013787   2.112281   2.112256   0.000000
     6  H    1.938227   2.806725   2.353602   2.354763   0.963654
                    6
     6  H    0.000000
 Stoichiometry    CH4O
 Framework group  C1[X(CH4O)]
 Deg. of freedom    12
 Full point group                 C1      NOp   1
 Largest Abelian subgroup         C1      NOp   1
 Largest concise Abelian subgroup C1      NOp   1
                         Standard orientation:                         
 ---------------------------------------------------------------------
 Center     Atomic      Atomic             Coordinates (Angstroms)
 Number     Number       Type             X           Y           Z
 ---------------------------------------------------------------------
      1          6           0        0.666527   -0.019733    0.000006
      2          1           0        1.058763    0.998101   -0.001830
      3          1           0        1.045116   -0.536188   -0.892117
      4          1           0        1.045379   -0.533098    0.893809
      5          8           0       -0.753536    0.120087    0.000007
      6          1           0       -1.120133   -0.771112    0.000045
 ---------------------------------------------------------------------
 Rotational constants (GHZ):         127.4032036          24.6233774          23.7527802
 Standard basis: 6-31G(d,p) (6D, 7F)
 There are    50 symmetry adapted cartesian basis functions of A   symmetry.
 There are    50 symmetry adapted basis functions of A   symmetry.
    50 basis functions,    84 primitive gaussians,    50 cartesian basis functions
     9 alpha electrons        9 beta electrons
       nuclear repulsion energy        40.1669831974 Hartrees.
 NAtoms=    6 NActive=    6 NUniq=    6 SFac= 1.00D+00 NAtFMM=   60 NAOKFM=F Big=F
 Integral buffers will be    131072 words long.
 Raffenetti 2 integral format.
 Two-electron integral symmetry is turned on.
 One-electron integrals computed using PRISM.
 NBasis=    50 RedAO= T EigKep=  9.51D-03  NBF=    50
 NBsUse=    50 1.00D-06 EigRej= -1.00D+00 NBFU=    50
 Core hamiltonian diagonalized for initial guess.
 Mixing orbitals, IMix= 1 IMixAn=  0 NRI=1 NE=    9 Coef=  7.07106781D-01  7.07106781D-01
 Mixing orbitals, IMix= 1 IMixAn=  0 NRI=1 NE=    9 Coef= -7.07106781D-01  7.07106781D-01
 Initial guess <Sx>= 0.0000 <Sy>= 0.0000 <Sz>= 0.0000 <S**2>= 1.0000 S= 0.6180
 Keep R1 and R2 ints in memory in canonical form, NReq=2498877.
 Requested convergence on RMS density matrix=1.00D-08 within 128 cycles.
 Requested convergence on MAX density matrix=1.00D-06.
 Requested convergence on             energy=1.00D-06.
 No special actions if energy rises.
 Integral accuracy reduced to 1.0D-05 until final iterations.
 EnCoef did   100 forward-backward iterations
 Initial convergence to 1.0D-05 achieved.  Increase integral accuracy.
 SCF Done:  E(UB3LYP) =  -115.723826745     A.U. after   17 cycles
            NFock= 17  Conv=0.43D-08     -V/T= 2.0088
 <Sx>= 0.0000 <Sy>= 0.0000 <Sz>= 0.0000 <S**2>=-0.0000 S=-0.0000
 <L.S>= 0.000000000000E+00
 Annihilation of the first spin contaminant:
 S**2 before annihilation    -0.0000,   after     0.0000
 Calling FoFJK, ICntrl=      2127 FMM=F ISym2X=0 I1Cent= 0 IOpClX= 1 NMat=1 NMatS=1 NMatT=0.
 ***** Axes restored to original set *****
 -------------------------------------------------------------------
 Center     Atomic                   Forces (Hartrees/Bohr)
 Number     Number              X              Y              Z
 -------------------------------------------------------------------
      1        6           0.004241018   -0.000582402    0.006599297
      2        1          -0.000665055   -0.001891116   -0.002170992
      3        1           0.000161443    0.000740933   -0.000704892
      4        1          -0.000979126    0.000342030   -0.000011185
      5        8          -0.002836471   -0.000867643   -0.005158489
      6        1           0.000078192    0.002258198    0.001446261
 -------------------------------------------------------------------
 Cartesian Forces:  Max     0.006599297 RMS     0.002531593

 GradGradGradGradGradGradGradGradGradGradGradGradGradGradGradGradGradGrad
 Berny optimization.
 Using GEDIIS/GDIIS optimizer.
 FormGI is forming the generalized inverse of G from B-inverse, IUseBI=4.
 Internal  Forces:  Max     0.004345616 RMS     0.001908538
 Search for a local minimum.
 Step number   2 out of a maximum of   25
 All quantities printed in internal units (Hartrees-Bohrs-Radians)
 Mixed Optimization -- RFO/linear search
 Update second derivatives using D2CorX and points    1    2
 DE= -2.46D-03 DEPred=-2.80D-03 R= 8.80D-01
 TightC=F SS=  1.41D+00  RLast= 1.58D-01 DXNew= 5.0454D-01 4.7520D-01
 Trust test= 8.80D-01 RLast= 1.58D-01 DXMaxT set to 4.75D-01
 The second derivative matrix:
                          R1        R2        R3        R4        R5
           R1           0.36200
           R2          -0.01157   0.36003
           R3          -0.01158  -0.01227   0.36002
           R4           0.00899   0.01235   0.01235   0.40899
           R5          -0.00664  -0.00867  -0.00867   0.00205   0.55247
           A1           0.00603   0.00790   0.00791  -0.00178   0.00201
           A2           0.00603   0.00791   0.00791  -0.00178   0.00201
           A3          -0.00265  -0.00622  -0.00622  -0.00769   0.00368
           A4          -0.00273  -0.00431  -0.00432  -0.00144   0.00030
           A5          -0.00259  -0.00163  -0.00163   0.00620  -0.00379
           A6          -0.00260  -0.00164  -0.00164   0.00620  -0.00379
           A7          -0.00376  -0.00705  -0.00705  -0.00544   0.00227
           D1          -0.00001  -0.00002  -0.00002   0.00000  -0.00000
           D2           0.00922   0.01329   0.01329   0.00100   0.00107
           D3          -0.00924  -0.01332  -0.01333  -0.00100  -0.00107
                          A1        A2        A3        A4        A5
           A1           0.15822
           A2          -0.00178   0.15822
           A3          -0.00347  -0.00347   0.17376
           A4          -0.00032  -0.00032   0.00482   0.16139
           A5           0.00349   0.00350  -0.00635  -0.00286   0.16159
           A6           0.00349   0.00349  -0.00634  -0.00286   0.00158
           A7          -0.00217  -0.00218   0.01161   0.00381  -0.00590
           D1           0.00000   0.00000   0.00001   0.00000  -0.00001
           D2          -0.00086  -0.00086  -0.01067  -0.00254   0.00746
           D3           0.00086   0.00086   0.01070   0.00255  -0.00747
                          A6        A7        D1        D2        D3
           A6           0.16157
           A7          -0.00589   0.16958
           D1          -0.00001   0.00001   0.01295
           D2           0.00745  -0.00800  -0.00000   0.01649
           D3          -0.00747   0.00801   0.00000  -0.00354   0.01649
 ITU=  1  0
 Use linear search instead of GDIIS.
     Eigenvalues ---    0.01295   0.10282   0.10568   0.15516   0.16000
     Eigenvalues ---    0.16000   0.19307   0.33375   0.37230   0.37271
     Eigenvalues ---    0.41527   0.55351
 RFO step:  Lambda=-2.14206356D-04 EMin= 1.29493640D-02
 Quartic linear search produced a step of -0.07342.
 Iteration  1 RMS(Cart)=  0.00976548 RMS(Int)=  0.00010673
 Iteration  2 RMS(Cart)=  0.00007208 RMS(Int)=  0.00007721
 Iteration  3 RMS(Cart)=  0.00000000 RMS(Int)=  0.00007721
 Variable       Old X    -DE/DX   Delta X   Delta X   Delta X     New X
                                 (Linear)    (Quad)   (Total)
    R1        2.06131   0.00148  -0.00289   0.00822   0.00534   2.06664
    R2        2.07521   0.00096  -0.00391   0.00856   0.00466   2.07986
    R3        2.07522   0.00097  -0.00391   0.00856   0.00466   2.07988
    R4        2.69651  -0.00342   0.00043  -0.00840  -0.00797   2.68853
    R5        1.82104   0.00208  -0.00051   0.00428   0.00377   1.82481
    A1        1.88967  -0.00090   0.00154  -0.00521  -0.00373   1.88594
    A2        1.88970  -0.00090   0.00154  -0.00521  -0.00374   1.88596
    A3        1.84048   0.00435   0.00515   0.01950   0.02458   1.86506
    A4        1.89908  -0.00039   0.00085  -0.00795  -0.00696   1.89212
    A5        1.97053  -0.00103  -0.00440  -0.00041  -0.00476   1.96577
    A6        1.97049  -0.00102  -0.00439  -0.00040  -0.00474   1.96575
    A7        1.86291   0.00308   0.00354   0.01221   0.01576   1.87866
    D1        3.13989   0.00001  -0.00002   0.00043   0.00042   3.14030
    D2        1.07994  -0.00107  -0.00255  -0.00523  -0.00794   1.07200
    D3       -1.08335   0.00108   0.00251   0.00610   0.00878  -1.07457
         Item               Value     Threshold  Converged?
 Maximum Force            0.004346     0.000450     NO 
 RMS     Force            0.001909     0.000300     NO 
 Maximum Displacement     0.019097     0.001800     NO 
 RMS     Displacement     0.009727     0.001200     NO 
 Predicted change in Energy=-1.217394D-04
 GradGradGradGradGradGradGradGradGradGradGradGradGradGradGradGradGradGrad

                          Input orientation:                          
 ---------------------------------------------------------------------
 Center     Atomic      Atomic             Coordinates (Angstroms)
 Number     Number       Type             X           Y           Z
 ---------------------------------------------------------------------
      1          6           0       -3.358853   -0.383918    0.009874
      2          1           0       -2.985257   -1.411607    0.026853
      3          1           0       -3.000572    0.094082   -0.914522
      4          1           0       -4.458398   -0.421106   -0.021654
      5          8           0       -2.866091    0.253695    1.182368
      6          1           0       -3.188857    1.163796    1.178158
 ---------------------------------------------------------------------
                    Distance matrix (angstroms):
                    1          2          3          4          5
     1  C    0.000000
     2  H    1.093621   0.000000
     3  H    1.100617   1.775815   0.000000
     4  H    1.100625   1.775835   1.785465   0.000000
     5  O    1.422711   2.030430   2.107251   2.107241   0.000000
     6  H    1.946588   2.828366   2.357763   2.358643   0.965650
                    6
     6  H    0.000000
 Stoichiometry    CH4O
 Framework group  C1[X(CH4O)]
 Deg. of freedom    12
 Full point group                 C1      NOp   1
 Largest Abelian subgroup         C1      NOp   1
 Largest concise Abelian subgroup C1      NOp   1
                         Standard orientation:                         
 ---------------------------------------------------------------------
 Center     Atomic      Atomic             Coordinates (Angstroms)
 Number     Number       Type             X           Y           Z
 ---------------------------------------------------------------------
      1          6           0        0.664306   -0.019371    0.000003
      2          1           0        1.084096    0.990471   -0.001359
      3          1           0        1.037332   -0.545083   -0.892093
      4          1           0        1.037544   -0.542787    0.893371
      5          8           0       -0.751339    0.122242    0.000006
      6          1           0       -1.134102   -0.764309    0.000018
 ---------------------------------------------------------------------
 Rotational constants (GHZ):         127.4057395          24.6644619          23.7892281
 Standard basis: 6-31G(d,p) (6D, 7F)
 There are    50 symmetry adapted cartesian basis functions of A   symmetry.
 There are    50 symmetry adapted basis functions of A   symmetry.
    50 basis functions,    84 primitive gaussians,    50 cartesian basis functions
     9 alpha electrons        9 beta electrons
       nuclear repulsion energy        40.1727429212 Hartrees.
 NAtoms=    6 NActive=    6 NUniq=    6 SFac= 1.00D+00 NAtFMM=   60 NAOKFM=F Big=F
 Integral buffers will be    131072 words long.
 Raffenetti 2 integral format.
 Two-electron integral symmetry is turned on.
 One-electron integrals computed using PRISM.
 NBasis=    50 RedAO= T EigKep=  9.51D-03  NBF=    50
 NBsUse=    50 1.00D-06 EigRej= -1.00D+00 NBFU=    50
 Core hamiltonian diagonalized for initial guess.
 Mixing orbitals, IMix= 1 IMixAn=  0 NRI=1 NE=    9 Coef=  7.07106781D-01  7.07106781D-01
 Mixing orbitals, IMix= 1 IMixAn=  0 NRI=1 NE=    9 Coef= -7.07106781D-01  7.07106781D-01
 Initial guess <Sx>= 0.0000 <Sy>= 0.0000 <Sz>= 0.0000 <S**2>= 1.0000 S= 0.6180
 Keep R1 and R2 ints in memory in canonical form, NReq=2498877.
 Requested convergence on RMS density matrix=1.00D-08 within 128 cycles.
 Requested convergence on MAX density matrix=1.00D-06.
 Requested convergence on             energy=1.00D-06.
 No special actions if energy rises.
 EnCoef did   100 forward-backward iterations
 SCF Done:  E(UB3LYP) =  -115.723950848     A.U. after   15 cycles
            NFock= 15  Conv=0.15D-08     -V/T= 2.0089
 <Sx>= 0.0000 <Sy>= 0.0000 <Sz>= 0.0000 <S**2>=-0.0000 S=-0.0000
 <L.S>= 0.000000000000E+00
 Annihilation of the first spin contaminant:
 S**2 before annihilation    -0.0000,   after     0.0000
 Calling FoFJK, ICntrl=      2127 FMM=F ISym2X=0 I1Cent= 0 IOpClX= 1 NMat=1 NMatS=1 NMatT=0.
 ***** Axes restored to original set *****
 -------------------------------------------------------------------
 Center     Atomic                   Forces (Hartrees/Bohr)
 Number     Number              X              Y              Z
 -------------------------------------------------------------------
      1        6           0.000868770    0.001338961    0.002195960
      2        1          -0.000181567    0.000507375    0.000001067
      3        1          -0.000177065   -0.000297981    0.000075058
      4        1           0.000261945   -0.000140054   -0.000195353
      5        8          -0.000860255   -0.000980729   -0.001988945
      6        1           0.000088173   -0.000427572   -0.000087786
 -------------------------------------------------------------------
 Cartesian Forces:  Max     0.002195960 RMS     0.000874594

 GradGradGradGradGradGradGradGradGradGradGradGradGradGradGradGradGradGrad
 Berny optimization.
 Using GEDIIS/GDIIS optimizer.
 FormGI is forming the generalized inverse of G from B-inverse, IUseBI=4.
 Internal  Forces:  Max     0.002609939 RMS     0.000721482
 Search for a local minimum.
 Step number   3 out of a maximum of   25
 All quantities printed in internal units (Hartrees-Bohrs-Radians)
 Mixed Optimization -- En-DIIS/RFO-DIIS
 Update second derivatives using D2CorX and points    1    2    3
 DE= -1.24D-04 DEPred=-1.22D-04 R= 1.02D+00
 TightC=F SS=  1.41D+00  RLast= 3.55D-02 DXNew= 7.9919D-01 1.0665D-01
 Trust test= 1.02D+00 RLast= 3.55D-02 DXMaxT set to 4.75D-01
 The second derivative matrix:
                          R1        R2        R3        R4        R5
           R1           0.37437
           R2          -0.00314   0.36559
           R3          -0.00312  -0.00670   0.36561
           R4           0.02972   0.03102   0.03102   0.36051
           R5           0.00448  -0.00138  -0.00137   0.02486   0.56233
           A1           0.00235   0.00544   0.00544  -0.00862  -0.00129
           A2           0.00235   0.00545   0.00545  -0.00863  -0.00128
           A3           0.00655  -0.00185  -0.00183   0.03912   0.01063
           A4           0.00277   0.00074   0.00074  -0.01637   0.00649
           A5          -0.00588  -0.00361  -0.00362  -0.00251  -0.00670
           A6          -0.00588  -0.00362  -0.00363  -0.00247  -0.00670
           A7           0.00541  -0.00170  -0.00169   0.02387   0.00999
           D1          -0.00004  -0.00005  -0.00005   0.00008  -0.00004
           D2          -0.00012   0.00612   0.00611   0.00126  -0.00820
           D3           0.00004  -0.00620  -0.00620  -0.00111   0.00814
                          A1        A2        A3        A4        A5
           A1           0.15931
           A2          -0.00069   0.15931
           A3          -0.00602  -0.00602   0.16950
           A4          -0.00216  -0.00216   0.01810   0.15683
           A5           0.00447   0.00447  -0.00792  -0.00529   0.16249
           A6           0.00447   0.00447  -0.00792  -0.00527   0.00248
           A7          -0.00484  -0.00483   0.01371   0.01199  -0.00804
           D1           0.00001   0.00001  -0.00006   0.00003   0.00001
           D2           0.00207   0.00207  -0.02386  -0.00210   0.01066
           D3          -0.00204  -0.00205   0.02375   0.00215  -0.01065
                          A6        A7        D1        D2        D3
           A6           0.16248
           A7          -0.00804   0.17444
           D1           0.00001  -0.00004   0.01295
           D2           0.01064  -0.01776  -0.00000   0.02057
           D3          -0.01063   0.01770   0.00000  -0.00763   0.02059
 ITU=  1  1  0
 Use linear search instead of GDIIS.
     Eigenvalues ---    0.01295   0.10435   0.10442   0.14376   0.16000
     Eigenvalues ---    0.16001   0.20525   0.31561   0.37230   0.37368
     Eigenvalues ---    0.41552   0.56763
 RFO step:  Lambda=-2.18372002D-05 EMin= 1.29487386D-02
 Quartic linear search produced a step of  0.01788.
 Iteration  1 RMS(Cart)=  0.00175729 RMS(Int)=  0.00000217
 Iteration  2 RMS(Cart)=  0.00000163 RMS(Int)=  0.00000141
 Iteration  3 RMS(Cart)=  0.00000000 RMS(Int)=  0.00000141
 Variable       Old X    -DE/DX   Delta X   Delta X   Delta X     New X
                                 (Linear)    (Quad)   (Total)
    R1        2.06664  -0.00054   0.00010  -0.00086  -0.00077   2.06588
    R2        2.07986  -0.00025   0.00008  -0.00006   0.00002   2.07988
    R3        2.07988  -0.00025   0.00008  -0.00007   0.00002   2.07990
    R4        2.68853  -0.00261  -0.00014  -0.00724  -0.00739   2.68115
    R5        1.82481  -0.00043   0.00007  -0.00045  -0.00038   1.82443
    A1        1.88594  -0.00015  -0.00007  -0.00163  -0.00170   1.88424
    A2        1.88596  -0.00015  -0.00007  -0.00164  -0.00170   1.88426
    A3        1.86506  -0.00017   0.00044   0.00039   0.00083   1.86589
    A4        1.89212  -0.00021  -0.00012  -0.00153  -0.00166   1.89046
    A5        1.96577   0.00032  -0.00009   0.00206   0.00197   1.96775
    A6        1.96575   0.00033  -0.00008   0.00207   0.00198   1.96773
    A7        1.87866  -0.00020   0.00028  -0.00012   0.00016   1.87882
    D1        3.14030   0.00000   0.00001   0.00036   0.00037   3.14067
    D2        1.07200   0.00011  -0.00014   0.00093   0.00079   1.07279
    D3       -1.07457  -0.00010   0.00016  -0.00021  -0.00006  -1.07463
         Item               Value     Threshold  Converged?
 Maximum Force            0.002610     0.000450     NO 
 RMS     Force            0.000721     0.000300     NO 
 Maximum Displacement     0.002943     0.001800     NO 
 RMS     Displacement     0.001758     0.001200     NO 
 Predicted change in Energy=-1.095562D-05
 GradGradGradGradGradGradGradGradGradGradGradGradGradGradGradGradGradGrad

                          Input orientation:                          
 ---------------------------------------------------------------------
 Center     Atomic      Atomic             Coordinates (Angstroms)
 Number     Number       Type             X           Y           Z
 ---------------------------------------------------------------------
      1          6           0       -3.358291   -0.382715    0.011432
      2          1           0       -2.985553   -1.410302    0.027209
      3          1           0       -3.000795    0.093790   -0.914052
      4          1           0       -4.457761   -0.420977   -0.021641
      5          8           0       -2.866496    0.252605    1.180837
      6          1           0       -3.189131    1.162540    1.177292
 ---------------------------------------------------------------------
                    Distance matrix (angstroms):
                    1          2          3          4          5
     1  C    0.000000
     2  H    1.093214   0.000000
     3  H    1.100627   1.774400   0.000000
     4  H    1.100633   1.774415   1.784414   0.000000
     5  O    1.418803   2.027385   2.105188   2.105182   0.000000
     6  H    1.943106   2.825536   2.356145   2.356775   0.965447
                    6
     6  H    0.000000
 Stoichiometry    CH4O
 Framework group  C1[X(CH4O)]
 Deg. of freedom    12
 Full point group                 C1      NOp   1
 Largest Abelian subgroup         C1      NOp   1
 Largest concise Abelian subgroup C1      NOp   1
                         Standard orientation:                         
 ---------------------------------------------------------------------
 Center     Atomic      Atomic             Coordinates (Angstroms)
 Number     Number       Type             X           Y           Z
 ---------------------------------------------------------------------
      1          6           0        0.662092   -0.019366    0.000002
      2          1           0        1.082793    0.989657   -0.000973
      3          1           0        1.037107   -0.544268   -0.891750
      4          1           0        1.037259   -0.542625    0.892664
      5          8           0       -0.749632    0.122183    0.000004
      6          1           0       -1.132659   -0.764032    0.000013
 ---------------------------------------------------------------------
 Rotational constants (GHZ):         127.5724642          24.7675925          23.8867370
 Standard basis: 6-31G(d,p) (6D, 7F)
 There are    50 symmetry adapted cartesian basis functions of A   symmetry.
 There are    50 symmetry adapted basis functions of A   symmetry.
    50 basis functions,    84 primitive gaussians,    50 cartesian basis functions
     9 alpha electrons        9 beta electrons
       nuclear repulsion energy        40.2350315979 Hartrees.
 NAtoms=    6 NActive=    6 NUniq=    6 SFac= 1.00D+00 NAtFMM=   60 NAOKFM=F Big=F
 Integral buffers will be    131072 words long.
 Raffenetti 2 integral format.
 Two-electron integral symmetry is turned on.
 One-electron integrals computed using PRISM.
 NBasis=    50 RedAO= T EigKep=  9.46D-03  NBF=    50
 NBsUse=    50 1.00D-06 EigRej= -1.00D+00 NBFU=    50
 Core hamiltonian diagonalized for initial guess.
 Mixing orbitals, IMix= 1 IMixAn=  0 NRI=1 NE=    9 Coef=  7.07106781D-01  7.07106781D-01
 Mixing orbitals, IMix= 1 IMixAn=  0 NRI=1 NE=    9 Coef= -7.07106781D-01  7.07106781D-01
 Initial guess <Sx>= 0.0000 <Sy>= 0.0000 <Sz>= 0.0000 <S**2>= 1.0000 S= 0.6180
 Keep R1 and R2 ints in memory in canonical form, NReq=2498877.
 Requested convergence on RMS density matrix=1.00D-08 within 128 cycles.
 Requested convergence on MAX density matrix=1.00D-06.
 Requested convergence on             energy=1.00D-06.
 No special actions if energy rises.
 EnCoef did   100 forward-backward iterations
 SCF Done:  E(UB3LYP) =  -115.723963570     A.U. after   14 cycles
            NFock= 14  Conv=0.97D-08     -V/T= 2.0089
 <Sx>= 0.0000 <Sy>= 0.0000 <Sz>= 0.0000 <S**2>=-0.0000 S=-0.0000
 <L.S>= 0.000000000000E+00
 Annihilation of the first spin contaminant:
 S**2 before annihilation    -0.0000,   after    -0.0000
 Calling FoFJK, ICntrl=      2127 FMM=F ISym2X=0 I1Cent= 0 IOpClX= 1 NMat=1 NMatS=1 NMatT=0.
 ***** Axes restored to original set *****
 -------------------------------------------------------------------
 Center     Atomic                   Forces (Hartrees/Bohr)
 Number     Number              X              Y              Z
 -------------------------------------------------------------------
      1        6           0.000124749    0.000244724    0.000349033
      2        1          -0.000060742    0.000139931   -0.000014940
      3        1          -0.000092685   -0.000148649   -0.000006316
      4        1           0.000096937   -0.000079767   -0.000123408
      5        8          -0.000189182    0.000066862   -0.000283748
      6        1           0.000120922   -0.000223102    0.000079378
 -------------------------------------------------------------------
 Cartesian Forces:  Max     0.000349033 RMS     0.000162268

 GradGradGradGradGradGradGradGradGradGradGradGradGradGradGradGradGradGrad
 Berny optimization.
 Using GEDIIS/GDIIS optimizer.
 FormGI is forming the generalized inverse of G from B-inverse, IUseBI=4.
 Internal  Forces:  Max     0.000261951 RMS     0.000144883
 Search for a local minimum.
 Step number   4 out of a maximum of   25
 All quantities printed in internal units (Hartrees-Bohrs-Radians)
 Mixed Optimization -- En-DIIS/RFO-DIIS
 Swapping is turned off.
 Update second derivatives using D2CorX and points    1    2    3    4
 DE= -1.27D-05 DEPred=-1.10D-05 R= 1.16D+00
 TightC=F SS=  1.41D+00  RLast= 8.55D-03 DXNew= 7.9919D-01 2.5649D-02
 Trust test= 1.16D+00 RLast= 8.55D-03 DXMaxT set to 4.75D-01
 The second derivative matrix:
                          R1        R2        R3        R4        R5
           R1           0.37305
           R2          -0.00240   0.36736
           R3          -0.00240  -0.00493   0.36737
           R4           0.01315   0.02052   0.02038   0.34864
           R5           0.00203  -0.00089  -0.00089  -0.00524   0.56065
           A1          -0.00151   0.00298   0.00297  -0.02429  -0.00443
           A2          -0.00152   0.00298   0.00297  -0.02437  -0.00444
           A3           0.00545  -0.00189  -0.00186   0.02451   0.01120
           A4           0.00251   0.00174   0.00173  -0.02337   0.00502
           A5          -0.00155  -0.00166  -0.00166   0.02206  -0.00327
           A6          -0.00155  -0.00167  -0.00167   0.02217  -0.00326
           A7           0.00722  -0.00124  -0.00123   0.04450   0.00970
           D1           0.00001  -0.00003  -0.00003   0.00042   0.00000
           D2          -0.00263   0.00340   0.00339  -0.00262  -0.00928
           D3           0.00265  -0.00345  -0.00344   0.00346   0.00930
                          A1        A2        A3        A4        A5
           A1           0.15751
           A2          -0.00250   0.15749
           A3          -0.00574  -0.00573   0.17087
           A4          -0.00336  -0.00337   0.01704   0.15545
           A5           0.00655   0.00656  -0.00833  -0.00298   0.15968
           A6           0.00656   0.00657  -0.00833  -0.00296  -0.00033
           A7          -0.00354  -0.00354   0.01172   0.01221  -0.00844
           D1           0.00005   0.00005  -0.00007   0.00005  -0.00004
           D2           0.00173   0.00173  -0.02284  -0.00161   0.01020
           D3          -0.00163  -0.00163   0.02272   0.00171  -0.01028
                          A6        A7        D1        D2        D3
           A6           0.15965
           A7          -0.00844   0.17518
           D1          -0.00004  -0.00005   0.01295
           D2           0.01018  -0.01673   0.00000   0.01970
           D3          -0.01027   0.01665  -0.00001  -0.00675   0.01969
 ITU=  1  1  1  0
     Eigenvalues ---    0.01294   0.10381   0.10423   0.12072   0.16000
     Eigenvalues ---    0.16171   0.20722   0.33836   0.37230   0.37397
     Eigenvalues ---    0.39755   0.56179
 En-DIIS/RFO-DIIS/Sim-DIIS IScMMF=       -3 using points:     4    3
 RFO step:  Lambda=-1.74251982D-06.
 DidBck=F Rises=F RFO-DIIS coefs:    1.30318   -0.30318
 Iteration  1 RMS(Cart)=  0.00110440 RMS(Int)=  0.00000143
 Iteration  2 RMS(Cart)=  0.00000102 RMS(Int)=  0.00000081
 Iteration  3 RMS(Cart)=  0.00000000 RMS(Int)=  0.00000081
 Variable       Old X    -DE/DX   Delta X   Delta X   Delta X     New X
                                 (Linear)    (Quad)   (Total)
    R1        2.06588  -0.00015  -0.00023  -0.00014  -0.00037   2.06550
    R2        2.07988  -0.00009   0.00001  -0.00015  -0.00014   2.07974
    R3        2.07990  -0.00009   0.00000  -0.00015  -0.00015   2.07975
    R4        2.68115  -0.00026  -0.00224   0.00092  -0.00131   2.67983
    R5        1.82443  -0.00025  -0.00012  -0.00034  -0.00046   1.82397
    A1        1.88424  -0.00010  -0.00051  -0.00053  -0.00105   1.88320
    A2        1.88426  -0.00010  -0.00052  -0.00053  -0.00105   1.88321
    A3        1.86589  -0.00007   0.00025  -0.00031  -0.00006   1.86583
    A4        1.89046  -0.00014  -0.00050  -0.00050  -0.00100   1.88946
    A5        1.96775   0.00019   0.00060   0.00088   0.00147   1.96922
    A6        1.96773   0.00019   0.00060   0.00088   0.00148   1.96921
    A7        1.87882   0.00016   0.00005   0.00150   0.00155   1.88037
    D1        3.14067   0.00000   0.00011   0.00019   0.00030   3.14097
    D2        1.07279   0.00006   0.00024   0.00053   0.00077   1.07356
    D3       -1.07463  -0.00005  -0.00002  -0.00016  -0.00018  -1.07481
         Item               Value     Threshold  Converged?
 Maximum Force            0.000262     0.000450     YES
 RMS     Force            0.000145     0.000300     YES
 Maximum Displacement     0.002226     0.001800     NO 
 RMS     Displacement     0.001104     0.001200     YES
 Predicted change in Energy=-8.713523D-07
 GradGradGradGradGradGradGradGradGradGradGradGradGradGradGradGradGradGrad

                          Input orientation:                          
 ---------------------------------------------------------------------
 Center     Atomic      Atomic             Coordinates (Angstroms)
 Number     Number       Type             X           Y           Z
 ---------------------------------------------------------------------
      1          6           0       -3.358281   -0.382189    0.011705
      2          1           0       -2.985673   -1.409613    0.027480
      3          1           0       -3.001264    0.092906   -0.914597
      4          1           0       -4.457600   -0.421543   -0.022513
      5          8           0       -2.866609    0.252736    1.180532
      6          1           0       -3.188600    1.162646    1.178470
 ---------------------------------------------------------------------
                    Distance matrix (angstroms):
                    1          2          3          4          5
     1  C    0.000000
     2  H    1.093017   0.000000
     3  H    1.100551   1.773504   0.000000
     4  H    1.100556   1.773514   1.783644   0.000000
     5  O    1.418107   2.026601   2.105526   2.105522   0.000000
     6  H    1.943360   2.825327   2.358043   2.358469   0.965204
                    6
     6  H    0.000000
 Stoichiometry    CH4O
 Framework group  C1[X(CH4O)]
 Deg. of freedom    12
 Full point group                 C1      NOp   1
 Largest Abelian subgroup         C1      NOp   1
 Largest concise Abelian subgroup C1      NOp   1
                         Standard orientation:                         
 ---------------------------------------------------------------------
 Center     Atomic      Atomic             Coordinates (Angstroms)
 Number     Number       Type             X           Y           Z
 ---------------------------------------------------------------------
      1          6           0        0.661654   -0.019435    0.000002
      2          1           0        1.082219    0.989431   -0.000660
      3          1           0        1.038231   -0.543463   -0.891512
      4          1           0        1.038334   -0.542349    0.892132
      5          8           0       -0.749378    0.122043    0.000003
      6          1           0       -1.133682   -0.763355    0.000009
 ---------------------------------------------------------------------
 Rotational constants (GHZ):         127.7155006          24.7783789          23.8986557
 Standard basis: 6-31G(d,p) (6D, 7F)
 There are    50 symmetry adapted cartesian basis functions of A   symmetry.
 There are    50 symmetry adapted basis functions of A   symmetry.
    50 basis functions,    84 primitive gaussians,    50 cartesian basis functions
     9 alpha electrons        9 beta electrons
       nuclear repulsion energy        40.2458973279 Hartrees.
 NAtoms=    6 NActive=    6 NUniq=    6 SFac= 1.00D+00 NAtFMM=   60 NAOKFM=F Big=F
 Integral buffers will be    131072 words long.
 Raffenetti 2 integral format.
 Two-electron integral symmetry is turned on.
 One-electron integrals computed using PRISM.
 NBasis=    50 RedAO= T EigKep=  9.45D-03  NBF=    50
 NBsUse=    50 1.00D-06 EigRej= -1.00D+00 NBFU=    50
 Core hamiltonian diagonalized for initial guess.
 Mixing orbitals, IMix= 1 IMixAn=  0 NRI=1 NE=    9 Coef=  7.07106781D-01  7.07106781D-01
 Mixing orbitals, IMix= 1 IMixAn=  0 NRI=1 NE=    9 Coef= -7.07106781D-01  7.07106781D-01
 Initial guess <Sx>= 0.0000 <Sy>= 0.0000 <Sz>= 0.0000 <S**2>= 1.0000 S= 0.6180
 Keep R1 and R2 ints in memory in canonical form, NReq=2498877.
 Requested convergence on RMS density matrix=1.00D-08 within 128 cycles.
 Requested convergence on MAX density matrix=1.00D-06.
 Requested convergence on             energy=1.00D-06.
 No special actions if energy rises.
 EnCoef did   100 forward-backward iterations
 SCF Done:  E(UB3LYP) =  -115.723964365     A.U. after   14 cycles
            NFock= 14  Conv=0.96D-08     -V/T= 2.0088
 <Sx>= 0.0000 <Sy>= 0.0000 <Sz>= 0.0000 <S**2>=-0.0000 S=-0.0000
 <L.S>= 0.000000000000E+00
 Annihilation of the first spin contaminant:
 S**2 before annihilation    -0.0000,   after     0.0000
 Calling FoFJK, ICntrl=      2127 FMM=F ISym2X=0 I1Cent= 0 IOpClX= 1 NMat=1 NMatS=1 NMatT=0.
 ***** Axes restored to original set *****
 -------------------------------------------------------------------
 Center     Atomic                   Forces (Hartrees/Bohr)
 Number     Number              X              Y              Z
 -------------------------------------------------------------------
      1        6          -0.000017082   -0.000004665   -0.000027734
      2        1           0.000015635   -0.000010258    0.000021956
      3        1           0.000003257    0.000018117    0.000010796
      4        1          -0.000000002    0.000018263    0.000012142
      5        8           0.000002293    0.000007276   -0.000000821
      6        1          -0.000004102   -0.000028733   -0.000016339
 -------------------------------------------------------------------
 Cartesian Forces:  Max     0.000028733 RMS     0.000014943

 GradGradGradGradGradGradGradGradGradGradGradGradGradGradGradGradGradGrad
 Berny optimization.
 Using GEDIIS/GDIIS optimizer.
 FormGI is forming the generalized inverse of G from B-inverse, IUseBI=4.
 Internal  Forces:  Max     0.000037764 RMS     0.000019883
 Search for a local minimum.
 Step number   5 out of a maximum of   25
 All quantities printed in internal units (Hartrees-Bohrs-Radians)
 Mixed Optimization -- En-DIIS/RFO-DIIS
 Swapping is turned off.
 Update second derivatives using D2CorX and points    1    2    3    4    5
 DE= -7.95D-07 DEPred=-8.71D-07 R= 9.12D-01
 Trust test= 9.12D-01 RLast= 3.58D-03 DXMaxT set to 4.75D-01
 The second derivative matrix:
                          R1        R2        R3        R4        R5
           R1           0.37358
           R2          -0.00352   0.36568
           R3          -0.00359  -0.00665   0.36561
           R4           0.01719   0.02305   0.02273   0.33095
           R5          -0.00159  -0.00457  -0.00468  -0.01190   0.55072
           A1          -0.00093   0.00265   0.00258  -0.02618  -0.00589
           A2          -0.00097   0.00263   0.00256  -0.02636  -0.00595
           A3           0.00124  -0.00503  -0.00504   0.02157   0.00426
           A4           0.00613   0.00323   0.00318  -0.02024   0.00664
           A5          -0.00191  -0.00064  -0.00055   0.02373   0.00050
           A6          -0.00188  -0.00063  -0.00054   0.02394   0.00056
           A7           0.00545  -0.00116  -0.00109   0.04496   0.00975
           D1           0.00018   0.00007   0.00007   0.00088   0.00027
           D2          -0.00615   0.00162   0.00162  -0.00964  -0.01244
           D3           0.00652  -0.00147  -0.00146   0.01142   0.01299
                          A1        A2        A3        A4        A5
           A1           0.15891
           A2          -0.00112   0.15885
           A3          -0.00844  -0.00846   0.16776
           A4          -0.00084  -0.00087   0.01552   0.15971
           A5           0.00529   0.00534  -0.00366  -0.00667   0.16047
           A6           0.00532   0.00537  -0.00365  -0.00662   0.00041
           A7          -0.00714  -0.00711   0.01562   0.00741  -0.00461
           D1           0.00016   0.00016   0.00002   0.00016  -0.00024
           D2          -0.00001   0.00000  -0.02328  -0.00445   0.01339
           D3           0.00034   0.00033   0.02334   0.00477  -0.01388
                          A6        A7        D1        D2        D3
           A6           0.16036
           A7          -0.00464   0.18305
           D1          -0.00024  -0.00018   0.01294
           D2           0.01337  -0.01443  -0.00001   0.02144
           D3          -0.01386   0.01407   0.00000  -0.00853   0.02149
 ITU=  0  1  1  1  0
     Eigenvalues ---    0.01292   0.10418   0.10520   0.13428   0.16000
     Eigenvalues ---    0.16137   0.20521   0.32831   0.37230   0.37425
     Eigenvalues ---    0.39176   0.55219
 En-DIIS/RFO-DIIS/Sim-DIIS IScMMF=       -3 using points:     5    4    3
 RFO step:  Lambda=-2.38324299D-08.
 DidBck=F Rises=F RFO-DIIS coefs:    0.87609    0.14563   -0.02172
 Iteration  1 RMS(Cart)=  0.00015283 RMS(Int)=  0.00000003
 Iteration  2 RMS(Cart)=  0.00000001 RMS(Int)=  0.00000002
 Variable       Old X    -DE/DX   Delta X   Delta X   Delta X     New X
                                 (Linear)    (Quad)   (Total)
    R1        2.06550   0.00002   0.00003   0.00001   0.00004   2.06554
    R2        2.07974  -0.00000   0.00002  -0.00003  -0.00001   2.07973
    R3        2.07975  -0.00000   0.00002  -0.00003  -0.00001   2.07974
    R4        2.67983  -0.00002   0.00000   0.00001   0.00001   2.67985
    R5        1.82397  -0.00003   0.00005  -0.00009  -0.00004   1.82393
    A1        1.88320   0.00003   0.00009   0.00008   0.00018   1.88337
    A2        1.88321   0.00003   0.00009   0.00008   0.00017   1.88338
    A3        1.86583  -0.00002   0.00003  -0.00013  -0.00011   1.86572
    A4        1.88946   0.00001   0.00009  -0.00003   0.00006   1.88953
    A5        1.96922  -0.00002  -0.00014  -0.00000  -0.00014   1.96908
    A6        1.96921  -0.00002  -0.00014   0.00000  -0.00014   1.96907
    A7        1.88037  -0.00004  -0.00019  -0.00001  -0.00020   1.88017
    D1        3.14097   0.00000  -0.00003   0.00016   0.00013   3.14110
    D2        1.07356  -0.00000  -0.00008   0.00014   0.00007   1.07363
    D3       -1.07481   0.00001   0.00002   0.00018   0.00020  -1.07461
         Item               Value     Threshold  Converged?
 Maximum Force            0.000038     0.000450     YES
 RMS     Force            0.000020     0.000300     YES
 Maximum Displacement     0.000261     0.001800     YES
 RMS     Displacement     0.000153     0.001200     YES
 Predicted change in Energy=-1.478905D-08
 Optimization completed.
    -- Stationary point found.
                           ----------------------------
                           !   Optimized Parameters   !
                           ! (Angstroms and Degrees)  !
 --------------------------                            --------------------------
 ! Name  Definition              Value          Derivative Info.                !
 --------------------------------------------------------------------------------
 ! R1    R(1,2)                  1.093          -DE/DX =    0.0                 !
 ! R2    R(1,3)                  1.1006         -DE/DX =    0.0                 !
 ! R3    R(1,4)                  1.1006         -DE/DX =    0.0                 !
 ! R4    R(1,5)                  1.4181         -DE/DX =    0.0                 !
 ! R5    R(5,6)                  0.9652         -DE/DX =    0.0                 !
 ! A1    A(2,1,3)              107.8992         -DE/DX =    0.0                 !
 ! A2    A(2,1,4)              107.8997         -DE/DX =    0.0                 !
 ! A3    A(2,1,5)              106.9041         -DE/DX =    0.0                 !
 ! A4    A(3,1,4)              108.2583         -DE/DX =    0.0                 !
 ! A5    A(3,1,5)              112.8281         -DE/DX =    0.0                 !
 ! A6    A(4,1,5)              112.8274         -DE/DX =    0.0                 !
 ! A7    A(1,5,6)              107.7375         -DE/DX =    0.0                 !
 ! D1    D(2,1,5,6)            179.9642         -DE/DX =    0.0                 !
 ! D2    D(3,1,5,6)             61.5107         -DE/DX =    0.0                 !
 ! D3    D(4,1,5,6)            -61.5821         -DE/DX =    0.0                 !
 --------------------------------------------------------------------------------
 GradGradGradGradGradGradGradGradGradGradGradGradGradGradGradGradGradGrad

                          Input orientation:                          
 ---------------------------------------------------------------------
 Center     Atomic      Atomic             Coordinates (Angstroms)
 Number     Number       Type             X           Y           Z
 ---------------------------------------------------------------------
      1          6           0       -3.358281   -0.382189    0.011705
      2          1           0       -2.985673   -1.409613    0.027480
      3          1           0       -3.001264    0.092906   -0.914597
      4          1           0       -4.457600   -0.421543   -0.022513
      5          8           0       -2.866609    0.252736    1.180532
      6          1           0       -3.188600    1.162646    1.178470
 ---------------------------------------------------------------------
                    Distance matrix (angstroms):
                    1          2          3          4          5
     1  C    0.000000
     2  H    1.093017   0.000000
     3  H    1.100551   1.773504   0.000000
     4  H    1.100556   1.773514   1.783644   0.000000
     5  O    1.418107   2.026601   2.105526   2.105522   0.000000
     6  H    1.943360   2.825327   2.358043   2.358469   0.965204
                    6
     6  H    0.000000
 Stoichiometry    CH4O
 Framework group  C1[X(CH4O)]
 Deg. of freedom    12
 Full point group                 C1      NOp   1
 Largest Abelian subgroup         C1      NOp   1
 Largest concise Abelian subgroup C1      NOp   1
                         Standard orientation:                         
 ---------------------------------------------------------------------
 Center     Atomic      Atomic             Coordinates (Angstroms)
 Number     Number       Type             X           Y           Z
 ---------------------------------------------------------------------
      1          6           0        0.661654   -0.019435    0.000002
      2          1           0        1.082219    0.989431   -0.000660
      3          1           0        1.038231   -0.543463   -0.891512
      4          1           0        1.038334   -0.542349    0.892132
      5          8           0       -0.749378    0.122043    0.000003
      6          1           0       -1.133682   -0.763355    0.000009
 ---------------------------------------------------------------------
 Rotational constants (GHZ):         127.7155006          24.7783789          23.8986557

 **********************************************************************

            Population analysis using the SCF density.

 **********************************************************************

 Orbital symmetries:
 Alpha Orbitals:
       Occupied  (A) (A) (A) (A) (A) (A) (A) (A) (A)
       Virtual   (A) (A) (A) (A) (A) (A) (A) (A) (A) (A) (A) (A)
                 (A) (A) (A) (A) (A) (A) (A) (A) (A) (A) (A) (A)
                 (A) (A) (A) (A) (A) (A) (A) (A) (A) (A) (A) (A)
                 (A) (A) (A) (A) (A)
 Beta  Orbitals:
       Occupied  (A) (A) (A) (A) (A) (A) (A) (A) (A)
       Virtual   (A) (A) (A) (A) (A) (A) (A) (A) (A) (A) (A) (A)
                 (A) (A) (A) (A) (A) (A) (A) (A) (A) (A) (A) (A)
                 (A) (A) (A) (A) (A) (A) (A) (A) (A) (A) (A) (A)
                 (A) (A) (A) (A) (A)
 The electronic state is 1-A.
 Alpha  occ. eigenvalues --  -19.14032 -10.22504  -1.01058  -0.67799  -0.50124
 Alpha  occ. eigenvalues --   -0.43327  -0.41891  -0.32942  -0.26493
 Alpha virt. eigenvalues --    0.07706   0.13104   0.16702   0.17527   0.20619
 Alpha virt. eigenvalues --    0.53165   0.55958   0.57161   0.76383   0.83187
 Alpha virt. eigenvalues --    0.84336   0.88115   0.94310   0.96510   1.00998
 Alpha virt. eigenvalues --    1.06735   1.36343   1.40244   1.52372   1.59041
 Alpha virt. eigenvalues --    1.81391   1.92412   1.98392   2.03899   2.05893
 Alpha virt. eigenvalues --    2.06657   2.33321   2.37273   2.54626   2.58204
 Alpha virt. eigenvalues --    2.66914   2.69657   2.78808   2.84839   2.97343
 Alpha virt. eigenvalues --    3.15637   3.35570   3.41209   3.51579   3.84018
 Alpha virt. eigenvalues --    4.40851
  Beta  occ. eigenvalues --  -19.14032 -10.22504  -1.01058  -0.67799  -0.50124
  Beta  occ. eigenvalues --   -0.43327  -0.41891  -0.32942  -0.26493
  Beta virt. eigenvalues --    0.07706   0.13104   0.16702   0.17527   0.20619
  Beta virt. eigenvalues --    0.53165   0.55958   0.57161   0.76383   0.83187
  Beta virt. eigenvalues --    0.84336   0.88115   0.94310   0.96510   1.00998
  Beta virt. eigenvalues --    1.06735   1.36343   1.40244   1.52372   1.59041
  Beta virt. eigenvalues --    1.81391   1.92412   1.98392   2.03899   2.05893
  Beta virt. eigenvalues --    2.06657   2.33321   2.37273   2.54626   2.58204
  Beta virt. eigenvalues --    2.66914   2.69657   2.78808   2.84839   2.97343
  Beta virt. eigenvalues --    3.15637   3.35570   3.41209   3.51579   3.84018
  Beta virt. eigenvalues --    4.40851
          Condensed to atoms (all electrons):
               1          2          3          4          5          6
     1  C    4.700902   0.397023   0.374562   0.374561   0.260249  -0.033352
     2  H    0.397023   0.588789  -0.037992  -0.038011  -0.037633   0.007020
     3  H    0.374562  -0.037992   0.668282  -0.052421  -0.036326  -0.005565
     4  H    0.374561  -0.038011  -0.052421   0.668300  -0.036345  -0.005549
     5  O    0.260249  -0.037633  -0.036326  -0.036345   8.095340   0.286558
     6  H   -0.033352   0.007020  -0.005565  -0.005549   0.286558   0.444830
          Atomic-Atomic Spin Densities.
               1          2          3          4          5          6
     1  C    0.000000  -0.000000  -0.000000   0.000000  -0.000000   0.000000
     2  H   -0.000000  -0.000000  -0.000000   0.000000   0.000000  -0.000000
     3  H   -0.000000  -0.000000   0.000000   0.000000   0.000000   0.000000
     4  H    0.000000   0.000000   0.000000  -0.000000  -0.000000  -0.000000
     5  O   -0.000000   0.000000   0.000000  -0.000000   0.000000   0.000000
     6  H    0.000000  -0.000000   0.000000  -0.000000   0.000000  -0.000000
 Mulliken charges and spin densities:
               1          2
     1  C   -0.073946   0.000000
     2  H    0.120805  -0.000000
     3  H    0.089460   0.000000
     4  H    0.089465  -0.000000
     5  O   -0.531843   0.000000
     6  H    0.306058  -0.000000
 Sum of Mulliken charges =  -0.00000   0.00000
 Mulliken charges and spin densities with hydrogens summed into heavy atoms:
               1          2
     1  C    0.225784  -0.000000
     5  O   -0.225784   0.000000
 Electronic spatial extent (au):  <R**2>=             84.0278
 Charge=             -0.0000 electrons
 Dipole moment (field-independent basis, Debye):
    X=              0.7342    Y=             -1.4927    Z=             -0.0001  Tot=              1.6635
 Quadrupole moment (field-independent basis, Debye-Ang):
   XX=            -12.5584   YY=            -12.0044   ZZ=            -13.5513
   XY=              2.1917   XZ=             -0.0002   YZ=             -0.0001
 Traceless Quadrupole moment (field-independent basis, Debye-Ang):
   XX=              0.1463   YY=              0.7003   ZZ=             -0.8466
   XY=              2.1917   XZ=             -0.0002   YZ=             -0.0001
 Octapole moment (field-independent basis, Debye-Ang**2):
  XXX=             -4.7290  YYY=             -0.5076  ZZZ=              0.0005  XYY=             -1.9361
  XXY=             -2.1224  XXZ=             -0.0002  XZZ=             -0.6733  YZZ=             -0.4775
  YYZ=             -0.0009  XYZ=             -0.0001
 Hexadecapole moment (field-independent basis, Debye-Ang**3):
 XXXX=            -59.8826 YYYY=            -19.4432 ZZZZ=            -19.1468 XXXY=              3.5482
 XXXZ=             -0.0004 YYYX=              2.7216 YYYZ=             -0.0002 ZZZX=              0.0006
 ZZZY=             -0.0000 XXYY=            -12.1615 XXZZ=            -13.7624 YYZZ=             -6.6046
 XXYZ=             -0.0003 YYXZ=             -0.0011 ZZXY=             -0.0508
 N-N= 4.024589732793D+01 E-N=-3.516299459232D+02  KE= 1.147101437189D+02
                          Isotropic Fermi Contact Couplings
        Atom                 a.u.       MegaHertz       Gauss      10(-4) cm-1
     1  C(13)              0.00000       0.00000       0.00000       0.00000
     2  H(1)              -0.00000      -0.00000      -0.00000      -0.00000
     3  H(1)               0.00000       0.00001       0.00000       0.00000
     4  H(1)              -0.00000      -0.00001      -0.00000      -0.00000
     5  O(17)              0.00000      -0.00000      -0.00000      -0.00000
     6  H(1)              -0.00000      -0.00000      -0.00000      -0.00000
 --------------------------------------------------------
       Center         ----  Spin Dipole Couplings  ----
                      3XX-RR        3YY-RR        3ZZ-RR
 --------------------------------------------------------
     1   Atom       -0.000000     -0.000000      0.000000
     2   Atom       -0.000000      0.000000     -0.000000
     3   Atom       -0.000000      0.000000     -0.000000
     4   Atom        0.000000     -0.000000      0.000000
     5   Atom       -0.000000      0.000000     -0.000000
     6   Atom       -0.000000      0.000000     -0.000000
 --------------------------------------------------------
                        XY            XZ            YZ
 --------------------------------------------------------
     1   Atom        0.000000      0.000000     -0.000000
     2   Atom        0.000000      0.000000      0.000000
     3   Atom        0.000000      0.000000      0.000000
     4   Atom       -0.000000      0.000000      0.000000
     5   Atom        0.000000      0.000000      0.000000
     6   Atom        0.000000      0.000000      0.000000
 --------------------------------------------------------


 ---------------------------------------------------------------------------------
              Anisotropic Spin Dipole Couplings in Principal Axis System
 ---------------------------------------------------------------------------------

       Atom             a.u.   MegaHertz   Gauss  10(-4) cm-1        Axes

              Baa    -0.0000    -0.000    -0.000    -0.000 -0.0628  0.7049  0.7065
     1 C(13)  Bbb    -0.0000    -0.000    -0.000    -0.000  0.9961  0.0885  0.0003
              Bcc     0.0000     0.000     0.000     0.000  0.0623 -0.7038  0.7077
 
              Baa    -0.0000    -0.000    -0.000    -0.000 -0.2906 -0.6433  0.7083
     2 H(1)   Bbb    -0.0000    -0.000    -0.000    -0.000  0.9115 -0.4112  0.0004
              Bcc     0.0000     0.000     0.000     0.000  0.2910  0.6458  0.7059
 
              Baa    -0.0000    -0.000    -0.000    -0.000 -0.6387 -0.0465  0.7680
     3 H(1)   Bbb     0.0000     0.000     0.000     0.000  0.7198 -0.3888  0.5751
              Bcc     0.0000     0.000     0.000     0.000  0.2719  0.9201  0.2818
 
              Baa    -0.0000    -0.000    -0.000    -0.000  0.2760  0.9190 -0.2814
     4 H(1)   Bbb    -0.0000    -0.000    -0.000    -0.000  0.7187 -0.3917 -0.5745
              Bcc     0.0000     0.000     0.000     0.000  0.6382  0.0436  0.7686
 
              Baa    -0.0000     0.000     0.000     0.000 -0.7068 -0.0201  0.7071
     5 O(17)  Bbb     0.0000    -0.000    -0.000    -0.000 -0.0294  0.9996 -0.0009
              Bcc     0.0000    -0.000    -0.000    -0.000  0.7068  0.0214  0.7071
 
              Baa    -0.0000    -0.000    -0.000    -0.000 -0.6954 -0.1033  0.7112
     6 H(1)   Bbb     0.0000     0.000     0.000     0.000 -0.1798  0.9831 -0.0330
              Bcc     0.0000     0.000     0.000     0.000  0.6958  0.1508  0.7022
 

 ---------------------------------------------------------------------------------

 1\1\GINC-RUSTAMS-MACBOOK-AIR\FOpt\UB3LYP\6-31G(d,p)\C1H4O1\RUSTAM\08-M
 ay-2019\0\\# opt ub3lyp/6-31g(d,p) guess=(core,mix,always)\\Title Card
  Required\\0,1\C,-3.3582810726,-0.3821892866,0.0117052302\H,-2.9856734
 374,-1.4096132242,0.0274795632\H,-3.001263951,0.0929063757,-0.91459685
 25\H,-4.4576003401,-0.4215428843,-0.0225131477\O,-2.866608798,0.252735
 8698,1.1805318585\H,-3.1885995809,1.1626455896,1.1784704483\\Version=E
 M64M-G16RevA.03\State=1-A\HF=-115.7239644\S2=0.\S2-1=0.\S2A=0.\RMSD=9.
 630e-09\RMSF=1.494e-05\Dipole=-0.3761108,0.3153792,-0.4329211\Quadrupo
 le=-0.7642135,1.6872234,-0.9230099,-0.3733053,-0.4351259,0.7243651\PG=
 C01 [X(C1H4O1)]\\@


 HICKORY, DICKORY, DOCK
 TWO MICE RAN UP THE CLOCK
 THE CLOCK STRUCK ONE...
 THE OTHER ESCAPED WITH MINOR INJURIES.
 Job cpu time:       0 days  0 hours  1 minutes 21.7 seconds.
 Elapsed time:       0 days  0 hours  1 minutes 27.5 seconds.
 File lengths (MBytes):  RWF=      6 Int=      0 D2E=      0 Chk=      1 Scr=      1
 Normal termination of Gaussian 16 at Wed May  8 11:06:04 2019.
