 Entering Gaussian System, Link 0=g16
 Input=/Users/rustam/Documents/Projects/Collaborations/Li-Colab/GaN-carbene/water.gjf
 Output=/Users/rustam/Documents/Projects/Collaborations/Li-Colab/GaN-carbene/water.log
 Initial command:
 /Applications/G16/g16/l1.exe "/Users/rustam/G16-scratch/Gau-86644.inp" -scrdir="/Users/rustam/G16-scratch/"
 Entering Link 1 = /Applications/G16/g16/l1.exe PID=     86645.
  
 Copyright (c) 1988,1990,1992,1993,1995,1998,2003,2009,2016,
            Gaussian, Inc.  All Rights Reserved.
  
 This is part of the Gaussian(R) 16 program.  It is based on
 the Gaussian(R) 09 system (copyright 2009, Gaussian, Inc.),
 the Gaussian(R) 03 system (copyright 2003, Gaussian, Inc.),
 the Gaussian(R) 98 system (copyright 1998, Gaussian, Inc.),
 the Gaussian(R) 94 system (copyright 1995, Gaussian, Inc.),
 the Gaussian 92(TM) system (copyright 1992, Gaussian, Inc.),
 the Gaussian 90(TM) system (copyright 1990, Gaussian, Inc.),
 the Gaussian 88(TM) system (copyright 1988, Gaussian, Inc.),
 the Gaussian 86(TM) system (copyright 1986, Carnegie Mellon
 University), and the Gaussian 82(TM) system (copyright 1983,
 Carnegie Mellon University). Gaussian is a federally registered
 trademark of Gaussian, Inc.
  
 This software contains proprietary and confidential information,
 including trade secrets, belonging to Gaussian, Inc.
  
 This software is provided under written license and may be
 used, copied, transmitted, or stored only in accord with that
 written license.
  
 The following legend is applicable only to US Government
 contracts under FAR:
  
                    RESTRICTED RIGHTS LEGEND
  
 Use, reproduction and disclosure by the US Government is
 subject to restrictions as set forth in subparagraphs (a)
 and (c) of the Commercial Computer Software - Restricted
 Rights clause in FAR 52.227-19.
  
 Gaussian, Inc.
 340 Quinnipiac St., Bldg. 40, Wallingford CT 06492
  
  
 ---------------------------------------------------------------
 Warning -- This program may not be used in any manner that
 competes with the business of Gaussian, Inc. or will provide
 assistance to any competitor of Gaussian, Inc.  The licensee
 of this program is prohibited from giving any competitor of
 Gaussian, Inc. access to this program.  By using this program,
 the user acknowledges that Gaussian, Inc. is engaged in the
 business of creating and licensing software in the field of
 computational chemistry and represents and warrants to the
 licensee that it is not a competitor of Gaussian, Inc. and that
 it will not use this program in any manner prohibited above.
 ---------------------------------------------------------------
  

 Cite this work as:
 Gaussian 16, Revision A.03,
 M. J. Frisch, G. W. Trucks, H. B. Schlegel, G. E. Scuseria, 
 M. A. Robb, J. R. Cheeseman, G. Scalmani, V. Barone, 
 G. A. Petersson, H. Nakatsuji, X. Li, M. Caricato, A. V. Marenich, 
 J. Bloino, B. G. Janesko, R. Gomperts, B. Mennucci, H. P. Hratchian, 
 J. V. Ortiz, A. F. Izmaylov, J. L. Sonnenberg, D. Williams-Young, 
 F. Ding, F. Lipparini, F. Egidi, J. Goings, B. Peng, A. Petrone, 
 T. Henderson, D. Ranasinghe, V. G. Zakrzewski, J. Gao, N. Rega, 
 G. Zheng, W. Liang, M. Hada, M. Ehara, K. Toyota, R. Fukuda, 
 J. Hasegawa, M. Ishida, T. Nakajima, Y. Honda, O. Kitao, H. Nakai, 
 T. Vreven, K. Throssell, J. A. Montgomery, Jr., J. E. Peralta, 
 F. Ogliaro, M. J. Bearpark, J. J. Heyd, E. N. Brothers, K. N. Kudin, 
 V. N. Staroverov, T. A. Keith, R. Kobayashi, J. Normand, 
 K. Raghavachari, A. P. Rendell, J. C. Burant, S. S. Iyengar, 
 J. Tomasi, M. Cossi, J. M. Millam, M. Klene, C. Adamo, R. Cammi, 
 J. W. Ochterski, R. L. Martin, K. Morokuma, O. Farkas, 
 J. B. Foresman, and D. J. Fox, Gaussian, Inc., Wallingford CT, 2016.
 
 ******************************************
 Gaussian 16:  EM64M-G16RevA.03 25-Dec-2016
                 8-May-2019 
 ******************************************
 %mem=4GB
 %chk=water.chk
 -----------------------------------------------
 # opt ub3lyp/6-31g(d,p) guess=(core,mix,always)
 -----------------------------------------------
 1/18=20,19=15,26=3,38=1/1,3;
 2/9=110,12=2,17=6,18=5,40=1/2;
 3/5=1,6=6,7=101,11=2,25=1,30=1,71=1,74=-5,116=2/1,2,3;
 4/5=2,13=-1/1;
 5/5=2,38=5/2;
 6/7=2,8=2,9=2,10=2,28=1/1;
 7//1,2,3,16;
 1/18=20,19=15,26=3/3(2);
 2/9=110/2;
 99//99;
 2/9=110/2;
 3/5=1,6=6,7=101,11=2,25=1,30=1,71=1,74=-5,116=2/1,2,3;
 4/5=2,13=-1/1;
 5/5=2,38=5/2;
 7//1,2,3,16;
 1/18=20,19=15,26=3/3(-5);
 2/9=110/2;
 6/7=2,8=2,9=2,10=2,19=2,28=1/1;
 99/9=1/99;
 -------------------
 Title Card Required
 -------------------
 Symbolic Z-matrix:
 Charge =  0 Multiplicity = 1
 O                    -3.35606  -0.40909   0. 
 H                    -2.39606  -0.40909   0. 
 H                    -3.67652   0.49584   0. 
 

 GradGradGradGradGradGradGradGradGradGradGradGradGradGradGradGradGradGrad
 Berny optimization.
 Initialization pass.
                           ----------------------------
                           !    Initial Parameters    !
                           ! (Angstroms and Degrees)  !
 --------------------------                            --------------------------
 ! Name  Definition              Value          Derivative Info.                !
 --------------------------------------------------------------------------------
 ! R1    R(1,2)                  0.96           estimate D2E/DX2                !
 ! R2    R(1,3)                  0.96           estimate D2E/DX2                !
 ! A1    A(2,1,3)              109.5            estimate D2E/DX2                !
 --------------------------------------------------------------------------------
 Trust Radius=3.00D-01 FncErr=1.00D-07 GrdErr=1.00D-06 EigMax=2.50D+02 EigMin=1.00D-04
 Number of steps in this run=     20 maximum allowed number of steps=    100.
 GradGradGradGradGradGradGradGradGradGradGradGradGradGradGradGradGradGrad

                          Input orientation:                          
 ---------------------------------------------------------------------
 Center     Atomic      Atomic             Coordinates (Angstroms)
 Number     Number       Type             X           Y           Z
 ---------------------------------------------------------------------
      1          8           0       -3.356061   -0.409091    0.000000
      2          1           0       -2.396061   -0.409091    0.000000
      3          1           0       -3.676515    0.495845    0.000000
 ---------------------------------------------------------------------
                    Distance matrix (angstroms):
                    1          2          3
     1  O    0.000000
     2  H    0.960000   0.000000
     3  H    0.960000   1.567952   0.000000
 Stoichiometry    H2O
 Framework group  C2V[C2(O),SGV(H2)]
 Deg. of freedom     2
 Full point group                 C2V     NOp   4
 Largest Abelian subgroup         C2V     NOp   4
 Largest concise Abelian subgroup C2      NOp   2
                         Standard orientation:                         
 ---------------------------------------------------------------------
 Center     Atomic      Atomic             Coordinates (Angstroms)
 Number     Number       Type             X           Y           Z
 ---------------------------------------------------------------------
      1          8           0       -0.000000   -0.000000    0.110812
      2          1           0       -0.000000    0.783976   -0.443248
      3          1           0       -0.000000   -0.783976   -0.443248
 ---------------------------------------------------------------------
 Rotational constants (GHZ):         919.6759719         407.9403295         282.5913772
 Standard basis: 6-31G(d,p) (6D, 7F)
 There are    12 symmetry adapted cartesian basis functions of A1  symmetry.
 There are     2 symmetry adapted cartesian basis functions of A2  symmetry.
 There are     4 symmetry adapted cartesian basis functions of B1  symmetry.
 There are     7 symmetry adapted cartesian basis functions of B2  symmetry.
 There are    12 symmetry adapted basis functions of A1  symmetry.
 There are     2 symmetry adapted basis functions of A2  symmetry.
 There are     4 symmetry adapted basis functions of B1  symmetry.
 There are     7 symmetry adapted basis functions of B2  symmetry.
    25 basis functions,    42 primitive gaussians,    25 cartesian basis functions
     5 alpha electrons        5 beta electrons
       nuclear repulsion energy         9.1571160246 Hartrees.
 NAtoms=    3 NActive=    3 NUniq=    2 SFac= 2.25D+00 NAtFMM=   60 NAOKFM=F Big=F
 Integral buffers will be    131072 words long.
 Raffenetti 2 integral format.
 Two-electron integral symmetry is turned on.
 One-electron integrals computed using PRISM.
 NBasis=    25 RedAO= T EigKep=  2.21D-02  NBF=    12     2     4     7
 NBsUse=    25 1.00D-06 EigRej= -1.00D+00 NBFU=    12     2     4     7
 Core hamiltonian diagonalized for initial guess.
 Mixing orbitals, IMix= 1 IMixAn=  0 NRI=1 NE=    5 Coef=  7.07106781D-01  7.07106781D-01
 Mixing orbitals, IMix= 1 IMixAn=  0 NRI=1 NE=    5 Coef= -7.07106781D-01  7.07106781D-01
 Initial guess orbital symmetries:
 Alpha Orbitals:
       Occupied  (A1) (A1) (B2) (A1) (?A)
       Virtual   (?A) (A1) (A1) (A2) (B1) (A1) (B2) (A1) (B1) (A1)
                 (B2) (A1) (B2) (B2) (A2) (B1) (A1) (A1) (A1) (B2)
 Beta  Orbitals:
       Occupied  (A1) (A1) (B2) (A1) (?A)
       Virtual   (?A) (A1) (A1) (A2) (B1) (A1) (B2) (A1) (B1) (A1)
                 (B2) (A1) (B2) (B2) (A2) (B1) (A1) (A1) (A1) (B2)
 Initial guess <Sx>= 0.0000 <Sy>= 0.0000 <Sz>= 0.0000 <S**2>= 1.0000 S= 0.6180
 Keep R1 and R2 ints in memory in symmetry-blocked form, NReq=916845.
 Requested convergence on RMS density matrix=1.00D-08 within 128 cycles.
 Requested convergence on MAX density matrix=1.00D-06.
 Requested convergence on             energy=1.00D-06.
 No special actions if energy rises.
 Integral accuracy reduced to 1.0D-05 until final iterations.
 An orbital has undefined symmetry, so N**3 symmetry is turned off.
 Density matrix breaks symmetry, PCut= 1.00D-04
 Density matrix has no symmetry -- integrals replicated.
 Density matrix breaks symmetry, PCut= 1.00D-04
 Density matrix has no symmetry -- integrals replicated.
 Density matrix breaks symmetry, PCut= 1.00D-04
 Density matrix has no symmetry -- integrals replicated.
 Density matrix breaks symmetry, PCut= 1.00D-04
 Density matrix has no symmetry -- integrals replicated.
 Density matrix breaks symmetry, PCut= 1.00D-04
 Density matrix has no symmetry -- integrals replicated.
 Density matrix breaks symmetry, PCut= 1.00D-04
 Density matrix has no symmetry -- integrals replicated.
 Density matrix breaks symmetry, PCut= 1.00D-04
 Density matrix has no symmetry -- integrals replicated.
 Density matrix breaks symmetry, PCut= 1.00D-04
 Density matrix has no symmetry -- integrals replicated.
 Initial convergence to 1.0D-05 achieved.  Increase integral accuracy.
 SCF Done:  E(UB3LYP) =  -76.4189299887     A.U. after   12 cycles
            NFock= 12  Conv=0.96D-08     -V/T= 2.0077
 <Sx>= 0.0000 <Sy>= 0.0000 <Sz>= 0.0000 <S**2>=-0.0000 S=-0.0000
 <L.S>= 0.000000000000E+00
 Annihilation of the first spin contaminant:
 S**2 before annihilation    -0.0000,   after     0.0000

 **********************************************************************

            Population analysis using the SCF density.

 **********************************************************************

 Orbital symmetries:
 Alpha Orbitals:
       Occupied  (A1) (A1) (B2) (A1) (B1)
       Virtual   (A1) (B2) (B2) (A1) (A1) (B1) (B2) (A1) (A2) (A1)
                 (B1) (B2) (A1) (B2) (B1) (A2) (A1) (A1) (B2) (A1)
 Beta  Orbitals:
       Occupied  (A1) (A1) (B2) (A1) (B1)
       Virtual   (A1) (B2) (B2) (A1) (A1) (B1) (B2) (A1) (A2) (A1)
                 (B1) (B2) (A1) (B2) (B1) (A2) (A1) (A1) (B2) (A1)
 The electronic state is 1-A1.
 Alpha  occ. eigenvalues --  -19.13400  -0.99453  -0.52634  -0.35965  -0.29032
 Alpha virt. eigenvalues --    0.06722   0.15449   0.77849   0.79540   0.88825
 Alpha virt. eigenvalues --    0.89280   1.01925   1.15973   1.51863   1.57894
 Alpha virt. eigenvalues --    1.66293   2.23120   2.24126   2.48016   2.63303
 Alpha virt. eigenvalues --    2.68274   3.03447   3.32849   3.51472   3.72889
  Beta  occ. eigenvalues --  -19.13400  -0.99453  -0.52634  -0.35965  -0.29032
  Beta virt. eigenvalues --    0.06722   0.15449   0.77849   0.79540   0.88825
  Beta virt. eigenvalues --    0.89280   1.01925   1.15973   1.51863   1.57894
  Beta virt. eigenvalues --    1.66293   2.23120   2.24126   2.48016   2.63303
  Beta virt. eigenvalues --    2.68274   3.03447   3.32849   3.51472   3.72889
          Condensed to atoms (all electrons):
               1          2          3
     1  O    8.042765   0.288404   0.288404
     2  H    0.288404   0.428320  -0.026510
     3  H    0.288404  -0.026510   0.428320
          Atomic-Atomic Spin Densities.
               1          2          3
     1  O   -0.000000   0.000000   0.000000
     2  H    0.000000   0.000000  -0.000000
     3  H    0.000000  -0.000000   0.000000
 Mulliken charges and spin densities:
               1          2
     1  O   -0.619573  -0.000000
     2  H    0.309786   0.000000
     3  H    0.309786   0.000000
 Sum of Mulliken charges =  -0.00000   0.00000
 Mulliken charges and spin densities with hydrogens summed into heavy atoms:
               1          2
     1  O   -0.000000   0.000000
 Electronic spatial extent (au):  <R**2>=             19.0009
 Charge=             -0.0000 electrons
 Dipole moment (field-independent basis, Debye):
    X=             -0.0000    Y=              0.0000    Z=             -1.9531  Tot=              1.9531
 Quadrupole moment (field-independent basis, Debye-Ang):
   XX=             -7.1262   YY=             -4.0540   ZZ=             -6.1132
   XY=              0.0000   XZ=              0.0000   YZ=              0.0000
 Traceless Quadrupole moment (field-independent basis, Debye-Ang):
   XX=             -1.3617   YY=              1.7105   ZZ=             -0.3487
   XY=              0.0000   XZ=              0.0000   YZ=              0.0000
 Octapole moment (field-independent basis, Debye-Ang**2):
  XXX=              0.0000  YYY=             -0.0000  ZZZ=             -1.0737  XYY=             -0.0000
  XXY=             -0.0000  XXZ=             -0.2880  XZZ=              0.0000  YZZ=             -0.0000
  YYZ=             -1.2049  XYZ=             -0.0000
 Hexadecapole moment (field-independent basis, Debye-Ang**3):
 XXXX=             -5.1120 YYYY=             -5.9036 ZZZZ=             -6.1394 XXXY=             -0.0000
 XXXZ=             -0.0000 YYYX=             -0.0000 YYYZ=             -0.0000 ZZZX=             -0.0000
 ZZZY=             -0.0000 XXYY=             -2.1310 XXZZ=             -1.9156 YYZZ=             -1.7463
 XXYZ=              0.0000 YYXZ=              0.0000 ZZXY=             -0.0000
 N-N= 9.157116024600D+00 E-N=-1.989439760128D+02  KE= 7.583269956178D+01
 Symmetry A1   KE= 6.770207401846D+01
 Symmetry A2   KE= 6.456447889990D-31
 Symmetry B1   KE= 4.585287602781D+00
 Symmetry B2   KE= 3.545337940534D+00
 Symmetry A1   SP= 1.205559276568D-14
 Symmetry A2   SP= 2.354778912960D-32
 Symmetry B1   SP= 2.357449684472D-15
 Symmetry B2   SP= 5.814930160834D-15
                          Isotropic Fermi Contact Couplings
        Atom                 a.u.       MegaHertz       Gauss      10(-4) cm-1
     1  O(17)             -0.00000       0.00009       0.00003       0.00003
     2  H(1)               0.00000       0.00004       0.00002       0.00001
     3  H(1)               0.00000       0.00004       0.00002       0.00001
 --------------------------------------------------------
       Center         ----  Spin Dipole Couplings  ----
                      3XX-RR        3YY-RR        3ZZ-RR
 --------------------------------------------------------
     1   Atom       -0.000000     -0.000000      0.000000
     2   Atom        0.000000     -0.000000     -0.000000
     3   Atom        0.000000     -0.000000     -0.000000
 --------------------------------------------------------
                        XY            XZ            YZ
 --------------------------------------------------------
     1   Atom       -0.000000     -0.000000     -0.000000
     2   Atom       -0.000000      0.000000      0.000000
     3   Atom       -0.000000     -0.000000     -0.000000
 --------------------------------------------------------


 ---------------------------------------------------------------------------------
              Anisotropic Spin Dipole Couplings in Principal Axis System
 ---------------------------------------------------------------------------------

       Atom             a.u.   MegaHertz   Gauss  10(-4) cm-1        Axes

              Baa    -0.0000     0.000     0.000     0.000  1.0000  0.0000  0.0000
     1 O(17)  Bbb    -0.0000     0.000     0.000     0.000 -0.0000  1.0000  0.0000
              Bcc     0.0000    -0.000    -0.000    -0.000 -0.0000 -0.0000  1.0000
 
              Baa    -0.0000    -0.000    -0.000    -0.000  0.0000  0.7685 -0.6399
     2 H(1)   Bbb     0.0000     0.000     0.000     0.000  0.0000  0.6399  0.7685
              Bcc     0.0000     0.000     0.000     0.000  1.0000 -0.0000  0.0000
 
              Baa    -0.0000    -0.000    -0.000    -0.000  0.0000  0.7685  0.6399
     3 H(1)   Bbb     0.0000     0.000     0.000     0.000 -0.0000 -0.6399  0.7685
              Bcc     0.0000     0.000     0.000     0.000  1.0000 -0.0000  0.0000
 

 ---------------------------------------------------------------------------------

 Calling FoFJK, ICntrl=      2127 FMM=F ISym2X=1 I1Cent= 0 IOpClX= 1 NMat=1 NMatS=1 NMatT=0.
 ***** Axes restored to original set *****
 -------------------------------------------------------------------
 Center     Atomic                   Forces (Hartrees/Bohr)
 Number     Number              X              Y              Z
 -------------------------------------------------------------------
      1        8          -0.009454186   -0.013377363    0.000000000
      2        1           0.002215778    0.008463503   -0.000000000
      3        1           0.007238407    0.004913860   -0.000000000
 -------------------------------------------------------------------
 Cartesian Forces:  Max     0.013377363 RMS     0.006842811

 GradGradGradGradGradGradGradGradGradGradGradGradGradGradGradGradGradGrad
 Berny optimization.
 FormGI is forming the generalized inverse of G from B-inverse, IUseBI=4.
 Internal  Forces:  Max     0.015353955 RMS     0.009047344
 Search for a local minimum.
 Step number   1 out of a maximum of   20
 All quantities printed in internal units (Hartrees-Bohrs-Radians)
 Mixed Optimization -- RFO/linear search
 Second derivative matrix not updated -- first step.
 The second derivative matrix:
                          R1        R2        A1
           R1           0.55473
           R2           0.00000   0.55473
           A1           0.00000   0.00000   0.16000
 ITU=  0
     Eigenvalues ---    0.16000   0.55473   0.55473
 RFO step:  Lambda=-1.47757259D-03 EMin= 1.60000000D-01
 Linear search not attempted -- first point.
 Iteration  1 RMS(Cart)=  0.05117198 RMS(Int)=  0.00167715
 Iteration  2 RMS(Cart)=  0.00152743 RMS(Int)=  0.00000018
 Iteration  3 RMS(Cart)=  0.00000017 RMS(Int)=  0.00000000
 ClnCor:  largest displacement from symmetrization is 3.13D-15 for atom     3.
 Variable       Old X    -DE/DX   Delta X   Delta X   Delta X     New X
                                 (Linear)    (Quad)   (Total)
    R1        1.81414   0.00222   0.00000   0.00398   0.00398   1.81812
    R2        1.81414   0.00222   0.00000   0.00398   0.00398   1.81812
    A1        1.91114  -0.01535   0.00000  -0.09508  -0.09508   1.81605
         Item               Value     Threshold  Converged?
 Maximum Force            0.015354     0.000450     NO 
 RMS     Force            0.009047     0.000300     NO 
 Maximum Displacement     0.053227     0.001800     NO 
 RMS     Displacement     0.051927     0.001200     NO 
 Predicted change in Energy=-7.454885D-04
 GradGradGradGradGradGradGradGradGradGradGradGradGradGradGradGradGradGrad

                          Input orientation:                          
 ---------------------------------------------------------------------
 Center     Atomic      Atomic             Coordinates (Angstroms)
 Number     Number       Type             X           Y           Z
 ---------------------------------------------------------------------
      1          8           0       -3.370654   -0.429740   -0.000000
      2          1           0       -2.409633   -0.384017   -0.000000
      3          1           0       -3.648349    0.491421    0.000000
 ---------------------------------------------------------------------
                    Distance matrix (angstroms):
                    1          2          3
     1  O    0.000000
     2  H    0.962108   0.000000
     3  H    0.962108   1.516841   0.000000
 Stoichiometry    H2O
 Framework group  C2V[C2(O),SGV(H2)]
 Deg. of freedom     2
 Full point group                 C2V     NOp   4
 Largest Abelian subgroup         C2V     NOp   4
 Largest concise Abelian subgroup C2      NOp   2
                         Standard orientation:                         
 ---------------------------------------------------------------------
 Center     Atomic      Atomic             Coordinates (Angstroms)
 Number     Number       Type             X           Y           Z
 ---------------------------------------------------------------------
      1          8           0        0.000000    0.000000    0.118398
      2          1           0       -0.000000    0.758421   -0.473591
      3          1           0       -0.000000   -0.758421   -0.473591
 ---------------------------------------------------------------------
 Rotational constants (GHZ):         805.6034085         435.8948791         282.8504911
 Standard basis: 6-31G(d,p) (6D, 7F)
 There are    12 symmetry adapted cartesian basis functions of A1  symmetry.
 There are     2 symmetry adapted cartesian basis functions of A2  symmetry.
 There are     4 symmetry adapted cartesian basis functions of B1  symmetry.
 There are     7 symmetry adapted cartesian basis functions of B2  symmetry.
 There are    12 symmetry adapted basis functions of A1  symmetry.
 There are     2 symmetry adapted basis functions of A2  symmetry.
 There are     4 symmetry adapted basis functions of B1  symmetry.
 There are     7 symmetry adapted basis functions of B2  symmetry.
    25 basis functions,    42 primitive gaussians,    25 cartesian basis functions
     5 alpha electrons        5 beta electrons
       nuclear repulsion energy         9.1491633347 Hartrees.
 NAtoms=    3 NActive=    3 NUniq=    2 SFac= 2.25D+00 NAtFMM=   60 NAOKFM=F Big=F
 Integral buffers will be    131072 words long.
 Raffenetti 2 integral format.
 Two-electron integral symmetry is turned on.
 One-electron integrals computed using PRISM.
 NBasis=    25 RedAO= T EigKep=  2.21D-02  NBF=    12     2     4     7
 NBsUse=    25 1.00D-06 EigRej= -1.00D+00 NBFU=    12     2     4     7
 Core hamiltonian diagonalized for initial guess.
 Mixing orbitals, IMix= 1 IMixAn=  0 NRI=1 NE=    5 Coef=  7.07106781D-01  7.07106781D-01
 Mixing orbitals, IMix= 1 IMixAn=  0 NRI=1 NE=    5 Coef= -7.07106781D-01  7.07106781D-01
 Initial guess orbital symmetries:
 Alpha Orbitals:
       Occupied  (A1) (A1) (B2) (A1) (?A)
       Virtual   (?A) (A1) (A1) (A2) (B1) (A1) (B2) (A1) (B1) (A1)
                 (B2) (A1) (B2) (B2) (A2) (B1) (A1) (A1) (A1) (B2)
 Beta  Orbitals:
       Occupied  (A1) (A1) (B2) (A1) (?A)
       Virtual   (?A) (A1) (A1) (A2) (B1) (A1) (B2) (A1) (B1) (A1)
                 (B2) (A1) (B2) (B2) (A2) (B1) (A1) (A1) (A1) (B2)
 Initial guess <Sx>= 0.0000 <Sy>= 0.0000 <Sz>= 0.0000 <S**2>= 1.0000 S= 0.6180
 Keep R1 and R2 ints in memory in symmetry-blocked form, NReq=916845.
 Requested convergence on RMS density matrix=1.00D-08 within 128 cycles.
 Requested convergence on MAX density matrix=1.00D-06.
 Requested convergence on             energy=1.00D-06.
 No special actions if energy rises.
 Integral accuracy reduced to 1.0D-05 until final iterations.
 An orbital has undefined symmetry, so N**3 symmetry is turned off.
 Density matrix breaks symmetry, PCut= 1.00D-04
 Density matrix has no symmetry -- integrals replicated.
 Density matrix breaks symmetry, PCut= 1.00D-04
 Density matrix has no symmetry -- integrals replicated.
 Density matrix breaks symmetry, PCut= 1.00D-04
 Density matrix has no symmetry -- integrals replicated.
 Density matrix breaks symmetry, PCut= 1.00D-04
 Density matrix has no symmetry -- integrals replicated.
 Density matrix breaks symmetry, PCut= 1.00D-04
 Density matrix has no symmetry -- integrals replicated.
 Density matrix breaks symmetry, PCut= 1.00D-04
 Density matrix has no symmetry -- integrals replicated.
 Density matrix breaks symmetry, PCut= 1.00D-04
 Density matrix has no symmetry -- integrals replicated.
 Density matrix breaks symmetry, PCut= 1.00D-04
 Density matrix has no symmetry -- integrals replicated.
 Initial convergence to 1.0D-05 achieved.  Increase integral accuracy.
 SCF Done:  E(UB3LYP) =  -76.4197175521     A.U. after   13 cycles
            NFock= 13  Conv=0.34D-08     -V/T= 2.0077
 <Sx>= 0.0000 <Sy>= 0.0000 <Sz>= 0.0000 <S**2>=-0.0000 S=-0.0000
 <L.S>= 0.000000000000E+00
 Annihilation of the first spin contaminant:
 S**2 before annihilation    -0.0000,   after     0.0000
 Calling FoFJK, ICntrl=      2127 FMM=F ISym2X=1 I1Cent= 0 IOpClX= 1 NMat=1 NMatS=1 NMatT=0.
 ***** Axes restored to original set *****
 -------------------------------------------------------------------
 Center     Atomic                   Forces (Hartrees/Bohr)
 Number     Number              X              Y              Z
 -------------------------------------------------------------------
      1        8          -0.002428061   -0.003435627    0.000000000
      2        1           0.003038342    0.000428518   -0.000000000
      3        1          -0.000610281    0.003007109   -0.000000000
 -------------------------------------------------------------------
 Cartesian Forces:  Max     0.003435627 RMS     0.002014649

 GradGradGradGradGradGradGradGradGradGradGradGradGradGradGradGradGradGrad
 Berny optimization.
 Using GEDIIS/GDIIS optimizer.
 FormGI is forming the generalized inverse of G from B-inverse, IUseBI=4.
 Internal  Forces:  Max     0.003055274 RMS     0.002512325
 Search for a local minimum.
 Step number   2 out of a maximum of   20
 All quantities printed in internal units (Hartrees-Bohrs-Radians)
 Mixed Optimization -- RFO/linear search
 Update second derivatives using D2CorX and points    1    2
 DE= -7.88D-04 DEPred=-7.45D-04 R= 1.06D+00
 TightC=F SS=  1.41D+00  RLast= 9.53D-02 DXNew= 5.0454D-01 2.8575D-01
 Trust test= 1.06D+00 RLast= 9.53D-02 DXMaxT set to 3.00D-01
 The second derivative matrix:
                          R1        R2        A1
           R1           0.55190
           R2          -0.00283   0.55190
           A1           0.03183   0.03183   0.15872
 ITU=  1  0
 Use linear search instead of GDIIS.
     Eigenvalues ---    0.15360   0.55419   0.55473
 RFO step:  Lambda=-3.49602852D-05 EMin= 1.53596721D-01
 Quartic linear search produced a step of  0.04954.
 Iteration  1 RMS(Cart)=  0.00375625 RMS(Int)=  0.00001128
 Iteration  2 RMS(Cart)=  0.00001272 RMS(Int)=  0.00000000
 Iteration  3 RMS(Cart)=  0.00000000 RMS(Int)=  0.00000000
 ClnCor:  largest displacement from symmetrization is 2.29D-15 for atom     1.
 Variable       Old X    -DE/DX   Delta X   Delta X   Delta X     New X
                                 (Linear)    (Quad)   (Total)
    R1        1.81812   0.00306   0.00020   0.00567   0.00587   1.82399
    R2        1.81812   0.00306   0.00020   0.00567   0.00587   1.82399
    A1        1.81605  -0.00052  -0.00471  -0.00064  -0.00535   1.81070
         Item               Value     Threshold  Converged?
 Maximum Force            0.003055     0.000450     NO 
 RMS     Force            0.002512     0.000300     NO 
 Maximum Displacement     0.004060     0.001800     NO 
 RMS     Displacement     0.003756     0.001200     NO 
 Predicted change in Energy=-1.943671D-05
 GradGradGradGradGradGradGradGradGradGradGradGradGradGradGradGradGradGrad

                          Input orientation:                          
 ---------------------------------------------------------------------
 Center     Atomic      Atomic             Coordinates (Angstroms)
 Number     Number       Type             X           Y           Z
 ---------------------------------------------------------------------
      1          8           0       -3.372173   -0.431889    0.000000
      2          1           0       -2.408174   -0.383438   -0.000000
      3          1           0       -3.648290    0.492989    0.000000
 ---------------------------------------------------------------------
                    Distance matrix (angstroms):
                    1          2          3
     1  O    0.000000
     2  H    0.965215   0.000000
     3  H    0.965215   1.518555   0.000000
 Stoichiometry    H2O
 Framework group  C2V[C2(O),SGV(H2)]
 Deg. of freedom     2
 Full point group                 C2V     NOp   4
 Largest Abelian subgroup         C2V     NOp   4
 Largest concise Abelian subgroup C2      NOp   2
                         Standard orientation:                         
 ---------------------------------------------------------------------
 Center     Atomic      Atomic             Coordinates (Angstroms)
 Number     Number       Type             X           Y           Z
 ---------------------------------------------------------------------
      1          8           0       -0.000000   -0.000000    0.119187
      2          1           0       -0.000000    0.759278   -0.476747
      3          1           0       -0.000000   -0.759278   -0.476747
 ---------------------------------------------------------------------
 Rotational constants (GHZ):         794.9702234         434.9113836         281.1177904
 Standard basis: 6-31G(d,p) (6D, 7F)
 There are    12 symmetry adapted cartesian basis functions of A1  symmetry.
 There are     2 symmetry adapted cartesian basis functions of A2  symmetry.
 There are     4 symmetry adapted cartesian basis functions of B1  symmetry.
 There are     7 symmetry adapted cartesian basis functions of B2  symmetry.
 There are    12 symmetry adapted basis functions of A1  symmetry.
 There are     2 symmetry adapted basis functions of A2  symmetry.
 There are     4 symmetry adapted basis functions of B1  symmetry.
 There are     7 symmetry adapted basis functions of B2  symmetry.
    25 basis functions,    42 primitive gaussians,    25 cartesian basis functions
     5 alpha electrons        5 beta electrons
       nuclear repulsion energy         9.1204415329 Hartrees.
 NAtoms=    3 NActive=    3 NUniq=    2 SFac= 2.25D+00 NAtFMM=   60 NAOKFM=F Big=F
 Integral buffers will be    131072 words long.
 Raffenetti 2 integral format.
 Two-electron integral symmetry is turned on.
 One-electron integrals computed using PRISM.
 NBasis=    25 RedAO= T EigKep=  2.22D-02  NBF=    12     2     4     7
 NBsUse=    25 1.00D-06 EigRej= -1.00D+00 NBFU=    12     2     4     7
 Core hamiltonian diagonalized for initial guess.
 Mixing orbitals, IMix= 1 IMixAn=  0 NRI=1 NE=    5 Coef=  7.07106781D-01  7.07106781D-01
 Mixing orbitals, IMix= 1 IMixAn=  0 NRI=1 NE=    5 Coef= -7.07106781D-01  7.07106781D-01
 Initial guess orbital symmetries:
 Alpha Orbitals:
       Occupied  (A1) (A1) (B2) (A1) (?A)
       Virtual   (?A) (A1) (A1) (A2) (B1) (A1) (B2) (A1) (B1) (A1)
                 (B2) (A1) (B2) (B2) (A2) (B1) (A1) (A1) (A1) (B2)
 Beta  Orbitals:
       Occupied  (A1) (A1) (B2) (A1) (?A)
       Virtual   (?A) (A1) (A1) (A2) (B1) (A1) (B2) (A1) (B1) (A1)
                 (B2) (A1) (B2) (B2) (A2) (B1) (A1) (A1) (A1) (B2)
 Initial guess <Sx>= 0.0000 <Sy>= 0.0000 <Sz>= 0.0000 <S**2>= 1.0000 S= 0.6180
 Keep R1 and R2 ints in memory in symmetry-blocked form, NReq=916845.
 Requested convergence on RMS density matrix=1.00D-08 within 128 cycles.
 Requested convergence on MAX density matrix=1.00D-06.
 Requested convergence on             energy=1.00D-06.
 No special actions if energy rises.
 An orbital has undefined symmetry, so N**3 symmetry is turned off.
 Density matrix breaks symmetry, PCut= 1.00D-04
 Density matrix has no symmetry -- integrals replicated.
 Density matrix breaks symmetry, PCut= 1.00D-04
 Density matrix has no symmetry -- integrals replicated.
 Density matrix breaks symmetry, PCut= 1.00D-04
 Density matrix has no symmetry -- integrals replicated.
 Density matrix breaks symmetry, PCut= 1.00D-04
 Density matrix has no symmetry -- integrals replicated.
 Density matrix breaks symmetry, PCut= 1.00D-04
 Density matrix has no symmetry -- integrals replicated.
 Density matrix breaks symmetry, PCut= 1.00D-04
 Density matrix has no symmetry -- integrals replicated.
 Density matrix breaks symmetry, PCut= 1.00D-04
 Density matrix has no symmetry -- integrals replicated.
 Density matrix breaks symmetry, PCut= 1.00D-04
 Density matrix has no symmetry -- integrals replicated.
 SCF Done:  E(UB3LYP) =  -76.4197373997     A.U. after   12 cycles
            NFock= 12  Conv=0.26D-08     -V/T= 2.0078
 <Sx>= 0.0000 <Sy>= 0.0000 <Sz>= 0.0000 <S**2>= 0.0000 S= 0.0000
 <L.S>= 0.000000000000E+00
 Annihilation of the first spin contaminant:
 S**2 before annihilation     0.0000,   after    -0.0000
 Calling FoFJK, ICntrl=      2127 FMM=F ISym2X=1 I1Cent= 0 IOpClX= 1 NMat=1 NMatS=1 NMatT=0.
 ***** Axes restored to original set *****
 -------------------------------------------------------------------
 Center     Atomic                   Forces (Hartrees/Bohr)
 Number     Number              X              Y              Z
 -------------------------------------------------------------------
      1        8          -0.000072668   -0.000102822    0.000000000
      2        1           0.000098696    0.000007338   -0.000000000
      3        1          -0.000026029    0.000095485   -0.000000000
 -------------------------------------------------------------------
 Cartesian Forces:  Max     0.000102822 RMS     0.000062754

 GradGradGradGradGradGradGradGradGradGradGradGradGradGradGradGradGradGrad
 Berny optimization.
 Using GEDIIS/GDIIS optimizer.
 FormGI is forming the generalized inverse of G from B-inverse, IUseBI=4.
 Internal  Forces:  Max     0.000098940 RMS     0.000080823
 Search for a local minimum.
 Step number   3 out of a maximum of   20
 All quantities printed in internal units (Hartrees-Bohrs-Radians)
 Mixed Optimization -- En-DIIS/RFO-DIIS
 Update second derivatives using D2CorX and points    1    2    3
 DE= -1.98D-05 DEPred=-1.94D-05 R= 1.02D+00
 TightC=F SS=  1.41D+00  RLast= 9.88D-03 DXNew= 5.0454D-01 2.9637D-02
 Trust test= 1.02D+00 RLast= 9.88D-03 DXMaxT set to 3.00D-01
 The second derivative matrix:
                          R1        R2        A1
           R1           0.54263
           R2          -0.01211   0.54263
           A1           0.02962   0.02962   0.16052
 ITU=  1  1  0
 Use linear search instead of GDIIS.
     Eigenvalues ---    0.15583   0.53520   0.55473
 RFO step:  Lambda= 0.00000000D+00 EMin= 1.55832839D-01
 Quartic linear search produced a step of  0.03198.
 Iteration  1 RMS(Cart)=  0.00011939 RMS(Int)=  0.00000001
 Iteration  2 RMS(Cart)=  0.00000001 RMS(Int)=  0.00000000
 ClnCor:  largest displacement from symmetrization is 8.88D-16 for atom     3.
 Variable       Old X    -DE/DX   Delta X   Delta X   Delta X     New X
                                 (Linear)    (Quad)   (Total)
    R1        1.82399   0.00010   0.00019   0.00001   0.00019   1.82419
    R2        1.82399   0.00010   0.00019   0.00001   0.00019   1.82419
    A1        1.81070  -0.00000  -0.00017   0.00007  -0.00010   1.81060
         Item               Value     Threshold  Converged?
 Maximum Force            0.000099     0.000450     YES
 RMS     Force            0.000081     0.000300     YES
 Maximum Displacement     0.000114     0.001800     YES
 RMS     Displacement     0.000119     0.001200     YES
 Predicted change in Energy=-1.920135D-08
 Optimization completed.
    -- Stationary point found.
                           ----------------------------
                           !   Optimized Parameters   !
                           ! (Angstroms and Degrees)  !
 --------------------------                            --------------------------
 ! Name  Definition              Value          Derivative Info.                !
 --------------------------------------------------------------------------------
 ! R1    R(1,2)                  0.9652         -DE/DX =    0.0001              !
 ! R2    R(1,3)                  0.9652         -DE/DX =    0.0001              !
 ! A1    A(2,1,3)              103.7454         -DE/DX =    0.0                 !
 --------------------------------------------------------------------------------
 GradGradGradGradGradGradGradGradGradGradGradGradGradGradGradGradGradGrad

                          Input orientation:                          
 ---------------------------------------------------------------------
 Center     Atomic      Atomic             Coordinates (Angstroms)
 Number     Number       Type             X           Y           Z
 ---------------------------------------------------------------------
      1          8           0       -3.372173   -0.431889    0.000000
      2          1           0       -2.408174   -0.383438   -0.000000
      3          1           0       -3.648290    0.492989    0.000000
 ---------------------------------------------------------------------
                    Distance matrix (angstroms):
                    1          2          3
     1  O    0.000000
     2  H    0.965215   0.000000
     3  H    0.965215   1.518555   0.000000
 Stoichiometry    H2O
 Framework group  C2V[C2(O),SGV(H2)]
 Deg. of freedom     2
 Full point group                 C2V     NOp   4
 Largest Abelian subgroup         C2V     NOp   4
 Largest concise Abelian subgroup C2      NOp   2
                         Standard orientation:                         
 ---------------------------------------------------------------------
 Center     Atomic      Atomic             Coordinates (Angstroms)
 Number     Number       Type             X           Y           Z
 ---------------------------------------------------------------------
      1          8           0        0.000000    0.000000    0.119187
      2          1           0       -0.000000    0.759278   -0.476747
      3          1           0       -0.000000   -0.759278   -0.476747
 ---------------------------------------------------------------------
 Rotational constants (GHZ):         794.9702234         434.9113836         281.1177904

 **********************************************************************

            Population analysis using the SCF density.

 **********************************************************************

 Orbital symmetries:
 Alpha Orbitals:
       Occupied  (A1) (A1) (B2) (A1) (B1)
       Virtual   (A1) (B2) (B2) (A1) (B1) (A1) (B2) (A1) (A2) (A1)
                 (B1) (A1) (B2) (B2) (A2) (B1) (A1) (A1) (B2) (A1)
 Beta  Orbitals:
       Occupied  (A1) (A1) (B2) (A1) (B1)
       Virtual   (A1) (B2) (B2) (A1) (B1) (A1) (B2) (A1) (A2) (A1)
                 (B1) (A1) (B2) (B2) (A2) (B1) (A1) (A1) (B2) (A1)
 The electronic state is 1-A1.
 Alpha  occ. eigenvalues --  -19.13799  -0.99736  -0.51503  -0.37102  -0.29197
 Alpha virt. eigenvalues --    0.06538   0.15127   0.75691   0.80557   0.89135
 Alpha virt. eigenvalues --    0.89354   1.01558   1.17538   1.52951   1.53770
 Alpha virt. eigenvalues --    1.64365   2.23883   2.26829   2.45030   2.64115
 Alpha virt. eigenvalues --    2.66686   3.02806   3.30740   3.53165   3.69299
  Beta  occ. eigenvalues --  -19.13799  -0.99736  -0.51503  -0.37102  -0.29197
  Beta virt. eigenvalues --    0.06538   0.15127   0.75691   0.80557   0.89135
  Beta virt. eigenvalues --    0.89354   1.01558   1.17538   1.52951   1.53770
  Beta virt. eigenvalues --    1.64365   2.23883   2.26829   2.45030   2.64115
  Beta virt. eigenvalues --    2.66686   3.02806   3.30740   3.53165   3.69299
          Condensed to atoms (all electrons):
               1          2          3
     1  O    8.041870   0.283988   0.283988
     2  H    0.283988   0.439563  -0.028474
     3  H    0.283988  -0.028474   0.439563
          Atomic-Atomic Spin Densities.
               1          2          3
     1  O   -0.000000  -0.000000  -0.000000
     2  H   -0.000000   0.000000  -0.000000
     3  H   -0.000000  -0.000000   0.000000
 Mulliken charges and spin densities:
               1          2
     1  O   -0.609846  -0.000000
     2  H    0.304923   0.000000
     3  H    0.304923   0.000000
 Sum of Mulliken charges =   0.00000   0.00000
 Mulliken charges and spin densities with hydrogens summed into heavy atoms:
               1          2
     1  O    0.000000   0.000000
 Electronic spatial extent (au):  <R**2>=             19.0908
 Charge=              0.0000 electrons
 Dipole moment (field-independent basis, Debye):
    X=             -0.0000    Y=              0.0000    Z=             -2.0428  Tot=              2.0428
 Quadrupole moment (field-independent basis, Debye-Ang):
   XX=             -7.1376   YY=             -4.2969   ZZ=             -5.9758
   XY=              0.0000   XZ=              0.0000   YZ=             -0.0000
 Traceless Quadrupole moment (field-independent basis, Debye-Ang):
   XX=             -1.3341   YY=              1.5065   ZZ=             -0.1724
   XY=              0.0000   XZ=              0.0000   YZ=             -0.0000
 Octapole moment (field-independent basis, Debye-Ang**2):
  XXX=              0.0000  YYY=              0.0000  ZZZ=             -1.1613  XYY=             -0.0000
  XXY=              0.0000  XXZ=             -0.2979  XZZ=              0.0000  YZZ=              0.0000
  YYZ=             -1.1939  XYZ=             -0.0000
 Hexadecapole moment (field-independent basis, Debye-Ang**3):
 XXXX=             -5.1251 YYYY=             -6.1217 ZZZZ=             -6.2898 XXXY=             -0.0000
 XXXZ=             -0.0000 YYYX=             -0.0000 YYYZ=             -0.0000 ZZZX=             -0.0000
 ZZZY=             -0.0000 XXYY=             -2.1265 XXZZ=             -1.9555 YYZZ=             -1.7369
 XXYZ=              0.0000 YYXZ=              0.0000 ZZXY=             -0.0000
 N-N= 9.120441532894D+00 E-N=-1.988520189410D+02  KE= 7.582674416164D+01
 Symmetry A1   KE= 6.767623359455D+01
 Symmetry A2   KE= 1.049542864125D-19
 Symmetry B1   KE= 4.592864569356D+00
 Symmetry B2   KE= 3.557645997736D+00
 Symmetry A1   SP= 1.180468150399D-16
 Symmetry A2   SP=-1.072469640469D-25
 Symmetry B1   SP= 2.167539342817D-15
 Symmetry B2   SP= 3.647748238028D-15
                          Isotropic Fermi Contact Couplings
        Atom                 a.u.       MegaHertz       Gauss      10(-4) cm-1
     1  O(17)             -0.00000       0.00000       0.00000       0.00000
     2  H(1)               0.00000       0.00002       0.00001       0.00001
     3  H(1)               0.00000       0.00002       0.00001       0.00001
 --------------------------------------------------------
       Center         ----  Spin Dipole Couplings  ----
                      3XX-RR        3YY-RR        3ZZ-RR
 --------------------------------------------------------
     1   Atom        0.000000     -0.000000     -0.000000
     2   Atom        0.000000     -0.000000     -0.000000
     3   Atom        0.000000     -0.000000     -0.000000
 --------------------------------------------------------
                        XY            XZ            YZ
 --------------------------------------------------------
     1   Atom        0.000000      0.000000     -0.000000
     2   Atom        0.000000      0.000000      0.000000
     3   Atom       -0.000000     -0.000000     -0.000000
 --------------------------------------------------------


 ---------------------------------------------------------------------------------
              Anisotropic Spin Dipole Couplings in Principal Axis System
 ---------------------------------------------------------------------------------

       Atom             a.u.   MegaHertz   Gauss  10(-4) cm-1        Axes

              Baa    -0.0000     0.000     0.000     0.000 -0.0000  0.0000  1.0000
     1 O(17)  Bbb    -0.0000     0.000     0.000     0.000 -0.0000  1.0000 -0.0000
              Bcc     0.0000    -0.000    -0.000    -0.000  1.0000  0.0000  0.0000
 
              Baa    -0.0000    -0.000    -0.000    -0.000  0.0000  0.7900 -0.6131
     2 H(1)   Bbb     0.0000     0.000     0.000     0.000  0.0000  0.6131  0.7900
              Bcc     0.0000     0.000     0.000     0.000  1.0000 -0.0000  0.0000
 
              Baa    -0.0000    -0.000    -0.000    -0.000  0.0000  0.7900  0.6131
     3 H(1)   Bbb     0.0000     0.000     0.000     0.000 -0.0000 -0.6131  0.7900
              Bcc     0.0000     0.000     0.000     0.000  1.0000 -0.0000  0.0000
 

 ---------------------------------------------------------------------------------

 1\1\GINC-RUSTAMS-MACBOOK-AIR\FOpt\UB3LYP\6-31G(d,p)\H2O1\RUSTAM\08-May
 -2019\0\\# opt ub3lyp/6-31g(d,p) guess=(core,mix,always)\\Title Card R
 equired\\0,1\O,-3.3721727158,-0.4318887053,0.\H,-2.4081744469,-0.38343
 75512,0.\H,-3.6482898866,0.4929893866,0.\\Version=EM64M-G16RevA.03\Sta
 te=1-A1\HF=-76.4197374\S2=0.\S2-1=0.\S2A=0.\RMSD=2.625e-09\RMSF=6.275e
 -05\Dipole=0.4638547,0.6563392,0.\Quadrupole=0.7042756,0.2876101,-0.99
 18856,-0.5883135,0.,0.\PG=C02V [C2(O1),SGV(H2)]\\@


 A SOLDIER'S LIFE IS A LIFE OF HONOR, BUT A DOG WOULD NOT LEAD IT.
 -- PRINCE RUPERT, FOUNDER OF THE HUDSON'S BAY COMPANY
 Job cpu time:       0 days  0 hours  0 minutes  7.9 seconds.
 Elapsed time:       0 days  0 hours  0 minutes 12.4 seconds.
 File lengths (MBytes):  RWF=      6 Int=      0 D2E=      0 Chk=      1 Scr=      1
 Normal termination of Gaussian 16 at Wed May  8 11:06:25 2019.
