 DBCSR| Multiplication driver                                               BLAS
 DBCSR| Multrec recursion limit                                              512
 DBCSR| Multiplication stack size                                           1000
 DBCSR| Maximum elements for images                                    UNLIMITED
 DBCSR| Multiplicative factor virtual images                                   1
 DBCSR| Multiplication size stacks                                             3
 DBCSR| Number of 3D layers                                               SINGLE
 DBCSR| Use MPI memory allocation                                              T
 DBCSR| Use RMA algorithm                                                      F
 DBCSR| Use Communication thread                                               T
 DBCSR| Communication thread load                                             87


  **** **** ******  **  PROGRAM STARTED AT               2019-07-21 22:20:30.402
 ***** ** ***  *** **   PROGRAM STARTED ON        blg4116.int.ets1.calculquebec.
 **    ****   ******    PROGRAM STARTED BY                                   rzk
 ***** **    ** ** **   PROGRAM PROCESS ID                                246009
  **** **  *******  **  PROGRAM STARTED IN /lustre04/scratch/rzk/rzk/GaN-carbene
                                           /443-adatoms-both-2x2/11-CH3O-HO-H2C-
                                           H-H/02-UseIntermediate-0904

 CP2K| version string:                    CP2K version 7.0 (Development Version)
 CP2K| source code revision number:                                    svn:18619
 CP2K| cp2kflags: libint fftw3 libxc parallel mpi3 scalapack mkl                
 CP2K| is freely available from                            https://www.cp2k.org/
 CP2K| Program compiled at                          Sun Apr  7 00:48:11 EDT 2019
 CP2K| Program compiled on                      beluga2.int.ets1.calculquebec.ca
 CP2K| Program compiled for                    Beluga-Linux-x86-64-intel-openmpi
 CP2K| Data directory path    /home/rzk/projects/def-rzk/group/cp2k/cp2k-mcgill/
 CP2K| Input file name                                                 start.inp
 
 GLOBAL| Force Environment number                                              1
 GLOBAL| Basis set file name                                        BASIS_MOLOPT
 GLOBAL| Potential file name                                      GTH_POTENTIALS
 GLOBAL| MM Potential file name                                     MM_POTENTIAL
 GLOBAL| Coordinate file name                                      __STD_INPUT__
 GLOBAL| Method name                                                        CP2K
 GLOBAL| Project name                                                       TEST
 GLOBAL| Preferred FFT library                                             FFTW3
 GLOBAL| Preferred diagonalization lib.                                       SL
 GLOBAL| Run type                                                        GEO_OPT
 GLOBAL| All-to-all communication in single precision                          F
 GLOBAL| FFTs using library dependent lengths                                  F
 GLOBAL| Global print level                                               MEDIUM
 GLOBAL| MPI I/O enabled                                                       T
 GLOBAL| Total number of message passing processes                            80
 GLOBAL| Number of threads for this process                                    1
 GLOBAL| This output is from process                                           0
 GLOBAL| CPU model name :  Intel(R) Xeon(R) Gold 6148 CPU @ 2.40GHz

 MEMORY| system memory details [Kb]
 MEMORY|                        rank 0           min           max       average
 MEMORY| MemTotal            196614300     196614300     196614300     196614300
 MEMORY| MemFree             181651568     170852184     181651568     176282053
 MEMORY| Buffers                     0             0             0             0
 MEMORY| Cached                1429324       1341024       1429324       1385174
 MEMORY| Slab                  2165808       2165808       4268400       3217104
 MEMORY| SReclaimable           487816        487816       1813248       1150532
 MEMORY| MemLikelyFree       183568708     174006456     183568708     178817759


 *** Fundamental physical constants (SI units) ***

 *** Literature: B. J. Mohr and B. N. Taylor,
 ***             CODATA recommended values of the fundamental physical
 ***             constants: 2006, Web Version 5.1
 ***             http://physics.nist.gov/constants

 Speed of light in vacuum [m/s]                             2.99792458000000E+08
 Magnetic constant or permeability of vacuum [N/A**2]       1.25663706143592E-06
 Electric constant or permittivity of vacuum [F/m]          8.85418781762039E-12
 Planck constant (h) [J*s]                                  6.62606896000000E-34
 Planck constant (h-bar) [J*s]                              1.05457162825177E-34
 Elementary charge [C]                                      1.60217648700000E-19
 Electron mass [kg]                                         9.10938215000000E-31
 Electron g factor [ ]                                     -2.00231930436220E+00
 Proton mass [kg]                                           1.67262163700000E-27
 Fine-structure constant                                    7.29735253760000E-03
 Rydberg constant [1/m]                                     1.09737315685270E+07
 Avogadro constant [1/mol]                                  6.02214179000000E+23
 Boltzmann constant [J/K]                                   1.38065040000000E-23
 Atomic mass unit [kg]                                      1.66053878200000E-27
 Bohr radius [m]                                            5.29177208590000E-11

 *** Conversion factors ***

 [u] -> [a.u.]                                              1.82288848426455E+03
 [Angstrom] -> [Bohr] = [a.u.]                              1.88972613288564E+00
 [a.u.] = [Bohr] -> [Angstrom]                              5.29177208590000E-01
 [a.u.] -> [s]                                              2.41888432650478E-17
 [a.u.] -> [fs]                                             2.41888432650478E-02
 [a.u.] -> [J]                                              4.35974393937059E-18
 [a.u.] -> [N]                                              8.23872205491840E-08
 [a.u.] -> [K]                                              3.15774647902944E+05
 [a.u.] -> [kJ/mol]                                         2.62549961709828E+03
 [a.u.] -> [kcal/mol]                                       6.27509468713739E+02
 [a.u.] -> [Pa]                                             2.94210107994716E+13
 [a.u.] -> [bar]                                            2.94210107994716E+08
 [a.u.] -> [atm]                                            2.90362800883016E+08
 [a.u.] -> [eV]                                             2.72113838565563E+01
 [a.u.] -> [Hz]                                             6.57968392072181E+15
 [a.u.] -> [1/cm] (wave numbers)                            2.19474631370540E+05
 [a.u./Bohr**2] -> [1/cm]                                   5.14048714338585E+03
 

 CELL_TOP| Volume [angstrom^3]:                                         4586.323
 CELL_TOP| Vector a [angstrom    12.864     0.000     0.000    |a| =      12.864
 CELL_TOP| Vector b [angstrom    -6.432    11.141     0.000    |b| =      12.864
 CELL_TOP| Vector c [angstrom     0.000     0.000    32.000    |c| =      32.000
 CELL_TOP| Angle (b,c), alpha [degree]:                                   90.000
 CELL_TOP| Angle (a,c), beta  [degree]:                                   90.000
 CELL_TOP| Angle (a,b), gamma [degree]:                                  120.000
 CELL_TOP| Numerically orthorhombic:                                          NO
 
 GENERATE|  Preliminary Number of Bonds generated:                             0
 GENERATE|  Achieved consistency in connectivity generation.

 CELL| Volume [angstrom^3]:                                             4586.323
 CELL| Vector a [angstrom]:      12.864     0.000     0.000    |a| =      12.864
 CELL| Vector b [angstrom]:      -6.432    11.141     0.000    |b| =      12.864
 CELL| Vector c [angstrom]:       0.000     0.000    32.000    |c| =      32.000
 CELL| Angle (b,c), alpha [degree]:                                       90.000
 CELL| Angle (a,c), beta  [degree]:                                       90.000
 CELL| Angle (a,b), gamma [degree]:                                      120.000
 CELL| Numerically orthorhombic:                                              NO

 CELL_REF| Volume [angstrom^3]:                                         4670.759
 CELL_REF| Vector a [angstrom    12.982     0.000     0.000    |a| =      12.982
 CELL_REF| Vector b [angstrom    -6.491    11.243     0.000    |b| =      12.982
 CELL_REF| Vector c [angstrom     0.000     0.000    32.000    |c| =      32.000
 CELL_REF| Angle (b,c), alpha [degree]:                                   90.000
 CELL_REF| Angle (a,c), beta  [degree]:                                   90.000
 CELL_REF| Angle (a,b), gamma [degree]:                                  120.000
 CELL_REF| Numerically orthorhombic:                                          NO

 *******************************************************************************
 *******************************************************************************
 **                                                                           **
 **     #####                         ##              ##                      **
 **    ##   ##            ##          ##              ##                      **
 **   ##     ##                       ##            ######                    **
 **   ##     ##  ##   ##  ##   #####  ##  ##   ####   ##    #####    #####    **
 **   ##     ##  ##   ##  ##  ##      ## ##   ##      ##   ##   ##  ##   ##   **
 **   ##  ## ##  ##   ##  ##  ##      ####     ###    ##   ######   ######    **
 **    ##  ###   ##   ##  ##  ##      ## ##      ##   ##   ##       ##        **
 **     #######   #####   ##   #####  ##  ##  ####    ##    #####   ##        **
 **           ##                                                    ##        **
 **                                                                           **
 **                                                ... make the atoms dance   **
 **                                                                           **
 **            Copyright (C) by CP2K developers group (2000 - 2018)           **
 **                                                                           **
 *******************************************************************************

 DFT| Spin unrestricted (spin-polarized) Kohn-Sham calculation               UKS
 DFT| Multiplicity                                                             1
 DFT| Number of spin states                                                    2
 DFT| Charge                                                                   0
 DFT| Self-interaction correction (SIC)                                       NO
 DFT| Cutoffs: density                                              1.000000E-10
 DFT|          gradient                                             1.000000E-10
 DFT|          tau                                                  1.000000E-10
 DFT|          cutoff_smoothing_range                               0.000000E+00
 DFT| XC density smoothing                                                  NONE
 DFT| XC derivatives                                                          PW
 FUNCTIONAL| ROUTINE=NEW
 FUNCTIONAL| PBE:
 FUNCTIONAL| J.P.Perdew, K.Burke, M.Ernzerhof, Phys. Rev. Letter, vol. 77, n 18,
 FUNCTIONAL|  pp. 3865-3868, (1996){spin polarized}                             
 vdW POTENTIAL|                                                   Pair Potential
 vdW POTENTIAL|          DFT-D3 (Version 3.1)
 vdW POTENTIAL|          Potential Form: S. Grimme et al, JCP 132: 154104 (2010)
 vdW POTENTIAL|          Zero Damping
 vdW POTENTIAL|          Cutoff Radius [Bohr]:                             18.90
 vdW POTENTIAL|          s6 Scaling Factor:                               1.0000
 vdW POTENTIAL|          sr6 Scaling Factor:                              1.2170
 vdW POTENTIAL|          s8 Scaling Factor:                               0.7220
 vdW POTENTIAL|          Cutoff for CN calculation:                   0.1000E-05

 QS| Method:                                                                 GPW
 QS| Density plane wave grid type                        NON-SPHERICAL FULLSPACE
 QS| Number of grid levels:                                                    5
 QS| Density cutoff [a.u.]:                                                600.0
 QS| Multi grid cutoff [a.u.]: 1) grid level                               600.0
 QS|                           2) grid level                               200.0
 QS|                           3) grid level                                66.7
 QS|                           4) grid level                                22.2
 QS|                           5) grid level                                 7.4
 QS| Grid level progression factor:                                          3.0
 QS| Relative density cutoff [a.u.]:                                        20.0
 QS| Consistent realspace mapping and integration 
 QS| Interaction thresholds: eps_pgf_orb:                                1.0E-07
 QS|                         eps_filter_matrix:                          0.0E+00
 QS|                         eps_core_charge:                            1.0E-16
 QS|                         eps_rho_gspace:                             1.0E-14
 QS|                         eps_rho_rspace:                             1.0E-14
 QS|                         eps_gvg_rspace:                             1.0E-07
 QS|                         eps_ppl:                                    1.0E-02
 QS|                         eps_ppnl:                                   1.0E-09


 ATOMIC KIND INFORMATION

  1. Atomic kind: N                                     Number of atoms:     100

     Orbital Basis Set                                        DZVP-MOLOPT-SR-GTH

       Number of orbital shell sets:                                           1
       Number of orbital shells:                                               5
       Number of primitive Cartesian functions:                                5
       Number of Cartesian basis functions:                                   14
       Number of spherical basis functions:                                   13
       Norm type:                                                              2

       Normalised Cartesian orbitals:

                        Set   Shell   Orbital            Exponent    Coefficient

                          1       1    2s                7.341988       0.360561
                                                         2.542637       0.139177
                                                         0.888575      -0.289383
                                                         0.333802      -0.182244
                                                         0.112012      -0.019197

                          1       2    3s                7.341988       0.282000
                                                         2.542637       0.177875
                                                         0.888575      -0.278381
                                                         0.333802       0.008577
                                                         0.112012       0.154176

                          1       3    3px               7.341988      -1.188719
                                                         2.542637      -0.973969
                                                         0.888575      -0.501079
                                                         0.333802      -0.144894
                                                         0.112012      -0.013986
                          1       3    3py               7.341988      -1.188719
                                                         2.542637      -0.973969
                                                         0.888575      -0.501079
                                                         0.333802      -0.144894
                                                         0.112012      -0.013986
                          1       3    3pz               7.341988      -1.188719
                                                         2.542637      -0.973969
                                                         0.888575      -0.501079
                                                         0.333802      -0.144894
                                                         0.112012      -0.013986

                          1       4    4px               7.341988      -0.094798
                                                         2.542637       0.050069
                                                         0.888575      -0.114797
                                                         0.333802       0.144793
                                                         0.112012       0.066710
                          1       4    4py               7.341988      -0.094798
                                                         2.542637       0.050069
                                                         0.888575      -0.114797
                                                         0.333802       0.144793
                                                         0.112012       0.066710
                          1       4    4pz               7.341988      -0.094798
                                                         2.542637       0.050069
                                                         0.888575      -0.114797
                                                         0.333802       0.144793
                                                         0.112012       0.066710

                          1       5    4dx2              7.341988       1.354688
                                                         2.542637       0.690378
                                                         0.888575       0.855359
                                                         0.333802       0.091746
                                                         0.112012       0.001253
                          1       5    4dxy              7.341988       2.346389
                                                         2.542637       1.195770
                                                         0.888575       1.481524
                                                         0.333802       0.158910
                                                         0.112012       0.002169
                          1       5    4dxz              7.341988       2.346389
                                                         2.542637       1.195770
                                                         0.888575       1.481524
                                                         0.333802       0.158910
                                                         0.112012       0.002169
                          1       5    4dy2              7.341988       1.354688
                                                         2.542637       0.690378
                                                         0.888575       0.855359
                                                         0.333802       0.091746
                                                         0.112012       0.001253
                          1       5    4dyz              7.341988       2.346389
                                                         2.542637       1.195770
                                                         0.888575       1.481524
                                                         0.333802       0.158910
                                                         0.112012       0.002169
                          1       5    4dz2              7.341988       1.354688
                                                         2.542637       0.690378
                                                         0.888575       0.855359
                                                         0.333802       0.091746
                                                         0.112012       0.001253

     GTH Potential information for                                    GTH-PBE-q5

       Description:                       Goedecker-Teter-Hutter pseudopotential
                                           Goedecker et al., PRB 54, 1703 (1996)
                                          Hartwigsen et al., PRB 58, 3641 (1998)
                                                      Krack, TCA 114, 145 (2005)

       Gaussian exponent of the core charge distribution:               6.208322
       Electronic configuration (s p d ...):                               2   3

       Parameters of the local part of the GTH pseudopotential:

                          rloc        C1          C2          C3          C4
                        0.283791  -12.415226    1.868096

       Parameters of the non-local part of the GTH pseudopotential:

                   l      r(l)      h(i,j,l)

                   0    0.255405   13.630263
                   1    0.245495

  2. Atomic kind: Ga                                    Number of atoms:     100

     Orbital Basis Set                                        DZVP-MOLOPT-SR-GTH

       Number of orbital shell sets:                                           1
       Number of orbital shells:                                               7
       Number of primitive Cartesian functions:                                6
       Number of Cartesian basis functions:                                   30
       Number of spherical basis functions:                                   25
       Norm type:                                                              2

       Normalised Cartesian orbitals:

                        Set   Shell   Orbital            Exponent    Coefficient

                          1       1    2s                7.066654       0.013136
                                                         3.428369      -0.094392
                                                         1.430064       0.265435
                                                         0.571611       0.056465
                                                         0.232197      -0.192187
                                                         0.076562      -0.044987

                          1       2    3s                7.066654      -0.098564
                                                         3.428369       0.010390
                                                         1.430064       0.351249
                                                         0.571611       0.182615
                                                         0.232197      -0.425358
                                                         0.076562       0.190349

                          1       3    3px               7.066654       0.002364
                                                         3.428369       0.019222
                                                         1.430064       0.250132
                                                         0.571611      -0.058486
                                                         0.232197      -0.159451
                                                         0.076562      -0.020696
                          1       3    3py               7.066654       0.002364
                                                         3.428369       0.019222
                                                         1.430064       0.250132
                                                         0.571611      -0.058486
                                                         0.232197      -0.159451
                                                         0.076562      -0.020696
                          1       3    3pz               7.066654       0.002364
                                                         3.428369       0.019222
                                                         1.430064       0.250132
                                                         0.571611      -0.058486
                                                         0.232197      -0.159451
                                                         0.076562      -0.020696

                          1       4    4px               7.066654       0.492448
                                                         3.428369      -0.614736
                                                         1.430064      -0.191654
                                                         0.571611       0.037801
                                                         0.232197       0.302315
                                                         0.076562      -0.071336
                          1       4    4py               7.066654       0.492448
                                                         3.428369      -0.614736
                                                         1.430064      -0.191654
                                                         0.571611       0.037801
                                                         0.232197       0.302315
                                                         0.076562      -0.071336
                          1       4    4pz               7.066654       0.492448
                                                         3.428369      -0.614736
                                                         1.430064      -0.191654
                                                         0.571611       0.037801
                                                         0.232197       0.302315
                                                         0.076562      -0.071336

                          1       5    4dx2              7.066654     -15.264855
                                                         3.428369      -5.345726
                                                         1.430064      -1.022732
                                                         0.571611      -0.123148
                                                         0.232197      -0.006983
                                                         0.076562      -0.000022
                          1       5    4dxy              7.066654     -26.439504
                                                         3.428369      -9.259069
                                                         1.430064      -1.771423
                                                         0.571611      -0.213299
                                                         0.232197      -0.012094
                                                         0.076562      -0.000037
                          1       5    4dxz              7.066654     -26.439504
                                                         3.428369      -9.259069
                                                         1.430064      -1.771423
                                                         0.571611      -0.213299
                                                         0.232197      -0.012094
                                                         0.076562      -0.000037
                          1       5    4dy2              7.066654     -15.264855
                                                         3.428369      -5.345726
                                                         1.430064      -1.022732
                                                         0.571611      -0.123148
                                                         0.232197      -0.006983
                                                         0.076562      -0.000022
                          1       5    4dyz              7.066654     -26.439504
                                                         3.428369      -9.259069
                                                         1.430064      -1.771423
                                                         0.571611      -0.213299
                                                         0.232197      -0.012094
                                                         0.076562      -0.000037
                          1       5    4dz2              7.066654     -15.264855
                                                         3.428369      -5.345726
                                                         1.430064      -1.022732
                                                         0.571611      -0.123148
                                                         0.232197      -0.006983
                                                         0.076562      -0.000022

                          1       6    5dx2              7.066654      -5.739265
                                                         3.428369      -2.129289
                                                         1.430064      -0.700423
                                                         0.571611       0.161606
                                                         0.232197       0.043513
                                                         0.076562       0.011205
                          1       6    5dxy              7.066654      -9.940698
                                                         3.428369      -3.688037
                                                         1.430064      -1.213168
                                                         0.571611       0.279909
                                                         0.232197       0.075368
                                                         0.076562       0.019407
                          1       6    5dxz              7.066654      -9.940698
                                                         3.428369      -3.688037
                                                         1.430064      -1.213168
                                                         0.571611       0.279909
                                                         0.232197       0.075368
                                                         0.076562       0.019407
                          1       6    5dy2              7.066654      -5.739265
                                                         3.428369      -2.129289
                                                         1.430064      -0.700423
                                                         0.571611       0.161606
                                                         0.232197       0.043513
                                                         0.076562       0.011205
                          1       6    5dyz              7.066654      -9.940698
                                                         3.428369      -3.688037
                                                         1.430064      -1.213168
                                                         0.571611       0.279909
                                                         0.232197       0.075368
                                                         0.076562       0.019407
                          1       6    5dz2              7.066654      -5.739265
                                                         3.428369      -2.129289
                                                         1.430064      -0.700423
                                                         0.571611       0.161606
                                                         0.232197       0.043513
                                                         0.076562       0.011205

                          1       7    5fx3              7.066654       0.705879
                                                         3.428369      -0.273976
                                                         1.430064       0.113667
                                                         0.571611       0.132480
                                                         0.232197       0.012437
                                                         0.076562       0.003241
                          1       7    5fx2y             7.066654       1.578393
                                                         3.428369      -0.612629
                                                         1.430064       0.254167
                                                         0.571611       0.296234
                                                         0.232197       0.027811
                                                         0.076562       0.007246
                          1       7    5fx2z             7.066654       1.578393
                                                         3.428369      -0.612629
                                                         1.430064       0.254167
                                                         0.571611       0.296234
                                                         0.232197       0.027811
                                                         0.076562       0.007246
                          1       7    5fxy2             7.066654       1.578393
                                                         3.428369      -0.612629
                                                         1.430064       0.254167
                                                         0.571611       0.296234
                                                         0.232197       0.027811
                                                         0.076562       0.007246
                          1       7    5fxyz             7.066654       2.733856
                                                         3.428369      -1.061105
                                                         1.430064       0.440230
                                                         0.571611       0.513092
                                                         0.232197       0.048170
                                                         0.076562       0.012551
                          1       7    5fxz2             7.066654       1.578393
                                                         3.428369      -0.612629
                                                         1.430064       0.254167
                                                         0.571611       0.296234
                                                         0.232197       0.027811
                                                         0.076562       0.007246
                          1       7    5fy3              7.066654       0.705879
                                                         3.428369      -0.273976
                                                         1.430064       0.113667
                                                         0.571611       0.132480
                                                         0.232197       0.012437
                                                         0.076562       0.003241
                          1       7    5fy2z             7.066654       1.578393
                                                         3.428369      -0.612629
                                                         1.430064       0.254167
                                                         0.571611       0.296234
                                                         0.232197       0.027811
                                                         0.076562       0.007246
                          1       7    5fyz2             7.066654       1.578393
                                                         3.428369      -0.612629
                                                         1.430064       0.254167
                                                         0.571611       0.296234
                                                         0.232197       0.027811
                                                         0.076562       0.007246
                          1       7    5fz3              7.066654       0.705879
                                                         3.428369      -0.273976
                                                         1.430064       0.113667
                                                         0.571611       0.132480
                                                         0.232197       0.012437
                                                         0.076562       0.003241

     GTH Potential information for                                   GTH-PBE-q13

       Description:                       Goedecker-Teter-Hutter pseudopotential
                                           Goedecker et al., PRB 54, 1703 (1996)
                                          Hartwigsen et al., PRB 58, 3641 (1998)
                                                      Krack, TCA 114, 145 (2005)

       Gaussian exponent of the core charge distribution:               2.082466
       Electronic configuration (s p d ...):                           2   1  10

       Parameters of the local part of the GTH pseudopotential:

                          rloc        C1          C2          C3          C4
                        0.490000

       Parameters of the non-local part of the GTH pseudopotential:

                   l      r(l)      h(i,j,l)

                   0    0.416777   10.475690   -4.921768    0.870706
                                   -4.921768    7.770178   -2.248152
                                    0.870706   -2.248152    1.784415
                   1    0.569627    1.777985    0.195860
                                    0.195860   -0.231744
                   2    0.238126  -16.248680

  3. Atomic kind: O                                     Number of atoms:       2

     Orbital Basis Set                                     DZVP-MOLOPT-SR-GTH-q6

       Number of orbital shell sets:                                           1
       Number of orbital shells:                                               5
       Number of primitive Cartesian functions:                                5
       Number of Cartesian basis functions:                                   14
       Number of spherical basis functions:                                   13
       Norm type:                                                              2

       Normalised Cartesian orbitals:

                        Set   Shell   Orbital            Exponent    Coefficient

                          1       1    2s               10.389228       0.396646
                                                         3.849621       0.208811
                                                         1.388401      -0.301641
                                                         0.496955      -0.274061
                                                         0.162492      -0.033677

                          1       2    3s               10.389228       0.303673
                                                         3.849621       0.240943
                                                         1.388401      -0.313066
                                                         0.496955      -0.043055
                                                         0.162492       0.213991

                          1       3    3px              10.389228      -1.530415
                                                         3.849621      -1.371928
                                                         1.388401      -0.761951
                                                         0.496955      -0.253695
                                                         0.162492      -0.035541
                          1       3    3py              10.389228      -1.530415
                                                         3.849621      -1.371928
                                                         1.388401      -0.761951
                                                         0.496955      -0.253695
                                                         0.162492      -0.035541
                          1       3    3pz              10.389228      -1.530415
                                                         3.849621      -1.371928
                                                         1.388401      -0.761951
                                                         0.496955      -0.253695
                                                         0.162492      -0.035541

                          1       4    4px              10.389228      -0.565392
                                                         3.849621      -0.038231
                                                         1.388401      -0.382373
                                                         0.496955       0.179070
                                                         0.162492       0.122714
                          1       4    4py              10.389228      -0.565392
                                                         3.849621      -0.038231
                                                         1.388401      -0.382373
                                                         0.496955       0.179070
                                                         0.162492       0.122714
                          1       4    4pz              10.389228      -0.565392
                                                         3.849621      -0.038231
                                                         1.388401      -0.382373
                                                         0.496955       0.179070
                                                         0.162492       0.122714

                          1       5    4dx2             10.389228       1.867377
                                                         3.849621       0.670994
                                                         1.388401       1.353441
                                                         0.496955       0.273538
                                                         0.162492       0.006620
                          1       5    4dxy             10.389228       3.234392
                                                         3.849621       1.162195
                                                         1.388401       2.344229
                                                         0.496955       0.473781
                                                         0.162492       0.011466
                          1       5    4dxz             10.389228       3.234392
                                                         3.849621       1.162195
                                                         1.388401       2.344229
                                                         0.496955       0.473781
                                                         0.162492       0.011466
                          1       5    4dy2             10.389228       1.867377
                                                         3.849621       0.670994
                                                         1.388401       1.353441
                                                         0.496955       0.273538
                                                         0.162492       0.006620
                          1       5    4dyz             10.389228       3.234392
                                                         3.849621       1.162195
                                                         1.388401       2.344229
                                                         0.496955       0.473781
                                                         0.162492       0.011466
                          1       5    4dz2             10.389228       1.867377
                                                         3.849621       0.670994
                                                         1.388401       1.353441
                                                         0.496955       0.273538
                                                         0.162492       0.006620

     GTH Potential information for                                    GTH-PBE-q6

       Description:                       Goedecker-Teter-Hutter pseudopotential
                                           Goedecker et al., PRB 54, 1703 (1996)
                                          Hartwigsen et al., PRB 58, 3641 (1998)
                                                      Krack, TCA 114, 145 (2005)

       Gaussian exponent of the core charge distribution:               8.360253
       Electronic configuration (s p d ...):                               2   4

       Parameters of the local part of the GTH pseudopotential:

                          rloc        C1          C2          C3          C4
                        0.244554  -16.667215    2.487311

       Parameters of the non-local part of the GTH pseudopotential:

                   l      r(l)      h(i,j,l)

                   0    0.220956   18.337458
                   1    0.211332

  4. Atomic kind: H                                     Number of atoms:       8

     Orbital Basis Set                                     DZVP-MOLOPT-SR-GTH-q1

       Number of orbital shell sets:                                           1
       Number of orbital shells:                                               3
       Number of primitive Cartesian functions:                                5
       Number of Cartesian basis functions:                                    5
       Number of spherical basis functions:                                    5
       Norm type:                                                              2

       Normalised Cartesian orbitals:

                        Set   Shell   Orbital            Exponent    Coefficient

                          1       1    2s               10.068468      -0.133023
                                                         2.680223      -0.177618
                                                         0.791502      -0.258419
                                                         0.239116      -0.107525
                                                         0.082193      -0.014019

                          1       2    3s               10.068468       0.344673
                                                         2.680223       1.819821
                                                         0.791502      -0.999069
                                                         0.239116       0.017430
                                                         0.082193       0.082660

                          1       3    3px              10.068468       0.155326
                                                         2.680223       0.367157
                                                         0.791502       0.311480
                                                         0.239116       0.080105
                                                         0.082193       0.033440
                          1       3    3py              10.068468       0.155326
                                                         2.680223       0.367157
                                                         0.791502       0.311480
                                                         0.239116       0.080105
                                                         0.082193       0.033440
                          1       3    3pz              10.068468       0.155326
                                                         2.680223       0.367157
                                                         0.791502       0.311480
                                                         0.239116       0.080105
                                                         0.082193       0.033440

     GTH Potential information for                                    GTH-PBE-q1

       Description:                       Goedecker-Teter-Hutter pseudopotential
                                           Goedecker et al., PRB 54, 1703 (1996)
                                          Hartwigsen et al., PRB 58, 3641 (1998)
                                                      Krack, TCA 114, 145 (2005)

       Gaussian exponent of the core charge distribution:              12.500000
       Electronic configuration (s p d ...):                                   1

       Parameters of the local part of the GTH pseudopotential:

                          rloc        C1          C2          C3          C4
                        0.200000   -4.178900    0.724463

  5. Atomic kind: C                                     Number of atoms:       2

     Orbital Basis Set                                     DZVP-MOLOPT-SR-GTH-q4

       Number of orbital shell sets:                                           1
       Number of orbital shells:                                               5
       Number of primitive Cartesian functions:                                5
       Number of Cartesian basis functions:                                   14
       Number of spherical basis functions:                                   13
       Norm type:                                                              2

       Normalised Cartesian orbitals:

                        Set   Shell   Orbital            Exponent    Coefficient

                          1       1    2s                5.605331       0.322515
                                                         2.113016       0.213043
                                                         0.769911      -0.209686
                                                         0.348157      -0.219794
                                                         0.128212      -0.022789

                          1       2    3s                5.605331       0.552234
                                                         2.113016       0.082072
                                                         0.769911       0.007843
                                                         0.348157       0.136893
                                                         0.128212       0.074283

                          1       3    3px               5.605331      -0.703879
                                                         2.113016      -0.642521
                                                         0.769911      -0.374851
                                                         0.348157      -0.139743
                                                         0.128212      -0.027849
                          1       3    3py               5.605331      -0.703879
                                                         2.113016      -0.642521
                                                         0.769911      -0.374851
                                                         0.348157      -0.139743
                                                         0.128212      -0.027849
                          1       3    3pz               5.605331      -0.703879
                                                         2.113016      -0.642521
                                                         0.769911      -0.374851
                                                         0.348157      -0.139743
                                                         0.128212      -0.027849

                          1       4    4px               5.605331      -0.480376
                                                         2.113016      -0.552894
                                                         0.769911      -0.316145
                                                         0.348157       0.210505
                                                         0.128212       0.076095
                          1       4    4py               5.605331      -0.480376
                                                         2.113016      -0.552894
                                                         0.769911      -0.316145
                                                         0.348157       0.210505
                                                         0.128212       0.076095
                          1       4    4pz               5.605331      -0.480376
                                                         2.113016      -0.552894
                                                         0.769911      -0.316145
                                                         0.348157       0.210505
                                                         0.128212       0.076095

                          1       5    4dx2              5.605331       0.640026
                                                         2.113016       0.274300
                                                         0.769911       0.446711
                                                         0.348157       0.028674
                                                         0.128212       0.029790
                          1       5    4dxy              5.605331       1.108557
                                                         2.113016       0.475102
                                                         0.769911       0.773726
                                                         0.348157       0.049666
                                                         0.128212       0.051599
                          1       5    4dxz              5.605331       1.108557
                                                         2.113016       0.475102
                                                         0.769911       0.773726
                                                         0.348157       0.049666
                                                         0.128212       0.051599
                          1       5    4dy2              5.605331       0.640026
                                                         2.113016       0.274300
                                                         0.769911       0.446711
                                                         0.348157       0.028674
                                                         0.128212       0.029790
                          1       5    4dyz              5.605331       1.108557
                                                         2.113016       0.475102
                                                         0.769911       0.773726
                                                         0.348157       0.049666
                                                         0.128212       0.051599
                          1       5    4dz2              5.605331       0.640026
                                                         2.113016       0.274300
                                                         0.769911       0.446711
                                                         0.348157       0.028674
                                                         0.128212       0.029790

     GTH Potential information for                                    GTH-PBE-q4

       Description:                       Goedecker-Teter-Hutter pseudopotential
                                           Goedecker et al., PRB 54, 1703 (1996)
                                          Hartwigsen et al., PRB 58, 3641 (1998)
                                                      Krack, TCA 114, 145 (2005)

       Gaussian exponent of the core charge distribution:               4.364419
       Electronic configuration (s p d ...):                               2   2

       Parameters of the local part of the GTH pseudopotential:

                          rloc        C1          C2          C3          C4
                        0.338471   -8.803674    1.339211

       Parameters of the non-local part of the GTH pseudopotential:

                   l      r(l)      h(i,j,l)

                   0    0.302576    9.622487
                   1    0.291507


 MOLECULE KIND INFORMATION


 All atoms are their own molecule, skipping detailed information


 TOTAL NUMBERS AND MAXIMUM NUMBERS

  Total number of            - Atomic kinds:                                   5
                             - Atoms:                                        212
                             - Shell sets:                                   212
                             - Shells:                                      1244
                             - Primitive Cartesian functions:               1160
                             - Cartesian basis functions:                   4496
                             - Spherical basis functions:                   3892

  Maximum angular momentum of- Orbital basis functions:                        3
                             - Local part of the GTH pseudopotential:          2
                             - Non-local part of the GTH pseudopotential:      4


 MODULE QUICKSTEP:  ATOMIC COORDINATES IN angstrom

  Atom  Kind  Element       X           Y           Z          Z(eff)       Mass

       1     1 N    7    0.077719    1.976661    2.489164      5.00      14.0067
       2     2 Ga  31    0.060440    0.005474    2.821898     13.00      69.7230
       3     1 N    7    0.082436   -0.025810    5.014722      5.00      14.0067
       4     2 Ga  31    0.080973    1.798993    5.798046     13.00      69.7230
       5     1 N    7    0.080037    1.814735    7.800830      5.00      14.0067
       6     2 Ga  31    0.077344   -0.030282    8.443592     13.00      69.7230
       7     1 N    7    0.079160   -0.030964   10.419672      5.00      14.0067
       8     2 Ga  31    0.079169    1.808327   11.071009     13.00      69.7230
       9     1 N    7    0.079661    1.789694   13.065939      5.00      14.0067
      10     2 Ga  31    0.079475   -0.029996   13.878275     13.00      69.7230
      11     1 N    7    0.079451   -0.029991   16.069730      5.00      14.0067
      12     2 Ga  31    0.079510    2.016436   16.494049     13.00      69.7230
      13     2 Ga  31    0.044635    3.684765    1.366789     13.00      69.7230
      14     1 N    7   -1.408689    4.547828    2.529358      5.00      14.0067
      15     2 Ga  31   -1.601824    2.702992    3.280365     13.00      69.7230
      16     1 N    7   -1.529870    2.753150    5.258548      5.00      14.0067
      17     2 Ga  31   -1.558377    4.618460    5.807652     13.00      69.7230
      18     1 N    7   -1.539132    4.617931    7.803613      5.00      14.0067
      19     2 Ga  31   -1.519551    2.756808    8.435025     13.00      69.7230
      20     1 N    7   -1.517703    2.760672   10.431653      5.00      14.0067
      21     2 Ga  31   -1.542730    4.618812   11.069253     13.00      69.7230
      22     1 N    7   -1.558506    4.630002   13.062039      5.00      14.0067
      23     2 Ga  31   -1.516963    2.761874   13.622502     13.00      69.7230
      24     1 N    7   -1.550868    2.750045   15.582088      5.00      14.0067
      25     2 Ga  31   -1.349355    4.511095   16.495576     13.00      69.7230
      26     1 N    7    0.079325    3.672943   17.638209      5.00      14.0067
      27     1 N    7   -3.131543    7.518014    2.531580      5.00      14.0067
      28     2 Ga  31   -3.110874    5.514035    2.853101     13.00      69.7230
      29     1 N    7   -3.136704    5.540746    5.023458      5.00      14.0067
      30     2 Ga  31   -3.143954    7.361269    5.808152     13.00      69.7230
      31     1 N    7   -3.136140    7.386351    7.800068      5.00      14.0067
      32     2 Ga  31   -3.136985    5.539188    8.449128     13.00      69.7230
      33     1 N    7   -3.136976    5.540920   10.422516      5.00      14.0067
      34     2 Ga  31   -3.137866    7.381231   11.070712     13.00      69.7230
      35     1 N    7   -3.136151    7.362599   13.062726      5.00      14.0067
      36     2 Ga  31   -3.126866    5.545879   13.861194     13.00      69.7230
      37     1 N    7   -3.125095    5.547147   16.068951      5.00      14.0067
      38     2 Ga  31   -3.134121    7.602961   16.496405     13.00      69.7230
      39     2 Ga  31   -3.149643    9.253419    1.501136     13.00      69.7230
      40     1 N    7   -4.639566   10.121906    2.516643      5.00      14.0067
      41     2 Ga  31   -4.857097    8.271351    3.290200     13.00      69.7230
      42     1 N    7   -4.743905    8.326397    5.251923      5.00      14.0067
      43     2 Ga  31   -4.776246   10.201268    5.798977     13.00      69.7230
      44     1 N    7   -4.754446   10.187812    7.797382      5.00      14.0067
      45     2 Ga  31   -4.737970    8.332520    8.436690     13.00      69.7230
      46     1 N    7   -4.734078    8.332398   10.431123      5.00      14.0067
      47     2 Ga  31   -4.760879   10.191525   11.072063     13.00      69.7230
      48     1 N    7   -4.776369   10.200994   13.066394      5.00      14.0067
      49     2 Ga  31   -4.732897    8.332507   13.623759     13.00      69.7230
      50     1 N    7   -4.760235    8.308878   15.583022      5.00      14.0067
      51     2 Ga  31   -4.580132   10.087653   16.494808     13.00      69.7230
      52     1 N    7   -3.145756    9.259313   17.639505      5.00      14.0067
      53     1 N    7    3.284583    1.831390    2.617592      5.00      14.0067
      54     2 Ga  31    3.286565    0.091746    3.288493     13.00      69.7230
      55     1 N    7    3.296495   -0.033490    5.251445      5.00      14.0067
      56     2 Ga  31    3.287262    1.828709    5.873611     13.00      69.7230
      57     1 N    7    3.295793    1.825163    7.851152      5.00      14.0067
      58     2 Ga  31    3.292967   -0.040674    8.439334     13.00      69.7230
      59     1 N    7    3.295010   -0.042790   10.433082      5.00      14.0067
      60     2 Ga  31    3.295223    1.826520   11.027360     13.00      69.7230
      61     1 N    7    3.298206    1.827883   13.001281      5.00      14.0067
      62     2 Ga  31    3.296065   -0.043712   13.624125     13.00      69.7230
      63     1 N    7    3.302647   -0.007532   15.583502      5.00      14.0067
      64     2 Ga  31    3.294244    1.826264   15.863710     13.00      69.7230
      65     1 N    7    1.568612    4.549409    2.516987      5.00      14.0067
      66     2 Ga  31    1.755071    2.717026    3.265993     13.00      69.7230
      67     1 N    7    1.688401    2.753837    5.251097      5.00      14.0067
      68     2 Ga  31    1.719661    4.618093    5.808432     13.00      69.7230
      69     1 N    7    1.697166    4.616688    7.805087      5.00      14.0067
      70     2 Ga  31    1.676962    2.757903    8.438874     13.00      69.7230
      71     1 N    7    1.677008    2.760312   10.433964      5.00      14.0067
      72     2 Ga  31    1.702073    4.619446   11.069030     13.00      69.7230
      73     1 N    7    1.718048    4.630211   13.062028      5.00      14.0067
      74     2 Ga  31    1.675900    2.762357   13.623130     13.00      69.7230
      75     1 N    7    1.710363    2.749926   15.582638      5.00      14.0067
      76     2 Ga  31    1.508926    4.511035   16.496099     13.00      69.7230
      77     1 N    7    0.081461    7.379529    2.696573      5.00      14.0067
      78     2 Ga  31    0.088357    5.538466    3.337918     13.00      69.7230
      79     1 N    7    0.079793    5.552524    5.275248      5.00      14.0067
      80     2 Ga  31    0.087440    7.394103    5.905802     13.00      69.7230
      81     1 N    7    0.080053    7.398282    7.864843      5.00      14.0067
      82     2 Ga  31    0.079667    5.524988    8.443977     13.00      69.7230
      83     1 N    7    0.079289    5.527812   10.434487      5.00      14.0067
      84     2 Ga  31    0.080160    7.397192   11.028186     13.00      69.7230
      85     1 N    7    0.079561    7.397574   12.997748      5.00      14.0067
      86     2 Ga  31    0.079826    5.528710   13.622672     13.00      69.7230
      87     1 N    7    0.079850    5.560425   15.580819      5.00      14.0067
      88     2 Ga  31    0.080263    7.397684   15.859864     13.00      69.7230
      89     1 N    7   -1.631683   10.110236    2.524347      5.00      14.0067
      90     2 Ga  31   -1.487473    8.296947    3.336088     13.00      69.7230
      91     1 N    7   -1.516806    8.318005    5.263315      5.00      14.0067
      92     2 Ga  31   -1.503521   10.203936    5.810584     13.00      69.7230
      93     1 N    7   -1.519898   10.186008    7.801785      5.00      14.0067
      94     2 Ga  31   -1.540435    8.331879    8.446429     13.00      69.7230
      95     1 N    7   -1.540044    8.331902   10.434822      5.00      14.0067
      96     2 Ga  31   -1.514885   10.191232   11.070345     13.00      69.7230
      97     1 N    7   -1.497656   10.199838   13.062521      5.00      14.0067
      98     2 Ga  31   -1.538581    8.331868   13.623236     13.00      69.7230
      99     1 N    7   -1.511133    8.316065   15.581101      5.00      14.0067
     100     2 Ga  31   -1.705265   10.078052   16.496898     13.00      69.7230
     101     1 N    7    6.509690    1.949494    2.538404      5.00      14.0067
     102     2 Ga  31    6.529097   -0.031683    2.863181     13.00      69.7230
     103     1 N    7    6.507124   -0.030589    5.025930      5.00      14.0067
     104     2 Ga  31    6.509906    1.799197    5.805124     13.00      69.7230
     105     1 N    7    6.510804    1.814611    7.802376      5.00      14.0067
     106     2 Ga  31    6.513543   -0.031175    8.446234     13.00      69.7230
     107     1 N    7    6.511927   -0.030915   10.420620      5.00      14.0067
     108     2 Ga  31    6.512314    1.808869   11.068123     13.00      69.7230
     109     1 N    7    6.512066    1.788093   13.068791      5.00      14.0067
     110     2 Ga  31    6.512404   -0.041032   13.861784     13.00      69.7230
     111     1 N    7    6.512063   -0.042882   16.069039      5.00      14.0067
     112     2 Ga  31    6.512431    1.957753   16.433741     13.00      69.7230
     113     1 N    7    5.008618    4.548547    2.531076      5.00      14.0067
     114     2 Ga  31    4.791882    2.697588    3.298027     13.00      69.7230
     115     1 N    7    4.900690    2.753792    5.259310      5.00      14.0067
     116     2 Ga  31    4.876314    4.626703    5.804828     13.00      69.7230
     117     1 N    7    4.894361    4.616875    7.802839      5.00      14.0067
     118     2 Ga  31    4.911943    2.759555    8.438997     13.00      69.7230
     119     1 N    7    4.914914    2.761489   10.435218      5.00      14.0067
     120     2 Ga  31    4.888446    4.621455   11.068196     13.00      69.7230
     121     1 N    7    4.870703    4.631570   13.068980      5.00      14.0067
     122     2 Ga  31    4.914787    2.761508   13.614032     13.00      69.7230
     123     1 N    7    4.897956    2.751779   15.592482      5.00      14.0067
     124     2 Ga  31    5.017419    4.547038   16.433528     13.00      69.7230
     125     1 N    7    6.511886    3.683661   17.554754      5.00      14.0067
     126     1 N    7    3.292275    7.510595    2.502061      5.00      14.0067
     127     1 N    7    3.295079    5.537588    5.030133      5.00      14.0067
     128     2 Ga  31    3.299522    7.365120    5.795484     13.00      69.7230
     129     1 N    7    3.293590    7.387447    7.794596      5.00      14.0067
     130     2 Ga  31    3.295608    5.541645    8.446064     13.00      69.7230
     131     1 N    7    3.295821    5.541324   10.421117      5.00      14.0067
     132     2 Ga  31    3.297385    7.381667   11.069219     13.00      69.7230
     133     1 N    7    3.295682    7.362723   13.061964      5.00      14.0067
     134     2 Ga  31    3.286349    5.546428   13.861272     13.00      69.7230
     135     1 N    7    3.284554    5.547299   16.069403      5.00      14.0067
     136     2 Ga  31    3.294058    7.603970   16.497620     13.00      69.7230
     137     2 Ga  31    3.331344    9.275196    1.323178     13.00      69.7230
     138     1 N    7    1.784441   10.117442    2.506041      5.00      14.0067
     139     2 Ga  31    1.680588    8.312821    3.289386     13.00      69.7230
     140     1 N    7    1.673931    8.316829    5.238281      5.00      14.0067
     141     2 Ga  31    1.664505   10.197915    5.795906     13.00      69.7230
     142     1 N    7    1.677095   10.184717    7.794187      5.00      14.0067
     143     2 Ga  31    1.701060    8.332979    8.444283     13.00      69.7230
     144     1 N    7    1.699215    8.332358   10.433930      5.00      14.0067
     145     2 Ga  31    1.675022   10.191531   11.069267     13.00      69.7230
     146     1 N    7    1.657404   10.199890   13.061893      5.00      14.0067
     147     2 Ga  31    1.698115    8.331794   13.622757     13.00      69.7230
     148     1 N    7    1.671207    8.316257   15.580597      5.00      14.0067
     149     2 Ga  31    1.865790   10.077794   16.497581     13.00      69.7230
     150     1 N    7    3.304852    9.259582   17.641584      5.00      14.0067
     151     1 N    7    9.736994    1.824448    2.629645      5.00      14.0067
     152     2 Ga  31    9.731106    0.060994    3.258449     13.00      69.7230
     153     1 N    7    9.724293   -0.034337    5.240709      5.00      14.0067
     154     2 Ga  31    9.733148    1.819570    5.867674     13.00      69.7230
     155     1 N    7    9.726625    1.824496    7.848190      5.00      14.0067
     156     2 Ga  31    9.729904   -0.042579    8.431387     13.00      69.7230
     157     1 N    7    9.728265   -0.043218   10.428764      5.00      14.0067
     158     2 Ga  31    9.728731    1.825740   11.024255     13.00      69.7230
     159     1 N    7    9.725575    1.827833   12.999030      5.00      14.0067
     160     2 Ga  31    9.728133   -0.043401   13.623399     13.00      69.7230
     161     1 N    7    9.721577   -0.007494   15.582628      5.00      14.0067
     162     2 Ga  31    9.730073    1.826011   15.863668     13.00      69.7230
     163     1 N    7    8.013326    4.549399    2.539772      5.00      14.0067
     164     2 Ga  31    8.230735    2.689828    3.300778     13.00      69.7230
     165     1 N    7    8.119483    2.753333    5.261380      5.00      14.0067
     166     2 Ga  31    8.143069    4.625655    5.802318     13.00      69.7230
     167     1 N    7    8.129559    4.617977    7.800458      5.00      14.0067
     168     2 Ga  31    8.111809    2.759071    8.435711     13.00      69.7230
     169     1 N    7    8.108622    2.761665   10.433194      5.00      14.0067
     170     2 Ga  31    8.134684    4.620527   11.068583     13.00      69.7230
     171     1 N    7    8.153131    4.631371   13.068987      5.00      14.0067
     172     2 Ga  31    8.109516    2.761294   13.613536     13.00      69.7230
     173     1 N    7    8.126526    2.751748   15.591899      5.00      14.0067
     174     2 Ga  31    8.006537    4.546511   16.433374     13.00      69.7230
     175     1 N    7    6.505835    7.398810    2.610999      5.00      14.0067
     176     2 Ga  31    6.505134    5.662243    3.296275     13.00      69.7230
     177     1 N    7    6.510290    5.542072    5.257346      5.00      14.0067
     178     2 Ga  31    6.503833    7.401823    5.869458     13.00      69.7230
     179     1 N    7    6.510937    7.397511    7.846613      5.00      14.0067
     180     2 Ga  31    6.511628    5.530418    8.436950     13.00      69.7230
     181     1 N    7    6.511978    5.528173   10.433594      5.00      14.0067
     182     2 Ga  31    6.511326    7.398642   11.025397     13.00      69.7230
     183     1 N    7    6.511862    7.395128   12.999834      5.00      14.0067
     184     2 Ga  31    6.511989    5.528608   13.614035     13.00      69.7230
     185     1 N    7    6.512223    5.548385   15.592368      5.00      14.0067
     186     2 Ga  31    6.511960    7.399895   15.864395     13.00      69.7230
     187     1 N    7    4.803762   10.124996    2.511200      5.00      14.0067
     188     2 Ga  31    4.979499    8.281140    3.255043     13.00      69.7230
     189     1 N    7    4.900922    8.324750    5.237478      5.00      14.0067
     190     2 Ga  31    4.929435   10.197626    5.783601     13.00      69.7230
     191     1 N    7    4.913900   10.187758    7.789833      5.00      14.0067
     192     2 Ga  31    4.893703    8.334029    8.432158     13.00      69.7230
     193     1 N    7    4.893266    8.332426   10.428858      5.00      14.0067
     194     2 Ga  31    4.918560   10.191122   11.070402     13.00      69.7230
     195     1 N    7    4.935663   10.200971   13.065389      5.00      14.0067
     196     2 Ga  31    4.892101    8.332788   13.623656     13.00      69.7230
     197     1 N    7    4.920044    8.309132   15.582693      5.00      14.0067
     198     2 Ga  31    4.738421   10.087218   16.495835     13.00      69.7230
     199     3 O    8    0.010556    4.089027   -0.429510      6.00      15.9994
     200     4 H    1   -0.188635    5.875416   -0.342202      1.00       1.0079
     201     5 C    6    1.125131    3.635239   -1.220671      4.00      12.0107
     202     4 H    1    2.093121    3.939727   -0.790231      1.00       1.0079
     203     4 H    1    1.119916    2.539653   -1.326921      1.00       1.0079
     204     4 H    1    1.030071    4.080904   -2.221017      1.00       1.0079
     205     2 Ga  31    3.265805    5.534637    2.851841     13.00      69.7230
     206     3 O    8   -0.190403    6.860634   -0.199001      6.00      15.9994
     207     4 H    1    0.031080    7.309134    1.659319      1.00       1.0079
     208     4 H    1    0.565865    7.216985   -0.670883      1.00       1.0079
     209     2 Ga  31    8.192767    2.729466    0.931414     13.00      69.7230
     210     5 C    6    4.902374    4.578776    0.995481      4.00      12.0107
     211     4 H    1    5.808449    5.041977    0.575475      1.00       1.0079
     212     4 H    1    3.970104    4.098326    0.658492      1.00       1.0079




 SCF PARAMETERS         Density guess:                                    ATOMIC
                        --------------------------------------------------------
                        max_scf:                                              80
                        max_scf_history:                                       0
                        max_diis:                                              4
                        --------------------------------------------------------
                        eps_scf:                                        5.00E-06
                        eps_scf_history:                                0.00E+00
                        eps_diis:                                       1.00E-01
                        eps_eigval:                                     1.00E-05
                        --------------------------------------------------------
                        level_shift [a.u.]:                                 0.00
                        --------------------------------------------------------
                        Outer loop SCF in use 
                        No variables optimised in outer loop
                        eps_scf                                         5.00E-06
                        max_scf                                                4
                        No outer loop optimization
                        step_size                                       5.00E-01

 PW_GRID| Information for grid number                                          1
 PW_GRID| Grid distributed over                                    80 processors
 PW_GRID| Real space group dimensions                                    80    1
 PW_GRID| the grid is blocked:                                                NO
 PW_GRID| Cutoff [a.u.]                                                    600.0
 PW_GRID| spherical cutoff:                                                   NO
 PW_GRID|   Bounds   1           -144     143                Points:         288
 PW_GRID|   Bounds   2           -144     143                Points:         288
 PW_GRID|   Bounds   3           -337     337                Points:         675
 PW_GRID| Volume element (a.u.^3)  0.5630E-03     Volume (a.u.^3)     31519.8467
 PW_GRID| Grid span                                                    FULLSPACE
 PW_GRID|   Distribution                         Average         Max         Min
 PW_GRID|   G-Vectors                           699840.0      699840      699840
 PW_GRID|   G-Rays                                2430.0        2430        2430
 PW_GRID|   Real Space Points                   699840.0      777600      583200

 PW_GRID| Information for grid number                                          2
 PW_GRID| Grid distributed over                                    80 processors
 PW_GRID| Real space group dimensions                                    80    1
 PW_GRID| the grid is blocked:                                                NO
 PW_GRID| Cutoff [a.u.]                                                    200.0
 PW_GRID| spherical cutoff:                                                   NO
 PW_GRID|   Bounds   1            -80      79                Points:         160
 PW_GRID|   Bounds   2            -80      79                Points:         160
 PW_GRID|   Bounds   3           -200     199                Points:         400
 PW_GRID| Volume element (a.u.^3)  0.3078E-02     Volume (a.u.^3)     31519.8467
 PW_GRID| Grid span                                                    FULLSPACE
 PW_GRID|   Distribution                         Average         Max         Min
 PW_GRID|   G-Vectors                           128000.0      128160      127840
 PW_GRID|   G-Rays                                 800.0         801         799
 PW_GRID|   Real Space Points                   128000.0      128000      128000

 PW_GRID| Information for grid number                                          3
 PW_GRID| Grid distributed over                                    80 processors
 PW_GRID| Real space group dimensions                                    80    1
 PW_GRID| the grid is blocked:                                                NO
 PW_GRID| Cutoff [a.u.]                                                     66.7
 PW_GRID| spherical cutoff:                                                   NO
 PW_GRID|   Bounds   1            -48      47                Points:          96
 PW_GRID|   Bounds   2            -48      47                Points:          96
 PW_GRID|   Bounds   3           -112     112                Points:         225
 PW_GRID| Volume element (a.u.^3)  0.1520E-01     Volume (a.u.^3)     31519.8467
 PW_GRID| Grid span                                                    FULLSPACE
 PW_GRID|   Distribution                         Average         Max         Min
 PW_GRID|   G-Vectors                            25920.0       26688       24864
 PW_GRID|   G-Rays                                 270.0         278         259
 PW_GRID|   Real Space Points                    25920.0       43200       21600

 PW_GRID| Information for grid number                                          4
[...]
 flops   242 x    32 x   166         640396956672     100.0%      0.0%      0.0%
 flops   242 x    64 x   183         684586450944     100.0%      0.0%      0.0%
 flops   973 x    32 x    50         698143846400     100.0%      0.0%      0.0%
 flops   973 x    50 x    32         698143846400     100.0%      0.0%      0.0%
 flops   242 x    32 x    32         730908704768     100.0%      0.0%      0.0%
 flops    25 x    18 x    13         764506606500     100.0%      0.0%      0.0%
 flops    13 x    18 x    25         764506606500     100.0%      0.0%      0.0%
 flops   955 x    32 x   183         835650731520     100.0%      0.0%      0.0%
 flops   991 x    32 x   183         867151701504     100.0%      0.0%      0.0%
 flops   242 x    32 x   227         875723549184     100.0%      0.0%      0.0%
 flops   242 x    64 x   166         931486482432     100.0%      0.0%      0.0%
 flops    25 x    25 x    50        1008699500000     100.0%      0.0%      0.0%
 flops   973 x    64 x    50        1015481958400     100.0%      0.0%      0.0%
 flops   973 x    50 x    64        1015481958400     100.0%      0.0%      0.0%
 flops   242 x    64 x    32        1063139934208     100.0%      0.0%      0.0%
 flops   242 x    32 x    64        1063139934208     100.0%      0.0%      0.0%
 flops     5 x    32 x    25        1071655424000     100.0%      0.0%      0.0%
 flops    25 x    32 x     5        1071655424000     100.0%      0.0%      0.0%
 flops   955 x    32 x   166        1137032962560     100.0%      0.0%      0.0%
 flops   991 x    32 x   166        1179894938112     100.0%      0.0%      0.0%
 flops   955 x    64 x   183        1215491973120     100.0%      0.0%      0.0%
 flops   991 x    64 x   183        1261311565824     100.0%      0.0%      0.0%
 flops   242 x    64 x   227        1273779707904     100.0%      0.0%      0.0%
 flops   224 x    32 x   183        1306937769984     100.0%      0.0%      0.0%
 flops    25 x    18 x    25        1452774240000     100.0%      0.0%      0.0%
 flops   242 x    64 x    64        1546385358848     100.0%      0.0%      0.0%
 flops   955 x    32 x   227        1554858328320     100.0%      0.0%      0.0%
 flops   991 x    32 x   227        1613470788864     100.0%      0.0%      0.0%
 flops   955 x    64 x   166        1653866127360     100.0%      0.0%      0.0%
 flops   973 x    32 x   183        1702802433024     100.0%      0.0%      0.0%
 flops   991 x    64 x   166        1716210819072     100.0%      0.0%      0.0%
 flops   224 x    32 x   166        1778292375552     100.0%      0.0%      0.0%
 flops    13 x    13 x    32        1870949711488     100.0%      0.0%      0.0%
 flops   224 x    64 x   183        1901000392704     100.0%      0.0%      0.0%
 flops   224 x    32 x    32        2029630783488     100.0%      0.0%      0.0%
 flops   955 x    64 x   227        2261612113920     100.0%      0.0%      0.0%
 flops   973 x    32 x   166        2316927900672     100.0%      0.0%      0.0%
 flops   991 x    64 x   227        2346866601984     100.0%      0.0%      0.0%
 flops   955 x    32 x    32        2412004474880     100.0%      0.0%      0.0%
 flops   224 x    32 x   227        2431761260544     100.0%      0.0%      0.0%
 flops   973 x    64 x   183        2476803538944     100.0%      0.0%      0.0%
 flops   991 x    32 x    32        2502928203776     100.0%      0.0%      0.0%
 flops   224 x    64 x   166        2586607091712     100.0%      0.0%      0.0%
 flops    13 x    13 x    64        2721381398528     100.0%      0.0%      0.0%
 flops   224 x    32 x    64        2952190230528     100.0%      0.0%      0.0%
 flops   224 x    64 x    32        2952190230528     100.0%      0.0%      0.0%
 flops   973 x    32 x   227        3168329117184     100.0%      0.0%      0.0%
 flops   973 x    64 x   166        3370076946432     100.0%      0.0%      0.0%
 flops   955 x    32 x    64        3508370145280     100.0%      0.0%      0.0%
 flops   955 x    64 x    32        3508370145280     100.0%      0.0%      0.0%
 flops   224 x    64 x   227        3537107288064     100.0%      0.0%      0.0%
 flops   991 x    32 x    64        3640622841856     100.0%      0.0%      0.0%
 flops   991 x    64 x    32        3640622841856     100.0%      0.0%      0.0%
 flops    25 x    13 x    32        3684839100800     100.0%      0.0%      0.0%
 flops    13 x    25 x    32        3714866355200     100.0%      0.0%      0.0%
 flops   224 x    64 x    64        4294094880768     100.0%      0.0%      0.0%
 flops   973 x    64 x   227        4608478715904     100.0%      0.0%      0.0%
 flops   973 x    32 x    32        4914932678656     100.0%      0.0%      0.0%
 flops   955 x    64 x    64        5103083847680     100.0%      0.0%      0.0%
 flops   991 x    64 x    64        5295451406336     100.0%      0.0%      0.0%
 flops    25 x    13 x    64        5359765964800     100.0%      0.0%      0.0%
 flops    13 x    25 x    64        5403441971200     100.0%      0.0%      0.0%
 flops    25 x    25 x    32        7101244480000     100.0%      0.0%      0.0%
 flops   973 x    64 x    32        7148992987136     100.0%      0.0%      0.0%
 flops   973 x    32 x    64        7148992987136     100.0%      0.0%      0.0%
 flops    25 x    25 x    64       10329082880000     100.0%      0.0%      0.0%
 flops   973 x    64 x    64       10398535254016     100.0%      0.0%      0.0%
 flops    13 x    32 x    13       19040600097792     100.0%      0.0%      0.0%
 flops    25 x    32 x    13       38055439968000     100.0%      0.0%      0.0%
 flops    13 x    32 x    25       38055439968000     100.0%      0.0%      0.0%
 flops    25 x    32 x    25       72315873280000     100.0%      0.0%      0.0%
 flops inhomo. stacks             100167576617088     100.0%      0.0%      0.0%
 flops total                       459.124474E+12     100.0%      0.0%      0.0%
 flops max/rank                      7.958628E+12     100.0%      0.0%      0.0%
 matmuls inhomo. stacks                  10506240     100.0%      0.0%      0.0%
 matmuls total                         9419537618     100.0%      0.0%      0.0%
 number of processed stacks             166866318     100.0%      0.0%      0.0%
 average stack size                                    56.4       0.0       0.0
 marketing flops                   497.634909E+12
 -------------------------------------------------------------------------------
 # multiplications                          43357
 max memory usage/rank               1.552638E+09
 # max total images/rank                        5
 # max 3D layers                                1
 # MPI messages exchanged               395415840
 MPI messages size (bytes):
  total size                        49.255314E+12
  min size                           0.000000E+00
  max size                           1.799656E+06
  average size                     124.565859E+03
 MPI breakdown and total messages size (bytes):
             size <=      128             3104600                        0
       128 < size <=     8192            51491330             421816975360
      8192 < size <=    32768           118668870            2420837126080
     32768 < size <=   131072           175062960           12684592642368
    131072 < size <=  4194304            47088080           33704847052336
   4194304 < size <= 16777216                   0                        0
  16777216 < size                               0                        0
 -------------------------------------------------------------------------------

 *** WARNING in dbcsr/mm/dbcsr_mm.F:268 :: Using a non-square number of ***
 *** MPI ranks might lead to poor performance.                          ***
 *** Used ranks: 80                                                     ***
 *** Suggested: 81 169                                                  ***

 -------------------------------------------------------------------------------
 
 MEMORY| Estimated peak process memory [MiB]                                1506

 -------------------------------------------------------------------------------
 ----                             MULTIGRID INFO                            ----
 -------------------------------------------------------------------------------
 count for grid        1:        1252798          cutoff [a.u.]          600.00
 count for grid        2:       10318602          cutoff [a.u.]          200.00
 count for grid        3:        9509757          cutoff [a.u.]           66.67
 count for grid        4:       14377464          cutoff [a.u.]           22.22
 count for grid        5:       13234345          cutoff [a.u.]            7.41
 total gridlevel count  :       48692966

 -------------------------------------------------------------------------------
 -                                                                             -
 -                         MESSAGE PASSING PERFORMANCE                         -
 -                                                                             -
 -------------------------------------------------------------------------------

 ROUTINE             CALLS      AVE VOLUME [Bytes]
 MP_Group             4465
 MP_Bcast            60466                  16831.
 MP_Allreduce       388466                    273.
 MP_Sync              1877
 MP_Alltoall        246300                5308425.
 MP_SendRecv         28440                   5790.
 MP_ISendRecv      1114848                 133520.
 MP_Wait           9662846
 MP_comm_split        1872
 MP_ISend         11117312                 117828.
 MP_IRecv         11120708                 117576.
 MP_Recv              1691                 162816.
 MP_Memory         4808434
 -------------------------------------------------------------------------------


 -------------------------------------------------------------------------------
 -                                                                             -
 -                           R E F E R E N C E S                               -
 -                                                                             -
 -------------------------------------------------------------------------------
 
 CP2K version 7.0 (Development Version), the CP2K developers group (2018).
 CP2K is freely available from https://www.cp2k.org/ .

 Schuett, Ole; Messmer, Peter; Hutter, Juerg; VandeVondele, Joost. 
 Electronic Structure Calculations on Graphics Processing Units, John Wiley & Sons, Ltd, 173-190 (2016). 
 GPU-Accelerated Sparse Matrix-Matrix Multiplication for Linear Scaling Density Functional Theory.
 http://dx.doi.org/10.1002/9781118670712.ch8


 Borstnik, U; VandeVondele, J; Weber, V; Hutter, J. 
 PARALLEL COMPUTING, 40 (5-6), 47-58 (2014). 
 Sparse matrix multiplication: The distributed block-compressed sparse
 row library.
 http://dx.doi.org/10.1016/j.parco.2014.03.012


 Hutter, J; Iannuzzi, M; Schiffmann, F; VandeVondele, J. 
 WILEY INTERDISCIPLINARY REVIEWS-COMPUTATIONAL MOLECULAR SCIENCE, 4 (1), 15-25 (2014). 
 CP2K: atomistic simulations of condensed matter systems.
 http://dx.doi.org/10.1002/wcms.1159


 Grimme, S; Ehrlich, S; Goerigk, L. 
 JOURNAL OF COMPUTATIONAL CHEMISTRY, 32, 1456 (2011). 
 Effect of the damping function in dispersion corrected density functional theory.
 http://dx.doi.org/10.1002/jcc.21759


 Grimme, S; Antony, J; Ehrlich, S; Krieg, H. 
 JOURNAL OF CHEMICAL PHYSICS, 132 (15), 154104 (2010). 
 A consistent and accurate ab initio parametrization of density
 functional dispersion correction (DFT-D) for the 94 elements H-Pu.
 http://dx.doi.org/10.1063/1.3382344


 VandeVondele, J; Hutter, J. 
 JOURNAL OF CHEMICAL PHYSICS, 127 (11), 114105 (2007). 
 Gaussian basis sets for accurate calculations on molecular systems in
 gas and condensed phases.
 http://dx.doi.org/10.1063/1.2770708


 Krack, M. 
 THEORETICAL CHEMISTRY ACCOUNTS, 114 (1-3), 145-152 (2005). 
 Pseudopotentials for H to Kr optimized for gradient-corrected
 exchange-correlation functionals.
 http://dx.doi.org/10.1007/s00214-005-0655-y


 VandeVondele, J; Krack, M; Mohamed, F; Parrinello, M; Chassaing, T;
 Hutter, J. COMPUTER PHYSICS COMMUNICATIONS, 167 (2), 103-128 (2005). 
 QUICKSTEP: Fast and accurate density functional calculations using a
 mixed Gaussian and plane waves approach.
 http://dx.doi.org/10.1016/j.cpc.2004.12.014


 Frigo, M; Johnson, SG. 
 PROCEEDINGS OF THE IEEE, 93 (2), 216-231 (2005). 
 The design and implementation of FFTW3.
 http://dx.doi.org/10.1109/JPROC.2004.840301


 Kolafa, J. 
 JOURNAL OF COMPUTATIONAL CHEMISTRY, 25 (3), 335-342 (2004). 
 Time-reversible always stable predictor-corrector method for molecular dynamics of polarizable molecules.
 http://dx.doi.org/10.1002/jcc.10385


 VandeVondele, J; Hutter, J. 
 JOURNAL OF CHEMICAL PHYSICS, 118 (10), 4365-4369 (2003). 
 An efficient orbital transformation method for electronic structure
 calculations.
 http://dx.doi.org/10.1063/1.1543154


 Hartwigsen, C; Goedecker, S; Hutter, J. 
 PHYSICAL REVIEW B, 58 (7), 3641-3662 (1998). 
 Relativistic separable dual-space Gaussian pseudopotentials from H to Rn.
 http://dx.doi.org/10.1103/PhysRevB.58.3641


 Lippert, G; Hutter, J; Parrinello, M. 
 MOLECULAR PHYSICS, 92 (3), 477-487 (1997). 
 A hybrid Gaussian and plane wave density functional scheme.
 http://dx.doi.org/10.1080/002689797170220


 Perdew, JP; Burke, K; Ernzerhof, M. 
 PHYSICAL REVIEW LETTERS, 77 (18), 3865-3868 (1996). 
 Generalized gradient approximation made simple.
 http://dx.doi.org/10.1103/PhysRevLett.77.3865


 Goedecker, S; Teter, M; Hutter, J. 
 PHYSICAL REVIEW B, 54 (3), 1703-1710 (1996). 
 Separable dual-space Gaussian pseudopotentials.
 http://dx.doi.org/10.1103/PhysRevB.54.1703


 -------------------------------------------------------------------------------
 -                                                                             -
 -                                T I M I N G                                  -
 -                                                                             -
 -------------------------------------------------------------------------------
 SUBROUTINE                       CALLS  ASD         SELF TIME        TOTAL TIME
                                MAXIMUM       AVERAGE  MAXIMUM  AVERAGE  MAXIMUM
 CP2K                                 1  1.0     0.12     0.15 22284.88 22284.90
 cp_geo_opt                           1  2.0     0.03     0.04 22283.61 22283.63
 geoopt_bfgs                          1  3.0     0.08     0.19 22283.58 22283.63
 cp_eval_at                          91  4.0     0.02     0.04 22243.04 22243.08
 qs_forces                           90  5.0     0.03     0.06 22119.69 22119.70
 qs_energies                         91  6.0     0.03     0.06 20396.91 20397.06
 scf_env_do_scf                      91  7.0     0.04     0.14 19198.52 19198.58
 scf_env_do_scf_inner_loop         1417  8.0     0.08     0.14 17157.38 17157.48
 rebuild_ks_matrix                 1507  9.8     0.01     0.02  9711.75  9714.00
 qs_ks_build_kohn_sham_matrix      1507 10.8     0.45     0.78  9711.74  9713.99
 qs_ks_update_qs_env               1512  9.0     0.01     0.02  8074.71  8076.58
 qs_rho_update_rho                 1508  9.1     0.02     0.04  7807.72  7811.79
 calculate_rho_elec                3016 10.1  3910.40  3981.01  7807.70  7811.77
 sum_up_and_integrate               844 11.7    12.49    13.99  5336.28  5338.17
 integrate_v_rspace                1688 12.7  3001.66  3117.92  5323.79  5327.08
 pw_transfer                      47786 13.3     5.14     5.81  4840.21  4859.14
 fft_wrap_pw1pw2                  44772 14.4     0.53     0.58  4816.40  4834.97
 fft_wrap_pw1pw2_600              25956 15.6   287.47   322.93  4470.86  4487.86
 fft3d_ps                         44772 16.4  1332.41  1466.20  4145.76  4185.91
 rs_pw_transfer                   23974 12.9     0.32     0.37  3855.49  3906.40
 density_rs2pw                     3016 11.1     0.22     0.25  3492.06  3565.24
 qs_vxc_create                     1507 11.8     0.04     0.07  3402.86  3403.58
 dbcsr_multiply_generic           43357 13.7     2.89     3.91  3041.74  3050.10
 mp_waitall_1                   8794990 16.7  2702.16  2788.56  2702.16  2788.56
 mp_alltoall_z22v                 44772 18.4  2437.93  2707.37  2437.93  2707.37
 qs_scf_new_mos                    1417  9.0     0.01     0.02  2631.98  2634.62
 qs_scf_loop_do_ot                 1417 10.0     0.06     0.19  2631.97  2634.61
 xc_vxc_pw_create                   844 12.7   175.17   197.40  2546.44  2546.88
 ot_scf_mini                       1417 11.0     0.24     0.44  2419.39  2421.17
 multiply_cannon                  43357 14.7    13.82    14.65  2362.56  2409.66
 init_scf_loop                       95  8.0     0.01     0.02  2037.95  2037.98
 xc_rho_set_and_dset_create        1507 13.8    26.39    28.19  1831.61  1871.06
 potential_pw2rs                   1688 13.7     1.33     1.46  1826.33  1829.85
 mp_waitany                      867856 14.9  1700.83  1813.84  1700.83  1813.84
 x_to_yz                          19473 18.0   210.34   240.44  1584.91  1678.73
 rs_pw_transfer_RS2PW_600          3198 13.0   629.45   688.30  1605.03  1654.60
 qs_ks_update_qs_env_forces          90  6.0     0.00     0.00  1651.67  1652.00
 multiply_cannon_metrocomm3      867140 15.7     2.32     2.54  1394.44  1553.54
 yz_to_x                          15891 16.8   131.38   137.83  1192.62  1328.50
 ot_mini                           1417 12.0     0.01     0.02  1269.27  1271.10
 rs_pw_transfer_PW2RS_600          1960 15.1   438.55   478.28  1103.66  1128.74
 prepare_preconditioner              95  9.0     0.00     0.00  1107.30  1107.49
 make_preconditioner                190 10.0     0.01     0.04  1023.26  1023.42
 make_full_all                      190 11.0     0.07     0.13   938.45   938.92
 xc_exc_calc                        663 13.0     3.23     3.65   856.38   856.78
 qs_ot_get_derivative              1508 13.0     0.02     0.04   803.38   805.03
 init_scf_run                        91  7.0     0.00     0.01   748.54   748.57
 scf_env_initial_rho_setup           91  8.0     0.00     0.00   748.54   748.56
 mp_alltoall_d11v                 51214 15.0   634.78   741.22   634.78   741.22
 wfi_extrapolate                     91  9.0     0.05     0.13   740.38   740.42
 multiply_cannon_metrocomm1      867140 15.7     2.68     2.90   559.12   720.66
 cp_fm_syevd                       1872 13.7     0.02     0.04   705.27   706.76
 rs_distribute_matrix              4884 12.0     5.87    11.63   590.83   693.57
 cp_fm_redistribute_end            1872 14.7   214.47   683.95   218.37   687.29
 cp_fm_syevd_base                  1872 14.3   465.72   661.06   465.72   661.06
 apply_preconditioner_dbcsr        1698 14.0     0.00     0.01   500.75   501.84
 apply_all                         1698 15.0     0.20     0.29   500.75   501.84
 qs_ot_get_p                       3024 11.9     0.03     0.11   480.40   487.17
 mp_sum_d                         58268 14.7   366.28   465.09   366.28   465.09
 ot_new_cg_direction                754 13.0     0.02     0.06   455.64   455.71
 -------------------------------------------------------------------------------

 The number of warnings for this run is : 1
 
 -------------------------------------------------------------------------------
  **** **** ******  **  PROGRAM ENDED AT                 2019-07-22 04:32:31.423
 ***** ** ***  *** **   PROGRAM RAN ON            blg4116.int.ets1.calculquebec.
 **    ****   ******    PROGRAM RAN BY                                       rzk
 ***** **    ** ** **   PROGRAM PROCESS ID                                246009
  **** **  *******  **  PROGRAM STOPPED IN /lustre04/scratch/rzk/rzk/GaN-carbene
                                           /443-adatoms-both-2x2/11-CH3O-HO-H2C-
                                           H-H/02-UseIntermediate-0904
