 DBCSR| Multiplication driver                                               BLAS
 DBCSR| Multrec recursion limit                                              512
 DBCSR| Multiplication stack size                                           1000
 DBCSR| Maximum elements for images                                    UNLIMITED
 DBCSR| Multiplicative factor virtual images                                   1
 DBCSR| Multiplication size stacks                                             3
 DBCSR| Number of 3D layers                                               SINGLE
 DBCSR| Use MPI memory allocation                                              T
 DBCSR| Use RMA algorithm                                                      F
 DBCSR| Use Communication thread                                               T
 DBCSR| Communication thread load                                             87


  **** **** ******  **  PROGRAM STARTED AT               2019-07-21 22:20:30.402
 ***** ** ***  *** **   PROGRAM STARTED ON        blg4116.int.ets1.calculquebec.
 **    ****   ******    PROGRAM STARTED BY                                   rzk
 ***** **    ** ** **   PROGRAM PROCESS ID                                246009
  **** **  *******  **  PROGRAM STARTED IN /lustre04/scratch/rzk/rzk/GaN-carbene
                                           /443-adatoms-both-2x2/11-CH3O-HO-H2C-
                                           H-H/02-UseIntermediate-0904

 CP2K| version string:                    CP2K version 7.0 (Development Version)
 CP2K| source code revision number:                                    svn:18619
 CP2K| cp2kflags: libint fftw3 libxc parallel mpi3 scalapack mkl                
 CP2K| is freely available from                            https://www.cp2k.org/
 CP2K| Program compiled at                          Sun Apr  7 00:48:11 EDT 2019
 CP2K| Program compiled on                      beluga2.int.ets1.calculquebec.ca
 CP2K| Program compiled for                    Beluga-Linux-x86-64-intel-openmpi
 CP2K| Data directory path    /home/rzk/projects/def-rzk/group/cp2k/cp2k-mcgill/
 CP2K| Input file name                                                 start.inp
 
 GLOBAL| Force Environment number                                              1
 GLOBAL| Basis set file name                                        BASIS_MOLOPT
 GLOBAL| Potential file name                                      GTH_POTENTIALS
 GLOBAL| MM Potential file name                                     MM_POTENTIAL
 GLOBAL| Coordinate file name                                      __STD_INPUT__
 GLOBAL| Method name                                                        CP2K
 GLOBAL| Project name                                                       TEST
 GLOBAL| Preferred FFT library                                             FFTW3
 GLOBAL| Preferred diagonalization lib.                                       SL
 GLOBAL| Run type                                                        GEO_OPT
 GLOBAL| All-to-all communication in single precision                          F
 GLOBAL| FFTs using library dependent lengths                                  F
 GLOBAL| Global print level                                               MEDIUM
 GLOBAL| MPI I/O enabled                                                       T
 GLOBAL| Total number of message passing processes                            80
 GLOBAL| Number of threads for this process                                    1
 GLOBAL| This output is from process                                           0
 GLOBAL| CPU model name :  Intel(R) Xeon(R) Gold 6148 CPU @ 2.40GHz

 MEMORY| system memory details [Kb]
 MEMORY|                        rank 0           min           max       average
 MEMORY| MemTotal            196614300     196614300     196614300     196614300
 MEMORY| MemFree             181651568     170852184     181651568     176282053
 MEMORY| Buffers                     0             0             0             0
 MEMORY| Cached                1429324       1341024       1429324       1385174
 MEMORY| Slab                  2165808       2165808       4268400       3217104
 MEMORY| SReclaimable           487816        487816       1813248       1150532
 MEMORY| MemLikelyFree       183568708     174006456     183568708     178817759


 *** Fundamental physical constants (SI units) ***

 *** Literature: B. J. Mohr and B. N. Taylor,
 ***             CODATA recommended values of the fundamental physical
 ***             constants: 2006, Web Version 5.1
 ***             http://physics.nist.gov/constants

 Speed of light in vacuum [m/s]                             2.99792458000000E+08
 Magnetic constant or permeability of vacuum [N/A**2]       1.25663706143592E-06
 Electric constant or permittivity of vacuum [F/m]          8.85418781762039E-12
 Planck constant (h) [J*s]                                  6.62606896000000E-34
 Planck constant (h-bar) [J*s]                              1.05457162825177E-34
 Elementary charge [C]                                      1.60217648700000E-19
 Electron mass [kg]                                         9.10938215000000E-31
 Electron g factor [ ]                                     -2.00231930436220E+00
 Proton mass [kg]                                           1.67262163700000E-27
 Fine-structure constant                                    7.29735253760000E-03
 Rydberg constant [1/m]                                     1.09737315685270E+07
 Avogadro constant [1/mol]                                  6.02214179000000E+23
 Boltzmann constant [J/K]                                   1.38065040000000E-23
 Atomic mass unit [kg]                                      1.66053878200000E-27
 Bohr radius [m]                                            5.29177208590000E-11

 *** Conversion factors ***

 [u] -> [a.u.]                                              1.82288848426455E+03
 [Angstrom] -> [Bohr] = [a.u.]                              1.88972613288564E+00
 [a.u.] = [Bohr] -> [Angstrom]                              5.29177208590000E-01
 [a.u.] -> [s]                                              2.41888432650478E-17
 [a.u.] -> [fs]                                             2.41888432650478E-02
 [a.u.] -> [J]                                              4.35974393937059E-18
 [a.u.] -> [N]                                              8.23872205491840E-08
 [a.u.] -> [K]                                              3.15774647902944E+05
 [a.u.] -> [kJ/mol]                                         2.62549961709828E+03
 [a.u.] -> [kcal/mol]                                       6.27509468713739E+02
 [a.u.] -> [Pa]                                             2.94210107994716E+13
 [a.u.] -> [bar]                                            2.94210107994716E+08
 [a.u.] -> [atm]                                            2.90362800883016E+08
 [a.u.] -> [eV]                                             2.72113838565563E+01
 [a.u.] -> [Hz]                                             6.57968392072181E+15
 [a.u.] -> [1/cm] (wave numbers)                            2.19474631370540E+05
 [a.u./Bohr**2] -> [1/cm]                                   5.14048714338585E+03
 

 CELL_TOP| Volume [angstrom^3]:                                         4586.323
 CELL_TOP| Vector a [angstrom    12.864     0.000     0.000    |a| =      12.864
 CELL_TOP| Vector b [angstrom    -6.432    11.141     0.000    |b| =      12.864
 CELL_TOP| Vector c [angstrom     0.000     0.000    32.000    |c| =      32.000
 CELL_TOP| Angle (b,c), alpha [degree]:                                   90.000
 CELL_TOP| Angle (a,c), beta  [degree]:                                   90.000
 CELL_TOP| Angle (a,b), gamma [degree]:                                  120.000
 CELL_TOP| Numerically orthorhombic:                                          NO
 
 GENERATE|  Preliminary Number of Bonds generated:                             0
 GENERATE|  Achieved consistency in connectivity generation.

 CELL| Volume [angstrom^3]:                                             4586.323
 CELL| Vector a [angstrom]:      12.864     0.000     0.000    |a| =      12.864
 CELL| Vector b [angstrom]:      -6.432    11.141     0.000    |b| =      12.864
 CELL| Vector c [angstrom]:       0.000     0.000    32.000    |c| =      32.000
 CELL| Angle (b,c), alpha [degree]:                                       90.000
 CELL| Angle (a,c), beta  [degree]:                                       90.000
 CELL| Angle (a,b), gamma [degree]:                                      120.000
 CELL| Numerically orthorhombic:                                              NO

 CELL_REF| Volume [angstrom^3]:                                         4670.759
 CELL_REF| Vector a [angstrom    12.982     0.000     0.000    |a| =      12.982
 CELL_REF| Vector b [angstrom    -6.491    11.243     0.000    |b| =      12.982
 CELL_REF| Vector c [angstrom     0.000     0.000    32.000    |c| =      32.000
 CELL_REF| Angle (b,c), alpha [degree]:                                   90.000
 CELL_REF| Angle (a,c), beta  [degree]:                                   90.000
 CELL_REF| Angle (a,b), gamma [degree]:                                  120.000
 CELL_REF| Numerically orthorhombic:                                          NO

 *******************************************************************************
 *******************************************************************************
 **                                                                           **
 **     #####                         ##              ##                      **
 **    ##   ##            ##          ##              ##                      **
 **   ##     ##                       ##            ######                    **
 **   ##     ##  ##   ##  ##   #####  ##  ##   ####   ##    #####    #####    **
 **   ##     ##  ##   ##  ##  ##      ## ##   ##      ##   ##   ##  ##   ##   **
 **   ##  ## ##  ##   ##  ##  ##      ####     ###    ##   ######   ######    **
 **    ##  ###   ##   ##  ##  ##      ## ##      ##   ##   ##       ##        **
 **     #######   #####   ##   #####  ##  ##  ####    ##    #####   ##        **
 **           ##                                                    ##        **
 **                                                                           **
 **                                                ... make the atoms dance   **
 **                                                                           **
 **            Copyright (C) by CP2K developers group (2000 - 2018)           **
 **                                                                           **
 *******************************************************************************

 DFT| Spin unrestricted (spin-polarized) Kohn-Sham calculation               UKS
 DFT| Multiplicity                                                             1
 DFT| Number of spin states                                                    2
 DFT| Charge                                                                   0
 DFT| Self-interaction correction (SIC)                                       NO
 DFT| Cutoffs: density                                              1.000000E-10
 DFT|          gradient                                             1.000000E-10
 DFT|          tau                                                  1.000000E-10
 DFT|          cutoff_smoothing_range                               0.000000E+00
 DFT| XC density smoothing                                                  NONE
 DFT| XC derivatives                                                          PW
 FUNCTIONAL| ROUTINE=NEW
 FUNCTIONAL| PBE:
 FUNCTIONAL| J.P.Perdew, K.Burke, M.Ernzerhof, Phys. Rev. Letter, vol. 77, n 18,
 FUNCTIONAL|  pp. 3865-3868, (1996){spin polarized}                             
 vdW POTENTIAL|                                                   Pair Potential
 vdW POTENTIAL|          DFT-D3 (Version 3.1)
 vdW POTENTIAL|          Potential Form: S. Grimme et al, JCP 132: 154104 (2010)
 vdW POTENTIAL|          Zero Damping
 vdW POTENTIAL|          Cutoff Radius [Bohr]:                             18.90
 vdW POTENTIAL|          s6 Scaling Factor:                               1.0000
 vdW POTENTIAL|          sr6 Scaling Factor:                              1.2170
 vdW POTENTIAL|          s8 Scaling Factor:                               0.7220
 vdW POTENTIAL|          Cutoff for CN calculation:                   0.1000E-05

 QS| Method:                                                                 GPW
 QS| Density plane wave grid type                        NON-SPHERICAL FULLSPACE
 QS| Number of grid levels:                                                    5
 QS| Density cutoff [a.u.]:                                                600.0
 QS| Multi grid cutoff [a.u.]: 1) grid level                               600.0
 QS|                           2) grid level                               200.0
 QS|                           3) grid level                                66.7
 QS|                           4) grid level                                22.2
 QS|                           5) grid level                                 7.4
 QS| Grid level progression factor:                                          3.0
 QS| Relative density cutoff [a.u.]:                                        20.0
 QS| Consistent realspace mapping and integration 
 QS| Interaction thresholds: eps_pgf_orb:                                1.0E-07
 QS|                         eps_filter_matrix:                          0.0E+00
 QS|                         eps_core_charge:                            1.0E-16
 QS|                         eps_rho_gspace:                             1.0E-14
 QS|                         eps_rho_rspace:                             1.0E-14
 QS|                         eps_gvg_rspace:                             1.0E-07
 QS|                         eps_ppl:                                    1.0E-02
 QS|                         eps_ppnl:                                   1.0E-09


 ATOMIC KIND INFORMATION

  1. Atomic kind: N                                     Number of atoms:     100

     Orbital Basis Set                                        DZVP-MOLOPT-SR-GTH

       Number of orbital shell sets:                                           1
       Number of orbital shells:                                               5
       Number of primitive Cartesian functions:                                5
       Number of Cartesian basis functions:                                   14
       Number of spherical basis functions:                                   13
       Norm type:                                                              2

       Normalised Cartesian orbitals:

                        Set   Shell   Orbital            Exponent    Coefficient

                          1       1    2s                7.341988       0.360561
                                                         2.542637       0.139177
                                                         0.888575      -0.289383
                                                         0.333802      -0.182244
                                                         0.112012      -0.019197

                          1       2    3s                7.341988       0.282000
                                                         2.542637       0.177875
                                                         0.888575      -0.278381
                                                         0.333802       0.008577
                                                         0.112012       0.154176

                          1       3    3px               7.341988      -1.188719
                                                         2.542637      -0.973969
                                                         0.888575      -0.501079
                                                         0.333802      -0.144894
                                                         0.112012      -0.013986
                          1       3    3py               7.341988      -1.188719
                                                         2.542637      -0.973969
                                                         0.888575      -0.501079
                                                         0.333802      -0.144894
                                                         0.112012      -0.013986
                          1       3    3pz               7.341988      -1.188719
                                                         2.542637      -0.973969
                                                         0.888575      -0.501079
                                                         0.333802      -0.144894
                                                         0.112012      -0.013986

                          1       4    4px               7.341988      -0.094798
                                                         2.542637       0.050069
                                                         0.888575      -0.114797
                                                         0.333802       0.144793
                                                         0.112012       0.066710
                          1       4    4py               7.341988      -0.094798
                                                         2.542637       0.050069
                                                         0.888575      -0.114797
                                                         0.333802       0.144793
                                                         0.112012       0.066710
                          1       4    4pz               7.341988      -0.094798
                                                         2.542637       0.050069
                                                         0.888575      -0.114797
                                                         0.333802       0.144793
                                                         0.112012       0.066710

                          1       5    4dx2              7.341988       1.354688
                                                         2.542637       0.690378
                                                         0.888575       0.855359
                                                         0.333802       0.091746
                                                         0.112012       0.001253
                          1       5    4dxy              7.341988       2.346389
                                                         2.542637       1.195770
                                                         0.888575       1.481524
                                                         0.333802       0.158910
                                                         0.112012       0.002169
                          1       5    4dxz              7.341988       2.346389
                                                         2.542637       1.195770
                                                         0.888575       1.481524
                                                         0.333802       0.158910
                                                         0.112012       0.002169
                          1       5    4dy2              7.341988       1.354688
                                                         2.542637       0.690378
                                                         0.888575       0.855359
                                                         0.333802       0.091746
                                                         0.112012       0.001253
                          1       5    4dyz              7.341988       2.346389
                                                         2.542637       1.195770
                                                         0.888575       1.481524
                                                         0.333802       0.158910
                                                         0.112012       0.002169
                          1       5    4dz2              7.341988       1.354688
                                                         2.542637       0.690378
                                                         0.888575       0.855359
                                                         0.333802       0.091746
                                                         0.112012       0.001253

     GTH Potential information for                                    GTH-PBE-q5

       Description:                       Goedecker-Teter-Hutter pseudopotential
                                           Goedecker et al., PRB 54, 1703 (1996)
                                          Hartwigsen et al., PRB 58, 3641 (1998)
                                                      Krack, TCA 114, 145 (2005)

       Gaussian exponent of the core charge distribution:               6.208322
       Electronic configuration (s p d ...):                               2   3

       Parameters of the local part of the GTH pseudopotential:

                          rloc        C1          C2          C3          C4
                        0.283791  -12.415226    1.868096

       Parameters of the non-local part of the GTH pseudopotential:

                   l      r(l)      h(i,j,l)

                   0    0.255405   13.630263
                   1    0.245495

  2. Atomic kind: Ga                                    Number of atoms:     100

     Orbital Basis Set                                        DZVP-MOLOPT-SR-GTH

       Number of orbital shell sets:                                           1
       Number of orbital shells:                                               7
       Number of primitive Cartesian functions:                                6
       Number of Cartesian basis functions:                                   30
       Number of spherical basis functions:                                   25
       Norm type:                                                              2

       Normalised Cartesian orbitals:

                        Set   Shell   Orbital            Exponent    Coefficient

                          1       1    2s                7.066654       0.013136
                                                         3.428369      -0.094392
                                                         1.430064       0.265435
                                                         0.571611       0.056465
                                                         0.232197      -0.192187
                                                         0.076562      -0.044987

                          1       2    3s                7.066654      -0.098564
                                                         3.428369       0.010390
                                                         1.430064       0.351249
                                                         0.571611       0.182615
                                                         0.232197      -0.425358
                                                         0.076562       0.190349

                          1       3    3px               7.066654       0.002364
                                                         3.428369       0.019222
                                                         1.430064       0.250132
                                                         0.571611      -0.058486
                                                         0.232197      -0.159451
                                                         0.076562      -0.020696
                          1       3    3py               7.066654       0.002364
                                                         3.428369       0.019222
                                                         1.430064       0.250132
                                                         0.571611      -0.058486
                                                         0.232197      -0.159451
                                                         0.076562      -0.020696
                          1       3    3pz               7.066654       0.002364
                                                         3.428369       0.019222
                                                         1.430064       0.250132
                                                         0.571611      -0.058486
                                                         0.232197      -0.159451
                                                         0.076562      -0.020696

                          1       4    4px               7.066654       0.492448
                                                         3.428369      -0.614736
                                                         1.430064      -0.191654
                                                         0.571611       0.037801
                                                         0.232197       0.302315
                                                         0.076562      -0.071336
                          1       4    4py               7.066654       0.492448
                                                         3.428369      -0.614736
                                                         1.430064      -0.191654
                                                         0.571611       0.037801
                                                         0.232197       0.302315
                                                         0.076562      -0.071336
                          1       4    4pz               7.066654       0.492448
                                                         3.428369      -0.614736
                                                         1.430064      -0.191654
                                                         0.571611       0.037801
                                                         0.232197       0.302315
                                                         0.076562      -0.071336

                          1       5    4dx2              7.066654     -15.264855
                                                         3.428369      -5.345726
                                                         1.430064      -1.022732
                                                         0.571611      -0.123148
                                                         0.232197      -0.006983
                                                         0.076562      -0.000022
                          1       5    4dxy              7.066654     -26.439504
                                                         3.428369      -9.259069
                                                         1.430064      -1.771423
                                                         0.571611      -0.213299
                                                         0.232197      -0.012094
                                                         0.076562      -0.000037
                          1       5    4dxz              7.066654     -26.439504
                                                         3.428369      -9.259069
                                                         1.430064      -1.771423
                                                         0.571611      -0.213299
                                                         0.232197      -0.012094
                                                         0.076562      -0.000037
                          1       5    4dy2              7.066654     -15.264855
                                                         3.428369      -5.345726
                                                         1.430064      -1.022732
                                                         0.571611      -0.123148
                                                         0.232197      -0.006983
                                                         0.076562      -0.000022
                          1       5    4dyz              7.066654     -26.439504
                                                         3.428369      -9.259069
                                                         1.430064      -1.771423
                                                         0.571611      -0.213299
                                                         0.232197      -0.012094
                                                         0.076562      -0.000037
                          1       5    4dz2              7.066654     -15.264855
                                                         3.428369      -5.345726
                                                         1.430064      -1.022732
                                                         0.571611      -0.123148
                                                         0.232197      -0.006983
                                                         0.076562      -0.000022

                          1       6    5dx2              7.066654      -5.739265
                                                         3.428369      -2.129289
                                                         1.430064      -0.700423
                                                         0.571611       0.161606
                                                         0.232197       0.043513
                                                         0.076562       0.011205
                          1       6    5dxy              7.066654      -9.940698
                                                         3.428369      -3.688037
                                                         1.430064      -1.213168
                                                         0.571611       0.279909
                                                         0.232197       0.075368
                                                         0.076562       0.019407
                          1       6    5dxz              7.066654      -9.940698
                                                         3.428369      -3.688037
                                                         1.430064      -1.213168
                                                         0.571611       0.279909
                                                         0.232197       0.075368
                                                         0.076562       0.019407
                          1       6    5dy2              7.066654      -5.739265
                                                         3.428369      -2.129289
                                                         1.430064      -0.700423
                                                         0.571611       0.161606
                                                         0.232197       0.043513
                                                         0.076562       0.011205
                          1       6    5dyz              7.066654      -9.940698
                                                         3.428369      -3.688037
                                                         1.430064      -1.213168
                                                         0.571611       0.279909
                                                         0.232197       0.075368
                                                         0.076562       0.019407
                          1       6    5dz2              7.066654      -5.739265
                                                         3.428369      -2.129289
                                                         1.430064      -0.700423
                                                         0.571611       0.161606
                                                         0.232197       0.043513
                                                         0.076562       0.011205

                          1       7    5fx3              7.066654       0.705879
                                                         3.428369      -0.273976
                                                         1.430064       0.113667
                                                         0.571611       0.132480
                                                         0.232197       0.012437
                                                         0.076562       0.003241
                          1       7    5fx2y             7.066654       1.578393
                                                         3.428369      -0.612629
                                                         1.430064       0.254167
                                                         0.571611       0.296234
                                                         0.232197       0.027811
                                                         0.076562       0.007246
                          1       7    5fx2z             7.066654       1.578393
                                                         3.428369      -0.612629
                                                         1.430064       0.254167
                                                         0.571611       0.296234
                                                         0.232197       0.027811
                                                         0.076562       0.007246
                          1       7    5fxy2             7.066654       1.578393
                                                         3.428369      -0.612629
                                                         1.430064       0.254167
                                                         0.571611       0.296234
                                                         0.232197       0.027811
                                                         0.076562       0.007246
                          1       7    5fxyz             7.066654       2.733856
                                                         3.428369      -1.061105
                                                         1.430064       0.440230
                                                         0.571611       0.513092
                                                         0.232197       0.048170
                                                         0.076562       0.012551
                          1       7    5fxz2             7.066654       1.578393
                                                         3.428369      -0.612629
                                                         1.430064       0.254167
                                                         0.571611       0.296234
                                                         0.232197       0.027811
                                                         0.076562       0.007246
                          1       7    5fy3              7.066654       0.705879
                                                         3.428369      -0.273976
                                                         1.430064       0.113667
                                                         0.571611       0.132480
                                                         0.232197       0.012437
                                                         0.076562       0.003241
                          1       7    5fy2z             7.066654       1.578393
                                                         3.428369      -0.612629
                                                         1.430064       0.254167
                                                         0.571611       0.296234
                                                         0.232197       0.027811
                                                         0.076562       0.007246
                          1       7    5fyz2             7.066654       1.578393
                                                         3.428369      -0.612629
                                                         1.430064       0.254167
                                                         0.571611       0.296234
                                                         0.232197       0.027811
                                                         0.076562       0.007246
                          1       7    5fz3              7.066654       0.705879
                                                         3.428369      -0.273976
                                                         1.430064       0.113667
                                                         0.571611       0.132480
                                                         0.232197       0.012437
                                                         0.076562       0.003241

     GTH Potential information for                                   GTH-PBE-q13

       Description:                       Goedecker-Teter-Hutter pseudopotential
                                           Goedecker et al., PRB 54, 1703 (1996)
                                          Hartwigsen et al., PRB 58, 3641 (1998)
                                                      Krack, TCA 114, 145 (2005)

       Gaussian exponent of the core charge distribution:               2.082466
       Electronic configuration (s p d ...):                           2   1  10

       Parameters of the local part of the GTH pseudopotential:

                          rloc        C1          C2          C3          C4
                        0.490000

       Parameters of the non-local part of the GTH pseudopotential:

                   l      r(l)      h(i,j,l)

                   0    0.416777   10.475690   -4.921768    0.870706
                                   -4.921768    7.770178   -2.248152
                                    0.870706   -2.248152    1.784415
                   1    0.569627    1.777985    0.195860
                                    0.195860   -0.231744
                   2    0.238126  -16.248680

  3. Atomic kind: O                                     Number of atoms:       2

     Orbital Basis Set                                     DZVP-MOLOPT-SR-GTH-q6

       Number of orbital shell sets:                                           1
       Number of orbital shells:                                               5
       Number of primitive Cartesian functions:                                5
       Number of Cartesian basis functions:                                   14
       Number of spherical basis functions:                                   13
       Norm type:                                                              2

       Normalised Cartesian orbitals:

                        Set   Shell   Orbital            Exponent    Coefficient

                          1       1    2s               10.389228       0.396646
                                                         3.849621       0.208811
                                                         1.388401      -0.301641
                                                         0.496955      -0.274061
                                                         0.162492      -0.033677

                          1       2    3s               10.389228       0.303673
                                                         3.849621       0.240943
                                                         1.388401      -0.313066
                                                         0.496955      -0.043055
                                                         0.162492       0.213991

                          1       3    3px              10.389228      -1.530415
                                                         3.849621      -1.371928
                                                         1.388401      -0.761951
                                                         0.496955      -0.253695
                                                         0.162492      -0.035541
                          1       3    3py              10.389228      -1.530415
                                                         3.849621      -1.371928
                                                         1.388401      -0.761951
                                                         0.496955      -0.253695
                                                         0.162492      -0.035541
                          1       3    3pz              10.389228      -1.530415
                                                         3.849621      -1.371928
                                                         1.388401      -0.761951
                                                         0.496955      -0.253695
                                                         0.162492      -0.035541

                          1       4    4px              10.389228      -0.565392
                                                         3.849621      -0.038231
                                                         1.388401      -0.382373
                                                         0.496955       0.179070
                                                         0.162492       0.122714
                          1       4    4py              10.389228      -0.565392
                                                         3.849621      -0.038231
                                                         1.388401      -0.382373
                                                         0.496955       0.179070
                                                         0.162492       0.122714
                          1       4    4pz              10.389228      -0.565392
                                                         3.849621      -0.038231
                                                         1.388401      -0.382373
                                                         0.496955       0.179070
                                                         0.162492       0.122714

                          1       5    4dx2             10.389228       1.867377
                                                         3.849621       0.670994
                                                         1.388401       1.353441
                                                         0.496955       0.273538
                                                         0.162492       0.006620
                          1       5    4dxy             10.389228       3.234392
                                                         3.849621       1.162195
                                                         1.388401       2.344229
                                                         0.496955       0.473781
                                                         0.162492       0.011466
                          1       5    4dxz             10.389228       3.234392
                                                         3.849621       1.162195
                                                         1.388401       2.344229
                                                         0.496955       0.473781
                                                         0.162492       0.011466
                          1       5    4dy2             10.389228       1.867377
                                                         3.849621       0.670994
                                                         1.388401       1.353441
                                                         0.496955       0.273538
                                                         0.162492       0.006620
                          1       5    4dyz             10.389228       3.234392
                                                         3.849621       1.162195
                                                         1.388401       2.344229
                                                         0.496955       0.473781
                                                         0.162492       0.011466
                          1       5    4dz2             10.389228       1.867377
                                                         3.849621       0.670994
                                                         1.388401       1.353441
                                                         0.496955       0.273538
                                                         0.162492       0.006620

     GTH Potential information for                                    GTH-PBE-q6

       Description:                       Goedecker-Teter-Hutter pseudopotential
                                           Goedecker et al., PRB 54, 1703 (1996)
                                          Hartwigsen et al., PRB 58, 3641 (1998)
                                                      Krack, TCA 114, 145 (2005)

       Gaussian exponent of the core charge distribution:               8.360253
       Electronic configuration (s p d ...):                               2   4

       Parameters of the local part of the GTH pseudopotential:

                          rloc        C1          C2          C3          C4
                        0.244554  -16.667215    2.487311

       Parameters of the non-local part of the GTH pseudopotential:

                   l      r(l)      h(i,j,l)

                   0    0.220956   18.337458
                   1    0.211332

  4. Atomic kind: H                                     Number of atoms:       8

     Orbital Basis Set                                     DZVP-MOLOPT-SR-GTH-q1

       Number of orbital shell sets:                                           1
       Number of orbital shells:                                               3
       Number of primitive Cartesian functions:                                5
       Number of Cartesian basis functions:                                    5
       Number of spherical basis functions:                                    5
       Norm type:                                                              2

       Normalised Cartesian orbitals:

                        Set   Shell   Orbital            Exponent    Coefficient

                          1       1    2s               10.068468      -0.133023
                                                         2.680223      -0.177618
                                                         0.791502      -0.258419
                                                         0.239116      -0.107525
                                                         0.082193      -0.014019

                          1       2    3s               10.068468       0.344673
                                                         2.680223       1.819821
                                                         0.791502      -0.999069
                                                         0.239116       0.017430
                                                         0.082193       0.082660

                          1       3    3px              10.068468       0.155326
                                                         2.680223       0.367157
                                                         0.791502       0.311480
                                                         0.239116       0.080105
                                                         0.082193       0.033440
                          1       3    3py              10.068468       0.155326
                                                         2.680223       0.367157
                                                         0.791502       0.311480
                                                         0.239116       0.080105
                                                         0.082193       0.033440
                          1       3    3pz              10.068468       0.155326
                                                         2.680223       0.367157
                                                         0.791502       0.311480
                                                         0.239116       0.080105
                                                         0.082193       0.033440

     GTH Potential information for                                    GTH-PBE-q1

       Description:                       Goedecker-Teter-Hutter pseudopotential
                                           Goedecker et al., PRB 54, 1703 (1996)
                                          Hartwigsen et al., PRB 58, 3641 (1998)
                                                      Krack, TCA 114, 145 (2005)

       Gaussian exponent of the core charge distribution:              12.500000
       Electronic configuration (s p d ...):                                   1

       Parameters of the local part of the GTH pseudopotential:

                          rloc        C1          C2          C3          C4
                        0.200000   -4.178900    0.724463

  5. Atomic kind: C                                     Number of atoms:       2

     Orbital Basis Set                                     DZVP-MOLOPT-SR-GTH-q4

       Number of orbital shell sets:                                           1
       Number of orbital shells:                                               5
       Number of primitive Cartesian functions:                                5
       Number of Cartesian basis functions:                                   14
       Number of spherical basis functions:                                   13
       Norm type:                                                              2

       Normalised Cartesian orbitals:

                        Set   Shell   Orbital            Exponent    Coefficient

                          1       1    2s                5.605331       0.322515
                                                         2.113016       0.213043
                                                         0.769911      -0.209686
                                                         0.348157      -0.219794
                                                         0.128212      -0.022789

                          1       2    3s                5.605331       0.552234
                                                         2.113016       0.082072
                                                         0.769911       0.007843
                                                         0.348157       0.136893
                                                         0.128212       0.074283

                          1       3    3px               5.605331      -0.703879
                                                         2.113016      -0.642521
                                                         0.769911      -0.374851
                                                         0.348157      -0.139743
                                                         0.128212      -0.027849
                          1       3    3py               5.605331      -0.703879
                                                         2.113016      -0.642521
                                                         0.769911      -0.374851
                                                         0.348157      -0.139743
                                                         0.128212      -0.027849
                          1       3    3pz               5.605331      -0.703879
                                                         2.113016      -0.642521
                                                         0.769911      -0.374851
                                                         0.348157      -0.139743
                                                         0.128212      -0.027849

                          1       4    4px               5.605331      -0.480376
                                                         2.113016      -0.552894
                                                         0.769911      -0.316145
                                                         0.348157       0.210505
                                                         0.128212       0.076095
                          1       4    4py               5.605331      -0.480376
                                                         2.113016      -0.552894
                                                         0.769911      -0.316145
                                                         0.348157       0.210505
                                                         0.128212       0.076095
                          1       4    4pz               5.605331      -0.480376
                                                         2.113016      -0.552894
                                                         0.769911      -0.316145
                                                         0.348157       0.210505
                                                         0.128212       0.076095

                          1       5    4dx2              5.605331       0.640026
                                                         2.113016       0.274300
                                                         0.769911       0.446711
                                                         0.348157       0.028674
                                                         0.128212       0.029790
                          1       5    4dxy              5.605331       1.108557
                                                         2.113016       0.475102
                                                         0.769911       0.773726
                                                         0.348157       0.049666
                                                         0.128212       0.051599
                          1       5    4dxz              5.605331       1.108557
                                                         2.113016       0.475102
                                                         0.769911       0.773726
                                                         0.348157       0.049666
                                                         0.128212       0.051599
                          1       5    4dy2              5.605331       0.640026
                                                         2.113016       0.274300
                                                         0.769911       0.446711
                                                         0.348157       0.028674
                                                         0.128212       0.029790
                          1       5    4dyz              5.605331       1.108557
                                                         2.113016       0.475102
                                                         0.769911       0.773726
                                                         0.348157       0.049666
                                                         0.128212       0.051599
                          1       5    4dz2              5.605331       0.640026
                                                         2.113016       0.274300
                                                         0.769911       0.446711
                                                         0.348157       0.028674
                                                         0.128212       0.029790

     GTH Potential information for                                    GTH-PBE-q4

       Description:                       Goedecker-Teter-Hutter pseudopotential
                                           Goedecker et al., PRB 54, 1703 (1996)
                                          Hartwigsen et al., PRB 58, 3641 (1998)
                                                      Krack, TCA 114, 145 (2005)

       Gaussian exponent of the core charge distribution:               4.364419
       Electronic configuration (s p d ...):                               2   2

       Parameters of the local part of the GTH pseudopotential:

                          rloc        C1          C2          C3          C4
                        0.338471   -8.803674    1.339211

       Parameters of the non-local part of the GTH pseudopotential:

                   l      r(l)      h(i,j,l)

                   0    0.302576    9.622487
                   1    0.291507


 MOLECULE KIND INFORMATION


 All atoms are their own molecule, skipping detailed information


 TOTAL NUMBERS AND MAXIMUM NUMBERS

  Total number of            - Atomic kinds:                                   5
                             - Atoms:                                        212
                             - Shell sets:                                   212
                             - Shells:                                      1244
                             - Primitive Cartesian functions:               1160
                             - Cartesian basis functions:                   4496
                             - Spherical basis functions:                   3892

  Maximum angular momentum of- Orbital basis functions:                        3
                             - Local part of the GTH pseudopotential:          2
                             - Non-local part of the GTH pseudopotential:      4


 MODULE QUICKSTEP:  ATOMIC COORDINATES IN angstrom

  Atom  Kind  Element       X           Y           Z          Z(eff)       Mass

       1     1 N    7    0.077719    1.976661    2.489164      5.00      14.0067
       2     2 Ga  31    0.060440    0.005474    2.821898     13.00      69.7230
       3     1 N    7    0.082436   -0.025810    5.014722      5.00      14.0067
       4     2 Ga  31    0.080973    1.798993    5.798046     13.00      69.7230
       5     1 N    7    0.080037    1.814735    7.800830      5.00      14.0067
       6     2 Ga  31    0.077344   -0.030282    8.443592     13.00      69.7230
       7     1 N    7    0.079160   -0.030964   10.419672      5.00      14.0067
       8     2 Ga  31    0.079169    1.808327   11.071009     13.00      69.7230
       9     1 N    7    0.079661    1.789694   13.065939      5.00      14.0067
      10     2 Ga  31    0.079475   -0.029996   13.878275     13.00      69.7230
      11     1 N    7    0.079451   -0.029991   16.069730      5.00      14.0067
      12     2 Ga  31    0.079510    2.016436   16.494049     13.00      69.7230
      13     2 Ga  31    0.044635    3.684765    1.366789     13.00      69.7230
      14     1 N    7   -1.408689    4.547828    2.529358      5.00      14.0067
      15     2 Ga  31   -1.601824    2.702992    3.280365     13.00      69.7230
      16     1 N    7   -1.529870    2.753150    5.258548      5.00      14.0067
      17     2 Ga  31   -1.558377    4.618460    5.807652     13.00      69.7230
      18     1 N    7   -1.539132    4.617931    7.803613      5.00      14.0067
      19     2 Ga  31   -1.519551    2.756808    8.435025     13.00      69.7230
      20     1 N    7   -1.517703    2.760672   10.431653      5.00      14.0067
      21     2 Ga  31   -1.542730    4.618812   11.069253     13.00      69.7230
      22     1 N    7   -1.558506    4.630002   13.062039      5.00      14.0067
      23     2 Ga  31   -1.516963    2.761874   13.622502     13.00      69.7230
      24     1 N    7   -1.550868    2.750045   15.582088      5.00      14.0067
      25     2 Ga  31   -1.349355    4.511095   16.495576     13.00      69.7230
      26     1 N    7    0.079325    3.672943   17.638209      5.00      14.0067
      27     1 N    7   -3.131543    7.518014    2.531580      5.00      14.0067
      28     2 Ga  31   -3.110874    5.514035    2.853101     13.00      69.7230
      29     1 N    7   -3.136704    5.540746    5.023458      5.00      14.0067
      30     2 Ga  31   -3.143954    7.361269    5.808152     13.00      69.7230
      31     1 N    7   -3.136140    7.386351    7.800068      5.00      14.0067
      32     2 Ga  31   -3.136985    5.539188    8.449128     13.00      69.7230
      33     1 N    7   -3.136976    5.540920   10.422516      5.00      14.0067
      34     2 Ga  31   -3.137866    7.381231   11.070712     13.00      69.7230
      35     1 N    7   -3.136151    7.362599   13.062726      5.00      14.0067
      36     2 Ga  31   -3.126866    5.545879   13.861194     13.00      69.7230
      37     1 N    7   -3.125095    5.547147   16.068951      5.00      14.0067
      38     2 Ga  31   -3.134121    7.602961   16.496405     13.00      69.7230
      39     2 Ga  31   -3.149643    9.253419    1.501136     13.00      69.7230
      40     1 N    7   -4.639566   10.121906    2.516643      5.00      14.0067
      41     2 Ga  31   -4.857097    8.271351    3.290200     13.00      69.7230
      42     1 N    7   -4.743905    8.326397    5.251923      5.00      14.0067
      43     2 Ga  31   -4.776246   10.201268    5.798977     13.00      69.7230
      44     1 N    7   -4.754446   10.187812    7.797382      5.00      14.0067
      45     2 Ga  31   -4.737970    8.332520    8.436690     13.00      69.7230
      46     1 N    7   -4.734078    8.332398   10.431123      5.00      14.0067
      47     2 Ga  31   -4.760879   10.191525   11.072063     13.00      69.7230
      48     1 N    7   -4.776369   10.200994   13.066394      5.00      14.0067
      49     2 Ga  31   -4.732897    8.332507   13.623759     13.00      69.7230
      50     1 N    7   -4.760235    8.308878   15.583022      5.00      14.0067
      51     2 Ga  31   -4.580132   10.087653   16.494808     13.00      69.7230
      52     1 N    7   -3.145756    9.259313   17.639505      5.00      14.0067
      53     1 N    7    3.284583    1.831390    2.617592      5.00      14.0067
      54     2 Ga  31    3.286565    0.091746    3.288493     13.00      69.7230
      55     1 N    7    3.296495   -0.033490    5.251445      5.00      14.0067
      56     2 Ga  31    3.287262    1.828709    5.873611     13.00      69.7230
      57     1 N    7    3.295793    1.825163    7.851152      5.00      14.0067
      58     2 Ga  31    3.292967   -0.040674    8.439334     13.00      69.7230
      59     1 N    7    3.295010   -0.042790   10.433082      5.00      14.0067
      60     2 Ga  31    3.295223    1.826520   11.027360     13.00      69.7230
      61     1 N    7    3.298206    1.827883   13.001281      5.00      14.0067
      62     2 Ga  31    3.296065   -0.043712   13.624125     13.00      69.7230
      63     1 N    7    3.302647   -0.007532   15.583502      5.00      14.0067
      64     2 Ga  31    3.294244    1.826264   15.863710     13.00      69.7230
      65     1 N    7    1.568612    4.549409    2.516987      5.00      14.0067
      66     2 Ga  31    1.755071    2.717026    3.265993     13.00      69.7230
      67     1 N    7    1.688401    2.753837    5.251097      5.00      14.0067
      68     2 Ga  31    1.719661    4.618093    5.808432     13.00      69.7230
      69     1 N    7    1.697166    4.616688    7.805087      5.00      14.0067
      70     2 Ga  31    1.676962    2.757903    8.438874     13.00      69.7230
      71     1 N    7    1.677008    2.760312   10.433964      5.00      14.0067
      72     2 Ga  31    1.702073    4.619446   11.069030     13.00      69.7230
      73     1 N    7    1.718048    4.630211   13.062028      5.00      14.0067
      74     2 Ga  31    1.675900    2.762357   13.623130     13.00      69.7230
      75     1 N    7    1.710363    2.749926   15.582638      5.00      14.0067
      76     2 Ga  31    1.508926    4.511035   16.496099     13.00      69.7230
      77     1 N    7    0.081461    7.379529    2.696573      5.00      14.0067
      78     2 Ga  31    0.088357    5.538466    3.337918     13.00      69.7230
      79     1 N    7    0.079793    5.552524    5.275248      5.00      14.0067
      80     2 Ga  31    0.087440    7.394103    5.905802     13.00      69.7230
      81     1 N    7    0.080053    7.398282    7.864843      5.00      14.0067
      82     2 Ga  31    0.079667    5.524988    8.443977     13.00      69.7230
      83     1 N    7    0.079289    5.527812   10.434487      5.00      14.0067
      84     2 Ga  31    0.080160    7.397192   11.028186     13.00      69.7230
      85     1 N    7    0.079561    7.397574   12.997748      5.00      14.0067
      86     2 Ga  31    0.079826    5.528710   13.622672     13.00      69.7230
      87     1 N    7    0.079850    5.560425   15.580819      5.00      14.0067
      88     2 Ga  31    0.080263    7.397684   15.859864     13.00      69.7230
      89     1 N    7   -1.631683   10.110236    2.524347      5.00      14.0067
      90     2 Ga  31   -1.487473    8.296947    3.336088     13.00      69.7230
      91     1 N    7   -1.516806    8.318005    5.263315      5.00      14.0067
      92     2 Ga  31   -1.503521   10.203936    5.810584     13.00      69.7230
      93     1 N    7   -1.519898   10.186008    7.801785      5.00      14.0067
      94     2 Ga  31   -1.540435    8.331879    8.446429     13.00      69.7230
      95     1 N    7   -1.540044    8.331902   10.434822      5.00      14.0067
      96     2 Ga  31   -1.514885   10.191232   11.070345     13.00      69.7230
      97     1 N    7   -1.497656   10.199838   13.062521      5.00      14.0067
      98     2 Ga  31   -1.538581    8.331868   13.623236     13.00      69.7230
      99     1 N    7   -1.511133    8.316065   15.581101      5.00      14.0067
     100     2 Ga  31   -1.705265   10.078052   16.496898     13.00      69.7230
     101     1 N    7    6.509690    1.949494    2.538404      5.00      14.0067
     102     2 Ga  31    6.529097   -0.031683    2.863181     13.00      69.7230
     103     1 N    7    6.507124   -0.030589    5.025930      5.00      14.0067
     104     2 Ga  31    6.509906    1.799197    5.805124     13.00      69.7230
     105     1 N    7    6.510804    1.814611    7.802376      5.00      14.0067
     106     2 Ga  31    6.513543   -0.031175    8.446234     13.00      69.7230
     107     1 N    7    6.511927   -0.030915   10.420620      5.00      14.0067
     108     2 Ga  31    6.512314    1.808869   11.068123     13.00      69.7230
     109     1 N    7    6.512066    1.788093   13.068791      5.00      14.0067
     110     2 Ga  31    6.512404   -0.041032   13.861784     13.00      69.7230
     111     1 N    7    6.512063   -0.042882   16.069039      5.00      14.0067
     112     2 Ga  31    6.512431    1.957753   16.433741     13.00      69.7230
     113     1 N    7    5.008618    4.548547    2.531076      5.00      14.0067
     114     2 Ga  31    4.791882    2.697588    3.298027     13.00      69.7230
     115     1 N    7    4.900690    2.753792    5.259310      5.00      14.0067
     116     2 Ga  31    4.876314    4.626703    5.804828     13.00      69.7230
     117     1 N    7    4.894361    4.616875    7.802839      5.00      14.0067
     118     2 Ga  31    4.911943    2.759555    8.438997     13.00      69.7230
     119     1 N    7    4.914914    2.761489   10.435218      5.00      14.0067
     120     2 Ga  31    4.888446    4.621455   11.068196     13.00      69.7230
     121     1 N    7    4.870703    4.631570   13.068980      5.00      14.0067
     122     2 Ga  31    4.914787    2.761508   13.614032     13.00      69.7230
     123     1 N    7    4.897956    2.751779   15.592482      5.00      14.0067
     124     2 Ga  31    5.017419    4.547038   16.433528     13.00      69.7230
     125     1 N    7    6.511886    3.683661   17.554754      5.00      14.0067
     126     1 N    7    3.292275    7.510595    2.502061      5.00      14.0067
     127     1 N    7    3.295079    5.537588    5.030133      5.00      14.0067
     128     2 Ga  31    3.299522    7.365120    5.795484     13.00      69.7230
     129     1 N    7    3.293590    7.387447    7.794596      5.00      14.0067
     130     2 Ga  31    3.295608    5.541645    8.446064     13.00      69.7230
     131     1 N    7    3.295821    5.541324   10.421117      5.00      14.0067
     132     2 Ga  31    3.297385    7.381667   11.069219     13.00      69.7230
     133     1 N    7    3.295682    7.362723   13.061964      5.00      14.0067
     134     2 Ga  31    3.286349    5.546428   13.861272     13.00      69.7230
     135     1 N    7    3.284554    5.547299   16.069403      5.00      14.0067
     136     2 Ga  31    3.294058    7.603970   16.497620     13.00      69.7230
     137     2 Ga  31    3.331344    9.275196    1.323178     13.00      69.7230
     138     1 N    7    1.784441   10.117442    2.506041      5.00      14.0067
     139     2 Ga  31    1.680588    8.312821    3.289386     13.00      69.7230
     140     1 N    7    1.673931    8.316829    5.238281      5.00      14.0067
     141     2 Ga  31    1.664505   10.197915    5.795906     13.00      69.7230
     142     1 N    7    1.677095   10.184717    7.794187      5.00      14.0067
     143     2 Ga  31    1.701060    8.332979    8.444283     13.00      69.7230
     144     1 N    7    1.699215    8.332358   10.433930      5.00      14.0067
     145     2 Ga  31    1.675022   10.191531   11.069267     13.00      69.7230
     146     1 N    7    1.657404   10.199890   13.061893      5.00      14.0067
     147     2 Ga  31    1.698115    8.331794   13.622757     13.00      69.7230
     148     1 N    7    1.671207    8.316257   15.580597      5.00      14.0067
     149     2 Ga  31    1.865790   10.077794   16.497581     13.00      69.7230
     150     1 N    7    3.304852    9.259582   17.641584      5.00      14.0067
     151     1 N    7    9.736994    1.824448    2.629645      5.00      14.0067
     152     2 Ga  31    9.731106    0.060994    3.258449     13.00      69.7230
     153     1 N    7    9.724293   -0.034337    5.240709      5.00      14.0067
     154     2 Ga  31    9.733148    1.819570    5.867674     13.00      69.7230
     155     1 N    7    9.726625    1.824496    7.848190      5.00      14.0067
     156     2 Ga  31    9.729904   -0.042579    8.431387     13.00      69.7230
     157     1 N    7    9.728265   -0.043218   10.428764      5.00      14.0067
     158     2 Ga  31    9.728731    1.825740   11.024255     13.00      69.7230
     159     1 N    7    9.725575    1.827833   12.999030      5.00      14.0067
     160     2 Ga  31    9.728133   -0.043401   13.623399     13.00      69.7230
     161     1 N    7    9.721577   -0.007494   15.582628      5.00      14.0067
     162     2 Ga  31    9.730073    1.826011   15.863668     13.00      69.7230
     163     1 N    7    8.013326    4.549399    2.539772      5.00      14.0067
     164     2 Ga  31    8.230735    2.689828    3.300778     13.00      69.7230
     165     1 N    7    8.119483    2.753333    5.261380      5.00      14.0067
     166     2 Ga  31    8.143069    4.625655    5.802318     13.00      69.7230
     167     1 N    7    8.129559    4.617977    7.800458      5.00      14.0067
     168     2 Ga  31    8.111809    2.759071    8.435711     13.00      69.7230
     169     1 N    7    8.108622    2.761665   10.433194      5.00      14.0067
     170     2 Ga  31    8.134684    4.620527   11.068583     13.00      69.7230
     171     1 N    7    8.153131    4.631371   13.068987      5.00      14.0067
     172     2 Ga  31    8.109516    2.761294   13.613536     13.00      69.7230
     173     1 N    7    8.126526    2.751748   15.591899      5.00      14.0067
     174     2 Ga  31    8.006537    4.546511   16.433374     13.00      69.7230
     175     1 N    7    6.505835    7.398810    2.610999      5.00      14.0067
     176     2 Ga  31    6.505134    5.662243    3.296275     13.00      69.7230
     177     1 N    7    6.510290    5.542072    5.257346      5.00      14.0067
     178     2 Ga  31    6.503833    7.401823    5.869458     13.00      69.7230
     179     1 N    7    6.510937    7.397511    7.846613      5.00      14.0067
     180     2 Ga  31    6.511628    5.530418    8.436950     13.00      69.7230
     181     1 N    7    6.511978    5.528173   10.433594      5.00      14.0067
     182     2 Ga  31    6.511326    7.398642   11.025397     13.00      69.7230
     183     1 N    7    6.511862    7.395128   12.999834      5.00      14.0067
     184     2 Ga  31    6.511989    5.528608   13.614035     13.00      69.7230
     185     1 N    7    6.512223    5.548385   15.592368      5.00      14.0067
     186     2 Ga  31    6.511960    7.399895   15.864395     13.00      69.7230
     187     1 N    7    4.803762   10.124996    2.511200      5.00      14.0067
     188     2 Ga  31    4.979499    8.281140    3.255043     13.00      69.7230
     189     1 N    7    4.900922    8.324750    5.237478      5.00      14.0067
     190     2 Ga  31    4.929435   10.197626    5.783601     13.00      69.7230
     191     1 N    7    4.913900   10.187758    7.789833      5.00      14.0067
     192     2 Ga  31    4.893703    8.334029    8.432158     13.00      69.7230
     193     1 N    7    4.893266    8.332426   10.428858      5.00      14.0067
     194     2 Ga  31    4.918560   10.191122   11.070402     13.00      69.7230
     195     1 N    7    4.935663   10.200971   13.065389      5.00      14.0067
     196     2 Ga  31    4.892101    8.332788   13.623656     13.00      69.7230
     197     1 N    7    4.920044    8.309132   15.582693      5.00      14.0067
     198     2 Ga  31    4.738421   10.087218   16.495835     13.00      69.7230
     199     3 O    8    0.010556    4.089027   -0.429510      6.00      15.9994
     200     4 H    1   -0.188635    5.875416   -0.342202      1.00       1.0079
     201     5 C    6    1.125131    3.635239   -1.220671      4.00      12.0107
     202     4 H    1    2.093121    3.939727   -0.790231      1.00       1.0079
     203     4 H    1    1.119916    2.539653   -1.326921      1.00       1.0079
     204     4 H    1    1.030071    4.080904   -2.221017      1.00       1.0079
     205     2 Ga  31    3.265805    5.534637    2.851841     13.00      69.7230
     206     3 O    8   -0.190403    6.860634   -0.199001      6.00      15.9994
     207     4 H    1    0.031080    7.309134    1.659319      1.00       1.0079
     208     4 H    1    0.565865    7.216985   -0.670883      1.00       1.0079
     209     2 Ga  31    8.192767    2.729466    0.931414     13.00      69.7230
     210     5 C    6    4.902374    4.578776    0.995481      4.00      12.0107
     211     4 H    1    5.808449    5.041977    0.575475      1.00       1.0079
     212     4 H    1    3.970104    4.098326    0.658492      1.00       1.0079




 SCF PARAMETERS         Density guess:                                    ATOMIC
                        --------------------------------------------------------
                        max_scf:                                              80
                        max_scf_history:                                       0
                        max_diis:                                              4
                        --------------------------------------------------------
                        eps_scf:                                        5.00E-06
                        eps_scf_history:                                0.00E+00
                        eps_diis:                                       1.00E-01
                        eps_eigval:                                     1.00E-05
                        --------------------------------------------------------
                        level_shift [a.u.]:                                 0.00
                        --------------------------------------------------------
                        Outer loop SCF in use 
                        No variables optimised in outer loop
                        eps_scf                                         5.00E-06
                        max_scf                                                4
                        No outer loop optimization
                        step_size                                       5.00E-01

 PW_GRID| Information for grid number                                          1
 PW_GRID| Grid distributed over                                    80 processors
 PW_GRID| Real space group dimensions                                    80    1
 PW_GRID| the grid is blocked:                                                NO
 PW_GRID| Cutoff [a.u.]                                                    600.0
 PW_GRID| spherical cutoff:                                                   NO
 PW_GRID|   Bounds   1           -144     143                Points:         288
 PW_GRID|   Bounds   2           -144     143                Points:         288
 PW_GRID|   Bounds   3           -337     337                Points:         675
 PW_GRID| Volume element (a.u.^3)  0.5630E-03     Volume (a.u.^3)     31519.8467
 PW_GRID| Grid span                                                    FULLSPACE
 PW_GRID|   Distribution                         Average         Max         Min
 PW_GRID|   G-Vectors                           699840.0      699840      699840
 PW_GRID|   G-Rays                                2430.0        2430        2430
 PW_GRID|   Real Space Points                   699840.0      777600      583200

 PW_GRID| Information for grid number                                          2
 PW_GRID| Grid distributed over                                    80 processors
 PW_GRID| Real space group dimensions                                    80    1
 PW_GRID| the grid is blocked:                                                NO
 PW_GRID| Cutoff [a.u.]                                                    200.0
 PW_GRID| spherical cutoff:                                                   NO
 PW_GRID|   Bounds   1            -80      79                Points:         160
 PW_GRID|   Bounds   2            -80      79                Points:         160
 PW_GRID|   Bounds   3           -200     199                Points:         400
 PW_GRID| Volume element (a.u.^3)  0.3078E-02     Volume (a.u.^3)     31519.8467
 PW_GRID| Grid span                                                    FULLSPACE
 PW_GRID|   Distribution                         Average         Max         Min
 PW_GRID|   G-Vectors                           128000.0      128160      127840
 PW_GRID|   G-Rays                                 800.0         801         799
 PW_GRID|   Real Space Points                   128000.0      128000      128000

 PW_GRID| Information for grid number                                          3
 PW_GRID| Grid distributed over                                    80 processors
 PW_GRID| Real space group dimensions                                    80    1
 PW_GRID| the grid is blocked:                                                NO
 PW_GRID| Cutoff [a.u.]                                                     66.7
 PW_GRID| spherical cutoff:                                                   NO
 PW_GRID|   Bounds   1            -48      47                Points:          96
 PW_GRID|   Bounds   2            -48      47                Points:          96
 PW_GRID|   Bounds   3           -112     112                Points:         225
 PW_GRID| Volume element (a.u.^3)  0.1520E-01     Volume (a.u.^3)     31519.8467
 PW_GRID| Grid span                                                    FULLSPACE
 PW_GRID|   Distribution                         Average         Max         Min
 PW_GRID|   G-Vectors                            25920.0       26688       24864
 PW_GRID|   G-Rays                                 270.0         278         259
 PW_GRID|   Real Space Points                    25920.0       43200       21600

 PW_GRID| Information for grid number                                          4
[...]
      6       Ga     2      13.000    6.950   6.950            0.001     -0.900
      7       N      1       5.000    2.053   2.053            0.000      0.895
      8       Ga     2      13.000    6.939   6.938            0.000     -0.877
      9       N      1       5.000    2.060   2.060            0.000      0.881
     10       Ga     2      13.000    6.874   6.873            0.001     -0.746
     11       N      1       5.000    2.133   2.132            0.001      0.735
     12       Ga     2      13.000    6.910   6.920           -0.009     -0.830
     13       Ga     2      13.000    6.988   6.988            0.000     -0.976
     14       N      1       5.000    2.091   2.091           -0.000      0.818
     15       Ga     2      13.000    6.945   6.945            0.000     -0.890
     16       N      1       5.000    2.053   2.053            0.000      0.894
     17       Ga     2      13.000    6.941   6.940            0.000     -0.881
     18       N      1       5.000    2.059   2.059            0.000      0.882
     19       Ga     2      13.000    6.939   6.939            0.001     -0.878
     20       N      1       5.000    2.061   2.061            0.000      0.879
     21       Ga     2      13.000    6.939   6.939            0.000     -0.878
     22       N      1       5.000    2.060   2.060            0.000      0.881
     23       Ga     2      13.000    6.950   6.950           -0.001     -0.900
     24       N      1       5.000    2.047   2.054           -0.007      0.899
     25       Ga     2      13.000    6.910   6.919           -0.010     -0.829
     26       N      1       5.000    2.138   2.325           -0.188      0.537
     27       N      1       5.000    2.097   2.097            0.001      0.806
     28       Ga     2      13.000    6.914   6.913            0.001     -0.827
     29       N      1       5.000    2.091   2.091           -0.000      0.818
     30       Ga     2      13.000    6.947   6.947            0.000     -0.895
     31       N      1       5.000    2.058   2.058            0.000      0.884
     32       Ga     2      13.000    6.949   6.949            0.000     -0.899
     33       N      1       5.000    2.051   2.051            0.000      0.897
     34       Ga     2      13.000    6.939   6.938            0.000     -0.877
     35       N      1       5.000    2.059   2.059            0.000      0.881
     36       Ga     2      13.000    6.874   6.872            0.001     -0.746
     37       N      1       5.000    2.134   2.132            0.001      0.734
     38       Ga     2      13.000    6.910   6.918           -0.009     -0.828
     39       Ga     2      13.000    6.722   6.714            0.009     -0.436
     40       N      1       5.000    2.100   2.100            0.000      0.800
     41       Ga     2      13.000    6.955   6.955            0.000     -0.909
     42       N      1       5.000    2.052   2.051            0.000      0.897
     43       Ga     2      13.000    6.947   6.944            0.002     -0.891
     44       N      1       5.000    2.062   2.061            0.001      0.878
     45       Ga     2      13.000    6.937   6.937            0.001     -0.874
     46       N      1       5.000    2.063   2.062            0.000      0.875
     47       Ga     2      13.000    6.939   6.938            0.000     -0.877
     48       N      1       5.000    2.060   2.060            0.000      0.880
     49       Ga     2      13.000    6.950   6.950           -0.001     -0.900
     50       N      1       5.000    2.048   2.054           -0.006      0.898
     51       Ga     2      13.000    6.912   6.921           -0.009     -0.833
     52       N      1       5.000    2.143   2.320           -0.177      0.537
     53       N      1       5.000    2.129   2.129            0.000      0.743
     54       Ga     2      13.000    6.949   6.949            0.000     -0.898
     55       N      1       5.000    2.053   2.053            0.000      0.893
     56       Ga     2      13.000    6.932   6.932            0.000     -0.864
     57       N      1       5.000    2.058   2.058            0.000      0.883
     58       Ga     2      13.000    6.939   6.938            0.001     -0.877
     59       N      1       5.000    2.062   2.062            0.000      0.877
     60       Ga     2      13.000    6.946   6.946            0.000     -0.892
     61       N      1       5.000    2.061   2.062           -0.002      0.877
     62       Ga     2      13.000    6.949   6.950           -0.001     -0.899
     63       N      1       5.000    2.044   2.057           -0.014      0.899
     64       Ga     2      13.000    6.856   6.858           -0.002     -0.715
     65       N      1       5.000    2.098   2.099           -0.000      0.803
     66       Ga     2      13.000    6.975   6.975            0.000     -0.950
     67       N      1       5.000    2.051   2.051            0.000      0.898
     68       Ga     2      13.000    6.941   6.939            0.002     -0.880
     69       N      1       5.000    2.059   2.058            0.001      0.883
     70       Ga     2      13.000    6.938   6.937            0.001     -0.874
     71       N      1       5.000    2.062   2.062            0.000      0.876
     72       Ga     2      13.000    6.938   6.938            0.000     -0.876
     73       N      1       5.000    2.060   2.060            0.000      0.881
     74       Ga     2      13.000    6.950   6.951           -0.001     -0.900
     75       N      1       5.000    2.047   2.054           -0.007      0.899
     76       Ga     2      13.000    6.911   6.920           -0.010     -0.831
     77       N      1       5.000    2.224   2.224           -0.000      0.551
     78       Ga     2      13.000    6.991   6.991            0.000     -0.981
     79       N      1       5.000    2.048   2.048            0.000      0.904
     80       Ga     2      13.000    6.947   6.946            0.002     -0.893
     81       N      1       5.000    2.054   2.053            0.001      0.893
     82       Ga     2      13.000    6.938   6.937            0.001     -0.875
     83       N      1       5.000    2.060   2.060            0.000      0.879
     84       Ga     2      13.000    6.946   6.946            0.000     -0.892
     85       N      1       5.000    2.061   2.062           -0.002      0.877
     86       Ga     2      13.000    6.949   6.950           -0.001     -0.899
     87       N      1       5.000    2.043   2.058           -0.014      0.899
     88       Ga     2      13.000    6.857   6.859           -0.002     -0.715
     89       N      1       5.000    2.101   2.100            0.001      0.799
     90       Ga     2      13.000    6.977   6.977            0.000     -0.954
     91       N      1       5.000    2.046   2.046            0.000      0.908
     92       Ga     2      13.000    6.950   6.948            0.002     -0.898
     93       N      1       5.000    2.058   2.058            0.001      0.884
     94       Ga     2      13.000    6.940   6.940            0.001     -0.880
     95       N      1       5.000    2.060   2.060            0.000      0.880
     96       Ga     2      13.000    6.939   6.938            0.000     -0.877
     97       N      1       5.000    2.060   2.059            0.000      0.881
     98       Ga     2      13.000    6.949   6.950           -0.001     -0.899
     99       N      1       5.000    2.047   2.054           -0.006      0.899
    100       Ga     2      13.000    6.910   6.919           -0.009     -0.829
    101       N      1       5.000    2.128   2.122            0.006      0.749
    102       Ga     2      13.000    6.928   6.917            0.011     -0.845
    103       N      1       5.000    2.094   2.088            0.006      0.817
    104       Ga     2      13.000    6.938   6.936            0.002     -0.874
    105       N      1       5.000    2.058   2.057            0.001      0.885
    106       Ga     2      13.000    6.949   6.948            0.001     -0.897
    107       N      1       5.000    2.052   2.051            0.000      0.897
    108       Ga     2      13.000    6.939   6.939            0.000     -0.878
    109       N      1       5.000    2.060   2.060            0.000      0.880
    110       Ga     2      13.000    6.874   6.873            0.001     -0.747
    111       N      1       5.000    2.134   2.133            0.001      0.733
    112       Ga     2      13.000    6.910   6.919           -0.010     -0.829
    113       N      1       5.000    2.262   2.259            0.003      0.478
    114       Ga     2      13.000    6.946   6.946            0.001     -0.892
    115       N      1       5.000    2.064   2.063            0.000      0.873
    116       Ga     2      13.000    6.952   6.951            0.002     -0.903
    117       N      1       5.000    2.064   2.063            0.000      0.873
    118       Ga     2      13.000    6.942   6.941            0.001     -0.883
    119       N      1       5.000    2.062   2.061            0.000      0.877
    120       Ga     2      13.000    6.940   6.940            0.000     -0.880
    121       N      1       5.000    2.059   2.059            0.000      0.881
    122       Ga     2      13.000    6.950   6.951           -0.001     -0.901
    123       N      1       5.000    2.047   2.054           -0.007      0.899
    124       Ga     2      13.000    6.911   6.921           -0.010     -0.832
    125       N      1       5.000    2.141   2.324           -0.183      0.535
    126       N      1       5.000    2.144   2.061            0.083      0.796
    127       N      1       5.000    2.084   2.077            0.007      0.839
    128       Ga     2      13.000    6.941   6.938            0.003     -0.879
    129       N      1       5.000    2.061   2.060            0.001      0.879
    130       Ga     2      13.000    6.950   6.950            0.001     -0.900
    131       N      1       5.000    2.052   2.052            0.000      0.896
    132       Ga     2      13.000    6.939   6.938            0.000     -0.877
    133       N      1       5.000    2.059   2.059            0.000      0.881
    134       Ga     2      13.000    6.874   6.873            0.001     -0.746
    135       N      1       5.000    2.133   2.132            0.001      0.735
    136       Ga     2      13.000    6.910   6.920           -0.010     -0.831
    137       Ga     2      13.000    6.957   6.479            0.478     -0.436
    138       N      1       5.000    2.137   2.053            0.084      0.810
    139       Ga     2      13.000    7.004   6.991            0.013     -0.995
    140       N      1       5.000    2.055   2.045            0.009      0.900
    141       Ga     2      13.000    6.943   6.941            0.003     -0.884
    142       N      1       5.000    2.061   2.060            0.001      0.879
    143       Ga     2      13.000    6.939   6.938            0.001     -0.877
    144       N      1       5.000    2.061   2.060            0.000      0.879
    145       Ga     2      13.000    6.939   6.939            0.000     -0.878
    146       N      1       5.000    2.060   2.059            0.000      0.881
    147       Ga     2      13.000    6.950   6.950           -0.001     -0.900
    148       N      1       5.000    2.047   2.054           -0.007      0.900
    149       Ga     2      13.000    6.910   6.920           -0.010     -0.829
    150       N      1       5.000    2.135   2.327           -0.192      0.539
    151       N      1       5.000    2.106   2.102            0.004      0.792
    152       Ga     2      13.000    6.955   6.943            0.012     -0.898
    153       N      1       5.000    2.061   2.052            0.008      0.887
    154       Ga     2      13.000    6.942   6.940            0.002     -0.882
    155       N      1       5.000    2.056   2.055            0.001      0.888
    156       Ga     2      13.000    6.940   6.939            0.001     -0.879
    157       N      1       5.000    2.061   2.061            0.000      0.878
    158       Ga     2      13.000    6.946   6.946            0.000     -0.891
    159       N      1       5.000    2.061   2.063           -0.002      0.875
    160       Ga     2      13.000    6.949   6.950           -0.002     -0.899
    161       N      1       5.000    2.043   2.058           -0.015      0.900
    162       Ga     2      13.000    6.856   6.858           -0.002     -0.714
    163       N      1       5.000    2.122   2.115            0.007      0.763
    164       Ga     2      13.000    6.967   6.967            0.001     -0.934
    165       N      1       5.000    2.044   2.043            0.002      0.913
    166       Ga     2      13.000    6.939   6.939            0.000     -0.877
    167       N      1       5.000    2.060   2.059            0.000      0.881
    168       Ga     2      13.000    6.936   6.935            0.001     -0.871
    169       N      1       5.000    2.063   2.063            0.000      0.874
    170       Ga     2      13.000    6.940   6.939            0.000     -0.879
    171       N      1       5.000    2.060   2.060            0.000      0.880
    172       Ga     2      13.000    6.950   6.951           -0.001     -0.901
    173       N      1       5.000    2.047   2.054           -0.007      0.899
    174       Ga     2      13.000    6.910   6.920           -0.010     -0.830
    175       N      1       5.000    2.123   2.124           -0.000      0.753
    176       Ga     2      13.000    7.030   7.030            0.000     -1.060
    177       N      1       5.000    2.069   2.068            0.001      0.864
    178       Ga     2      13.000    6.931   6.929            0.002     -0.861
    179       N      1       5.000    2.061   2.060            0.001      0.878
    180       Ga     2      13.000    6.942   6.941            0.001     -0.883
    181       N      1       5.000    2.062   2.062            0.000      0.876
    182       Ga     2      13.000    6.947   6.946            0.000     -0.893
    183       N      1       5.000    2.061   2.063           -0.002      0.876
    184       Ga     2      13.000    6.949   6.951           -0.001     -0.900
    185       N      1       5.000    2.044   2.058           -0.014      0.898
    186       Ga     2      13.000    6.857   6.858           -0.002     -0.715
    187       N      1       5.000    2.156   2.052            0.104      0.791
    188       Ga     2      13.000    6.976   6.964            0.012     -0.940
    189       N      1       5.000    2.059   2.049            0.009      0.892
    190       Ga     2      13.000    6.943   6.940            0.003     -0.882
    191       N      1       5.000    2.065   2.063            0.002      0.872
    192       Ga     2      13.000    6.938   6.937            0.001     -0.874
    193       N      1       5.000    2.064   2.063            0.000      0.873
    194       Ga     2      13.000    6.939   6.939            0.000     -0.878
    195       N      1       5.000    2.060   2.060            0.000      0.880
    196       Ga     2      13.000    6.950   6.951           -0.001     -0.901
    197       N      1       5.000    2.047   2.054           -0.007      0.899
    198       Ga     2      13.000    6.911   6.921           -0.010     -0.833
    199       O      3       6.000    3.055   3.054            0.000     -0.109
    200       H      4       1.000    0.207   0.207            0.000      0.587
    201       C      5       4.000    2.452   2.452            0.000     -0.903
    202       H      4       1.000    0.282   0.282            0.000      0.436
    203       H      4       1.000    0.280   0.280           -0.000      0.441
    204       H      4       1.000    0.280   0.280            0.000      0.440
    205       Ga     2      13.000    7.007   6.996            0.011     -1.003
    206       O      3       6.000    3.517   3.516            0.001     -1.033
    207       H      4       1.000    0.225   0.225           -0.000      0.551
    208       H      4       1.000    0.220   0.220            0.000      0.560
    209       Ga     2      13.000    6.625   6.613            0.013     -0.238
    210       C      5       4.000    2.134   2.138           -0.004     -0.273
    211       H      4       1.000    0.269   0.269            0.000      0.463
    212       H      4       1.000    0.273   0.273            0.000      0.454

  Total Charge                                                            0.003
 !-----------------------------------------------------------------------------!

 ENERGY| Total FORCE_EVAL ( QS ) energy (a.u.):            -8504.760876552672926


 --------  Informations at step =    11 ------------
  Optimization Method        =                 BFGS
  Total Energy               =     -8504.7608765527
  Real energy change         =        -0.0013388035
  Predicted change in energy =        -0.0022429646
  Scaling factor             =         0.0000000000
  Step size                  =         0.1740262826
  Trust radius               =         0.4724315332
  Decrease in energy         =                  YES
  Used time                  =              308.520

  Convergence check :
  Max. step size             =         0.1740262826
  Conv. limit for step size  =         0.0030000000
  Convergence in step size   =                   NO
  RMS step size              =         0.0138323128
  Conv. limit for RMS step   =         0.0015000000
  Convergence in RMS step    =                   NO
  Max. gradient              =         0.0087494721
  Conv. limit for gradients  =         0.0004500000
  Conv. for gradients        =                   NO
  RMS gradient               =         0.0008430954
  Conv. limit for RMS grad.  =         0.0003000000
  Conv. for gradients        =                   NO
 ---------------------------------------------------

 --------------------------
 OPTIMIZATION STEP:     12
 --------------------------

 Spin 1

 Number of electrons:                                                        914
 Number of occupied orbitals:                                                914
 Number of molecular orbitals:                                               914

 Spin 2

 Number of electrons:                                                        914
 Number of occupied orbitals:                                                914
 Number of molecular orbitals:                                               914

 Number of orbital functions:                                               3892
 Number of independent orbital functions:                                   3892

 Parameters for the always stable predictor-corrector (ASPC) method:

  ASPC order: 3

  B(1) =   3.000000
  B(2) =  -3.428571
  B(3) =   1.928571
  B(4) =  -0.571429
  B(5) =   0.071429

 Parameters for the always stable predictor-corrector (ASPC) method:

  ASPC order: 3

  B(1) =   3.000000
  B(2) =  -3.428571
  B(3) =   1.928571
  B(4) =  -0.571429
  B(5) =   0.071429

 Extrapolation method: ASPC


 SCF WAVEFUNCTION OPTIMIZATION

  ----------------------------------- OT ---------------------------------------
  Minimizer      : CG                  : conjugate gradient
  Preconditioner : FULL_ALL            : diagonalization, state selective
  Precond_solver : DEFAULT
  Line search    : 2PNT                : 2 energies, one gradient
  stepsize       :    0.15000000                  energy_gap     :    0.08000000
  eps_taylor     :   0.10000E-15                  max_taylor     :             4
  ----------------------------------- OT ---------------------------------------

  Step     Update method      Time    Convergence         Total energy    Change
  ------------------------------------------------------------------------------
