     212
 i =        1, E =     -8504.7235746987
  N         0.0703078437        1.9773918455        2.4828158498
 Ga         0.0677065481        0.0048972084        2.8264603664
  N         0.0803808469       -0.0255762562        5.0122999097
 Ga         0.0799040444        1.7992277054        5.7997309534
  N         0.0794058901        1.8148653567        7.7989988037
 Ga         0.0767330587       -0.0298132729        8.4457454894
  N         0.0790552030       -0.0310029206       10.4191427994
 Ga         0.0788923593        1.8080272298       11.0728016910
  N         0.0797790719        1.7900271826       13.0656962860
 Ga         0.0798926755       -0.0298116330       13.8789233796
  N         0.0810198837       -0.0296588477       16.0706269916
 Ga         0.0791608195        2.0157588636       16.4933098737
 Ga         0.0403952073        3.6907212871        1.3703069269
  N        -1.4077517692        4.5522338083        2.5234869128
 Ga        -1.6100527944        2.7129095021        3.2742245986
  N        -1.5330452574        2.7501243307        5.2482696676
 Ga        -1.5579949489        4.6191731314        5.8109048902
  N        -1.5369712528        4.6155333180        7.8036324245
 Ga        -1.5186970677        2.7570732650        8.4393637856
  N        -1.5172290543        2.7600502549       10.4317977573
 Ga        -1.5433360369        4.6183058576       11.0702391295
  N        -1.5590742172        4.6301092954       13.0615748627
 Ga        -1.5177815922        2.7615684363       13.6234385888
  N        -1.5477409771        2.7475644338       15.5816404784
 Ga        -1.3554731208        4.5109621149       16.4939759064
  N         0.0803806840        3.6764943056       17.6334795428
  N        -3.1284560310        7.5166330234        2.5304299575
 Ga        -3.1119555767        5.5166716497        2.8762293603
  N        -3.1240780845        5.5478372186        5.0375816451
 Ga        -3.1417792248        7.3613123025        5.8125499892
  N        -3.1363466834        7.3880282791        7.8015889200
 Ga        -3.1371464504        5.5385462872        8.4471695292
  N        -3.1368464457        5.5408683753       10.4202680393
 Ga        -3.1383053234        7.3809303552       11.0715467879
  N        -3.1364639897        7.3619791258       13.0621516060
 Ga        -3.1288986681        5.5447533304       13.8639850054
  N        -3.1346584224        5.5418971427       16.0666582878
 Ga        -3.1375494158        7.5985947379       16.4951845766
 Ga        -3.1411980193        9.2487456758        1.5076007010
  N        -4.6363694150       10.1199704117        2.5154627652
 Ga        -4.8594648819        8.2596368399        3.2844183520
  N        -4.7454980391        8.3250407827        5.2473293513
 Ga        -4.7754001931       10.2010446239        5.7996723685
  N        -4.7556544322       10.1885195395        7.7964607408
 Ga        -4.7370801764        8.3329586659        8.4398267473
  N        -4.7344109805        8.3331659119       10.4314915849
 Ga        -4.7611318231       10.1916932329       11.0738967346
  N        -4.7761157645       10.2008247012       13.0661241067
 Ga        -4.7335315970        8.3319729097       13.6245876285
  N        -4.7613723267        8.3127506175       15.5821544040
 Ga        -4.5799534706       10.0871851688       16.4945087856
  N        -3.1420501003        9.2581499068       17.6346038361
  N         3.3002479117        1.8550579940        2.6265503180
 Ga         3.2945647310        0.1008392502        3.2831253878
  N         3.2972813908       -0.0318108975        5.2474762947
 Ga         3.2931286651        1.8332483608        5.8723855652
  N         3.2947240889        1.8249370979        7.8503340900
 Ga         3.2931052667       -0.0415281546        8.4423005883
  N         3.2942202899       -0.0429243156       10.4334105738
 Ga         3.2952576920        1.8264223092       11.0282481402
  N         3.2965331529        1.8270274923       12.9985559848
 Ga         3.2960794902       -0.0428824238       13.6253029405
  N         3.2985524269       -0.0087035096       15.5832813863
 Ga         3.2930581655        1.8256236865       15.8636969978
  N         1.5638439000        4.5393888860        2.5060636224
 Ga         1.7523978805        2.7125054281        3.2703493415
  N         1.6873383757        2.7556652701        5.2511421331
 Ga         1.7195216276        4.6188355263        5.8102644676
  N         1.6977457743        4.6169956231        7.8017777598
 Ga         1.6762014952        2.7584444269        8.4411205608
  N         1.6764397567        2.7600618382       10.4334703663
 Ga         1.7023075051        4.6191267600       11.0709256180
  N         1.7186279129        4.6301400673       13.0621904327
 Ga         1.6766846324        2.7618763052       13.6247298589
  N         1.7070233388        2.7474865901       15.5831078333
 Ga         1.5154111034        4.5115230826       16.4943389311
  N         0.0813817202        7.3777579840        2.6978503197
 Ga         0.0887425600        5.5372313843        3.3376020264
  N         0.0827122262        5.5512171298        5.2717605878
 Ga         0.0864470576        7.3944714403        5.9047419467
  N         0.0808774498        7.3980634197        7.8622014057
 Ga         0.0796594393        5.5247753043        8.4454555034
  N         0.0794713002        5.5274587483       10.4338631107
 Ga         0.0802211479        7.3973052907       11.0295301903
  N         0.0797876443        7.3977163692       12.9985124688
 Ga         0.0797147574        5.5275713696       13.6247416907
  N         0.0798033355        5.5590725696       15.5840109659
 Ga         0.0803200546        7.3975744445       15.8619592928
  N        -1.6291393522       10.1085027182        2.5241609620
 Ga        -1.4892025347        8.2974955550        3.3369423596
  N        -1.5169717764        8.3179612731        5.2615381283
 Ga        -1.5028029700       10.2015464341        5.8153866244
  N        -1.5213091058       10.1855361758        7.8034990355
 Ga        -1.5404114027        8.3320085436        8.4482405211
  N        -1.5400858915        8.3319483857       10.4348020259
 Ga        -1.5147538375       10.1918224303       11.0712423051
  N        -1.4974718616       10.2002848859       13.0620641745
 Ga        -1.5397312122        8.3323781376       13.6250971789
  N        -1.5119369570        8.3163086017       15.5840641213
 Ga        -1.7026019138       10.0831732037       16.4953930354
  N         6.5759434030        1.8910395304        2.5122645425
 Ga         6.5228645825       -0.0263987911        2.8882797418
  N         6.5072876115       -0.0464909865        5.0404045738
 Ga         6.4958352406        1.7931686543        5.7930501594
  N         6.5099996708        1.8147636727        7.7938381018
 Ga         6.5139982597       -0.0307687790        8.4443823011
  N         6.5121250367       -0.0310198345       10.4182863224
 Ga         6.5126057414        1.8088851697       11.0688292170
  N         6.5120005607        1.7881392644       13.0655433785
 Ga         6.5121218635       -0.0385225563       13.8641944235
  N         6.5114944428       -0.0309041443       16.0673981152
 Ga         6.5110532995        1.9820459414       16.4470871650
  N         4.9130723096        4.6120585077        2.5525669783
 Ga         4.8882307336        2.6622669469        3.2308392252
  N         4.8940918994        2.7650607473        5.2132512986
 Ga         4.8809899643        4.6256071949        5.8137679306
  N         4.8930779098        4.6175623140        7.8066539235
 Ga         4.9132681589        2.7581698053        8.4412341353
  N         4.9146009297        2.7615522789       10.4350311386
 Ga         4.8887885423        4.6212330589       11.0698514785
  N         4.8705688081        4.6316582817       13.0661909269
 Ga         4.9137445370        2.7608893297       13.6118111657
  N         4.8904803008        2.7478265913       15.5803109975
 Ga         5.0378789630        4.5338858792       16.4472383968
  N         6.5135918308        3.6846710201       17.5870983594
  N         3.2957229915        7.5146142646        2.4985244422
  N         3.2988751726        5.5372477790        5.0450822516
 Ga         3.2984595141        7.3652398374        5.7984792649
  N         3.2935266493        7.3873153915        7.7916791955
 Ga         3.2944788396        5.5423906717        8.4491234435
  N         3.2958015386        5.5414487487       10.4211683799
 Ga         3.2977192380        7.3816415461       11.0711458115
  N         3.2960244213        7.3620642827       13.0622638418
 Ga         3.2884753146        5.5449025398       13.8641117678
  N         3.2950422370        5.5407954638       16.0675609921
 Ga         3.2957874987        7.5957207675       16.4947717490
 Ga         3.3224045088        9.2720820368        1.3277374113
  N         1.7798767022       10.1158015550        2.5038357948
 Ga         1.6785090512        8.3112636610        3.2893714444
  N         1.6769237034        8.3162509328        5.2347487688
 Ga         1.6637942075       10.1979205108        5.8008430237
  N         1.6802072866       10.1839839544        7.7949353246
 Ga         1.7011492045        8.3333101709        8.4461834734
  N         1.6997545303        8.3324580878       10.4334465156
 Ga         1.6751036417       10.1923242197       11.0702641676
  N         1.6571080534       10.2003205378       13.0616839279
 Ga         1.6991294177        8.3324300964       13.6248054048
  N         1.6726978535        8.3169935536       15.5840918481
 Ga         1.8597418605       10.0833482313       16.4946239476
  N         3.3038696296        9.2586417188       17.6294422239
  N         9.6719067728        1.8630122611        2.6523454353
 Ga         9.7198396816        0.0658576072        3.2520011944
  N         9.7248326665       -0.0315565031        5.2300128057
 Ga         9.7403432584        1.8148196617        5.8849679071
  N         9.7287796540        1.8232872849        7.8565936392
 Ga         9.7298915093       -0.0434092836        8.4356502531
  N         9.7290203347       -0.0434667708       10.4287901889
 Ga         9.7289151774        1.8255625645       11.0251112144
  N         9.7271340018        1.8264635149       12.9965709028
 Ga         9.7279121306       -0.0425042100       13.6249427448
  N         9.7242164796       -0.0098228761       15.5844006247
 Ga         9.7313081244        1.8253153394       15.8638611653
  N         8.1136316582        4.5218593269        2.5110687360
 Ga         8.1549049134        2.7348773342        3.3782185250
  N         8.1255560852        2.7498623369        5.3238016149
 Ga         8.1399122922        4.6415885186        5.7898704383
  N         8.1290236324        4.6182174817        7.7919070993
 Ga         8.1104336597        2.7596684987        8.4352487720
  N         8.1092253852        2.7611834825       10.4313378834
 Ga         8.1347648666        4.6201458082       11.0692365691
  N         8.1531378435        4.6314707221       13.0658090451
 Ga         8.1103236692        2.7607941312       13.6118607411
  N         8.1330164500        2.7468780932       15.5815703858
 Ga         7.9866685856        4.5353015949       16.4465185345
  N         6.4957644111        7.3629460890        2.6278262584
 Ga         6.5875383449        5.5763540591        3.2237310868
  N         6.4975619993        5.5430193454        5.2073675133
 Ga         6.5037875881        7.3929436115        5.8686347381
  N         6.5103179779        7.3988042077        7.8461211620
 Ga         6.5135086146        5.5297843222        8.4390585813
  N         6.5117329758        5.5285310634       10.4333806546
 Ga         6.5115239047        7.3987606875       11.0263806708
  N         6.5114547219        7.3970530777       12.9972891166
 Ga         6.5119233436        5.5296101759       13.6123520321
  N         6.5109232197        5.5563421568       15.5817400956
 Ga         6.5119434061        7.4011132712       15.8649452048
  N         4.8006425770       10.1322433962        2.5050422637
 Ga         4.9832755581        8.2829037779        3.2564655233
  N         4.8993000196        8.3244457381        5.2353276081
 Ga         4.9285131587       10.1988167681        5.7864130084
  N         4.9133953855       10.1879526141        7.7885986750
 Ga         4.8926841294        8.3343743454        8.4351851283
  N         4.8932331228        8.3330195679       10.4287815874
 Ga         4.9186580232       10.1915767550       11.0722751017
  N         4.9354994107       10.2007202708       13.0655502873
 Ga         4.8925979935        8.3323182846       13.6257135629
  N         4.9192703607        8.3124810431       15.5848393853
 Ga         4.7426961593       10.0897504296       16.4934895543
  O         0.0107251063        4.0868626629       -0.4263687973
  H        -0.1684662799        5.8868144001       -0.3562938965
  C         1.1217860646        3.6351174014       -1.2210082725
  H         2.0914087065        3.9404886679       -0.7929786019
  H         1.1216876401        2.5395696012       -1.3264204944
  H         1.0317342638        4.0816082388       -2.2214730908
 Ga         3.1767586134        5.5804723427        2.9355970827
  O        -0.2040464534        6.8686157802       -0.1886072303
  H         0.0339855535        7.3126716484        1.6612324319
  H         0.5635675418        7.1989223150       -0.6758584415
 Ga         8.1413212129        2.7631059054        0.8485642241
  C         4.9333480452        4.5589653047        1.1150612292
  H         5.7458577881        5.0215305672        0.5151584099
  H         4.0495185608        4.1191625454        0.6061121305
     212
 i =        2, E =     -8504.7449965878
  N         0.0662546319        1.9808028793        2.4884959815
 Ga         0.0643661442        0.0032493732        2.8269735753
  N         0.0819966675       -0.0260891356        5.0105540933
 Ga         0.0774238381        1.7994440070        5.7979166287
  N         0.0791565746        1.8152333922        7.7977022365
 Ga         0.0770590979       -0.0300728904        8.4452194046
  N         0.0787021824       -0.0307570992       10.4193028804
 Ga         0.0797608765        1.8082372796       11.0734747193
  N         0.0798353137        1.7893335653       13.0659547924
 Ga         0.0803832622       -0.0293032374       13.8786893879
  N         0.0812793476       -0.0282341614       16.0723343023
 Ga         0.0796163369        2.0182012215       16.4926961573
 Ga         0.0340332090        3.6913357118        1.3662370718
  N        -1.4024444597        4.5488837676        2.5192784514
 Ga        -1.6254917456        2.7191249980        3.2702351168
  N        -1.5375655836        2.7475543637        5.2437759230
 Ga        -1.5580101869        4.6184965388        5.8136474645
  N        -1.5347217313        4.6146451145        7.8055324072
 Ga        -1.5175355513        2.7578572392        8.4432603887
  N        -1.5160942418        2.7609353782       10.4349616704
 Ga        -1.5431312884        4.6198961172       11.0707954689
  N        -1.5595385908        4.6305916640       13.0628682868
 Ga        -1.5170721614        2.7616992304       13.6228184831
  N        -1.5474982166        2.7451386007       15.5813647228
 Ga        -1.3569633265        4.5108544154       16.4923643490
  N         0.0802557897        3.6800084193       17.6332828852
  N        -3.1258543257        7.5143116015        2.5331806950
 Ga        -3.1135419651        5.5042719433        2.8894577326
  N        -3.1178348349        5.5544866618        5.0542315898
 Ga        -3.1409510036        7.3646551268        5.8175039095
  N        -3.1361203768        7.3903461740        7.8053594777
 Ga        -3.1362668161        5.5394400046        8.4449313831
  N        -3.1359125292        5.5407995307       10.4185309518
 Ga        -3.1376650605        7.3800345118       11.0714426692
  N        -3.1362979275        7.3611715943       13.0633965704
 Ga        -3.1313622732        5.5431051172       13.8667271951
  N        -3.1317997155        5.5430658071       16.0677294691
 Ga        -3.1374594362        7.5957799139       16.4929607747
 Ga        -3.1364752650        9.2476177723        1.5184368969
  N        -4.6376585701       10.1201267284        2.5179595733
 Ga        -4.8601576977        8.2513506837        3.2830359460
  N        -4.7460768622        8.3236758237        5.2462203315
 Ga        -4.7728326508       10.1990495687        5.7969676221
  N        -4.7554413893       10.1882631884        7.7947088439
 Ga        -4.7395486512        8.3315611880        8.4382845750
  N        -4.7341752727        8.3331292767       10.4311416692
 Ga        -4.7610900409       10.1917177959       11.0740345004
  N        -4.7766772388       10.2011829931       13.0665639079
 Ga        -4.7330800810        8.3323032845       13.6243668175
  N        -4.7623049950        8.3134798078       15.5831730627
 Ga        -4.5805915208       10.0876242734       16.4928572888
  N        -3.1400620901        9.2579444907       17.6289142921
  N         3.3129279491        1.8605069076        2.6172934612
 Ga         3.2996178899        0.1054676923        3.2814742689
  N         3.2978868854       -0.0299300097        5.2464031222
 Ga         3.3028055101        1.8408252228        5.8560995729
  N         3.2972335669        1.8269778430        7.8390041829
 Ga         3.2928946002       -0.0390512509        8.4408422955
  N         3.2944077270       -0.0429029506       10.4331304461
 Ga         3.2946468854        1.8265868641       11.0282861466
  N         3.2961822453        1.8268891887       12.9990151016
 Ga         3.2958995137       -0.0432977242       13.6251549250
  N         3.2975426001       -0.0085795745       15.5844786214
 Ga         3.2956498537        1.8270162664       15.8621672746
  N         1.5576825458        4.5447512895        2.5140561929
 Ga         1.7628550792        2.7107691289        3.2699559139
  N         1.6847283874        2.7551268927        5.2496216824
 Ga         1.7111947684        4.6127081397        5.8219953802
  N         1.6979401039        4.6172191693        7.8081791336
 Ga         1.6783028442        2.7567220149        8.4394646515
  N         1.6762631895        2.7609808665       10.4321568230
 Ga         1.7019997995        4.6195288115       11.0720090398
  N         1.7190356987        4.6305829189       13.0637017255
 Ga         1.6760587236        2.7618294616       13.6241500348
  N         1.7068935762        2.7454097800       15.5825582948
 Ga         1.5166037622        4.5108677179       16.4929907018
  N         0.0835823863        7.3779147604        2.7000204888
 Ga         0.0724920207        5.5385039504        3.3421416487
  N         0.0846362317        5.5513336149        5.2744554700
 Ga         0.0852026800        7.3948021620        5.9062797297
  N         0.0807536570        7.3980170080        7.8625864849
 Ga         0.0792399355        5.5257566936        8.4462723859
  N         0.0801364322        5.5280337008       10.4340413568
 Ga         0.0804428776        7.3971134475       11.0309640347
  N         0.0802741778        7.3978573581       13.0004151290
 Ga         0.0795557509        5.5274064309       13.6247985295
  N         0.0800720731        5.5596524739       15.5845677078
 Ga         0.0797827293        7.3973237374       15.8635361487
  N        -1.6252153213       10.1095239142        2.5285977602
 Ga        -1.4892930024        8.2980632679        3.3408802001
  N        -1.5163859178        8.3168659093        5.2642346165
 Ga        -1.5056728197       10.1982334022        5.8198975969
  N        -1.5230857147       10.1839420489        7.8070763224
 Ga        -1.5401226981        8.3314527361        8.4498656924
  N        -1.5391430751        8.3314796335       10.4361659395
 Ga        -1.5139466331       10.1916266452       11.0714271584
  N        -1.4967896923       10.2004612729       13.0635947611
 Ga        -1.5397692905        8.3322029912       13.6249327641
  N        -1.5116290274        8.3161756377       15.5846150434
 Ga        -1.6999613793       10.0845667230       16.4931108137
  N         6.6033434670        1.8652176761        2.5229049964
 Ga         6.5339394192       -0.0186374813        2.9018243809
  N         6.5043577913       -0.0537938873        5.0570909088
 Ga         6.4943759734        1.7892115309        5.8009538755
  N         6.5030105250        1.8129751181        7.8010285230
 Ga         6.5134635567       -0.0320148658        8.4428164300
  N         6.5125356988       -0.0317610089       10.4172234079
 Ga         6.5133441959        1.8085421870       11.0669097455
  N         6.5119197522        1.7888230510       13.0629348732
 Ga         6.5118187938       -0.0349770618       13.8663941668
  N         6.5107781141       -0.0329703260       16.0693576820
 Ga         6.5109749935        1.9834382500       16.4537626665
  N         4.9145182768        4.6377692148        2.4583724898
 Ga         4.9424261174        2.6398698550        3.1750784526
  N         4.9067881738        2.7672850122        5.1788483996
 Ga         4.8895679295        4.6235724909        5.7987113549
  N         4.8934670579        4.6177803038        7.7953833849
 Ga         4.9118914967        2.7600049093        8.4430603142
  N         4.9141643927        2.7616894008       10.4358686404
 Ga         4.8881827805        4.6216729706       11.0690504127
  N         4.8710573778        4.6311977046       13.0640486914
 Ga         4.9142412222        2.7610286717       13.6142324404
  N         4.8934639418        2.7485818202       15.5819150061
 Ga         5.0378121728        4.5327980756       16.4537456590
  N         6.5145441560        3.6866073380       17.5790482848
  N         3.2877997092        7.5098536221        2.5069501660
  N         3.2840142752        5.5444946584        5.0687952076
 Ga         3.3000577092        7.3757877297        5.8075347569
  N         3.2936285117        7.3871494209        7.7964327295
 Ga         3.2965472687        5.5414050550        8.4495542333
  N         3.2947074301        5.5419759236       10.4208480784
 Ga         3.2972593853        7.3814843810       11.0723939805
  N         3.2956868562        7.3613170412       13.0644533289
 Ga         3.2911643801        5.5427777028       13.8663828145
  N         3.2918924676        5.5412906027       16.0691161215
 Ga         3.2959748285        7.5900266185       16.4894711033
 Ga         3.3151474494        9.2764777611        1.3236012693
  N         1.7860088275       10.1120328851        2.5024598550
 Ga         1.6726170469        8.3224206616        3.2953365066
  N         1.6768374696        8.3139564549        5.2384845959
 Ga         1.6652670182       10.1978076759        5.8023041439
  N         1.6819884559       10.1828617833        7.7962901914
 Ga         1.7002141056        8.3329257591        8.4468254181
  N         1.6996086382        8.3316855879       10.4337856224
 Ga         1.6739184459       10.1914067350       11.0711847399
  N         1.6563083729       10.2003879698       13.0638464521
 Ga         1.6991925966        8.3324770979       13.6250079183
  N         1.6728298798        8.3168389532       15.5859502481
 Ga         1.8541704731       10.0863972607       16.4890548078
  N         3.3027186801        9.2590164317       17.6196030839
  N         9.6354048906        1.8824028230        2.6495410987
 Ga         9.7085327603        0.0741574978        3.2482703536
  N         9.7251444454       -0.0253175315        5.2258251224
 Ga         9.7354481922        1.8180574613        5.8920313977
  N         9.7325495243        1.8210635264        7.8621504093
 Ga         9.7301723653       -0.0447763160        8.4397604541
  N         9.7288802541       -0.0448074627       10.4323921021
 Ga         9.7281685219        1.8262087516       11.0240030019
  N         9.7272876098        1.8258986923       12.9971397909
 Ga         9.7279097251       -0.0434236127       13.6249933475
  N         9.7250146848       -0.0100854169       15.5869047630
 Ga         9.7283901479        1.8271088380       15.8627373685
  N         8.1540250708        4.5105051973        2.5168502093
 Ga         8.1105898568        2.7616747308        3.4175721156
  N         8.1202485002        2.7534451338        5.3489513186
 Ga         8.1448796842        4.6458656095        5.7987691451
  N         8.1271898787        4.6251638429        7.7996806565
 Ga         8.1083527599        2.7613158431        8.4244697247
  N         8.1088642957        2.7613226577       10.4246900451
 Ga         8.1356289612        4.6198017339       11.0671765273
  N         8.1526000147        4.6310369375       13.0634436776
 Ga         8.1094617460        2.7610262549       13.6144607307
  N         8.1298291871        2.7473578733       15.5834856866
 Ga         7.9878580594        4.5349558198       16.4529868643
  N         6.4990080094        7.3467967531        2.6232482793
 Ga         6.6350236511        5.5353307858        3.1726580482
  N         6.5063145207        5.5305768556        5.1775917931
 Ga         6.5032828932        7.3794862883        5.8504951777
  N         6.5099456922        7.3956314055        7.8332274602
 Ga         6.5119162835        5.5305114478        8.4406232886
  N         6.5114296533        5.5288497661       10.4341553784
 Ga         6.5112664405        7.3992475952       11.0264530386
  N         6.5109676823        7.3974846542       12.9984171433
 Ga         6.5118582166        5.5285796661       13.6152193517
  N         6.5105724267        5.5529687180       15.5847643424
 Ga         6.5121123076        7.3976517304       15.8641589262
  N         4.7930110412       10.1291743559        2.5103086939
 Ga         4.9893045047        8.2703234737        3.2565792152
  N         4.8998616600        8.3265533312        5.2342211876
 Ga         4.9270719697       10.2001219900        5.7833458510
  N         4.9130066277       10.1878578824        7.7864566657
 Ga         4.8957266127        8.3330888135        8.4332357188
  N         4.8923133443        8.3328115396       10.4276020757
 Ga         4.9190878352       10.1908313516       11.0733441672
  N         4.9361204015       10.2011019207       13.0669915204
 Ga         4.8918524709        8.3327771918       13.6256004588
  N         4.9195048098        8.3129896194       15.5867935335
 Ga         4.7469064069       10.0917455587       16.4885677915
  O         0.0124086142        4.0906685857       -0.4321270550
  H        -0.1750864889        5.8796010538       -0.3530104004
  C         1.1234353967        3.6339140069       -1.2209271406
  H         2.0923956033        3.9419962799       -0.7927732224
  H         1.1220728666        2.5384946256       -1.3268938301
  H         1.0285972867        4.0811581982       -2.2208851408
 Ga         3.1474866864        5.5890710349        3.0165581697
  O        -0.1982819236        6.8630235170       -0.1961734415
  H         0.0370128411        7.3151802738        1.6631581373
  H         0.5673420608        7.2116770793       -0.6817459628
 Ga         8.1135791854        2.7847298941        0.7877870158
  C         4.8985264316        4.6009139706        1.1505282494
  H         5.7272689672        4.9930988040        0.5498579166
  H         4.0779608592        4.1108774699        0.6045057533
     212
 i =        3, E =     -8504.7497006916
  N         0.0657032180        1.9783601000        2.4918274869
 Ga         0.0565053589       -0.0000110893        2.8276896436
  N         0.0842411828       -0.0257934767        5.0091394276
 Ga         0.0766542873        1.7985934814        5.7937557989
  N         0.0795141406        1.8161227281        7.7951417736
 Ga         0.0773035501       -0.0304937823        8.4423763996
  N         0.0787714484       -0.0307137367       10.4182750560
 Ga         0.0801926822        1.8084300861       11.0738952673
  N         0.0799227213        1.7897496229       13.0658642162
 Ga         0.0806914238       -0.0283267450       13.8777287506
  N         0.0801547123       -0.0265248996       16.0728440733
 Ga         0.0800631818        2.0243979781       16.4938086308
 Ga         0.0317882882        3.6860912371        1.3681686170
  N        -1.3989878073        4.5465785532        2.5201986726
 Ga        -1.6337209532        2.7172449804        3.2679812188
  N        -1.5389921679        2.7488726043        5.2424953069
 Ga        -1.5580354656        4.6174004235        5.8184141874
  N        -1.5346640701        4.6140801439        7.8091243614
 Ga        -1.5168923915        2.7567682144        8.4463340525
  N        -1.5159710678        2.7614972465       10.4375729968
 Ga        -1.5434629851        4.6205759898       11.0724256305
  N        -1.5588632195        4.6303099438       13.0640881668
 Ga        -1.5176798754        2.7609863380       13.6218600441
  N        -1.5476061037        2.7433562794       15.5792100902
 Ga        -1.3541030789        4.5092332813       16.4927373274
  N         0.0793500695        3.6829626307       17.6407382467
  N        -3.1242336815        7.5164722950        2.5364895336
 Ga        -3.1140560063        5.4984410247        2.8968648192
  N        -3.1165599596        5.5547938386        5.0646401827
 Ga        -3.1413247004        7.3667474514        5.8202880103
  N        -3.1358181202        7.3914178471        7.8076079924
 Ga        -3.1360292176        5.5411103515        8.4473014593
  N        -3.1357394748        5.5406404928       10.4201415924
 Ga        -3.1379567215        7.3795994998       11.0718038861
  N        -3.1363474158        7.3614822080       13.0643809593