     156
 i =        1, E =     -6136.6505911139
 Ga        -0.0031975257       -0.0158328882       -0.5376043332
  N        -0.0002730111        1.8584788123        0.6069806385
 Ga        -0.0003338833        1.8280263330        2.6383649211
  N        -0.0033779548       -0.0156156895        3.2697233509
 Ga        -0.0021664379       -0.0150495410        5.2604432764
  N         0.0008183655        1.8596738793        5.8482764041
 Ga         0.0022982213        1.8581460442        7.8482155700
  N         0.0008302892       -0.0150021126        8.4504964987
 Ga         0.0037379173       -0.0157139112       10.4497403336
  N         0.0042893166        1.8600616047       11.0417900271
 Ga         0.0096548640        1.8621779924       13.0322676381
  N         0.0152860715       -0.0087186388       13.6326996751
 Ga         0.0302976727       -0.0177283568       15.6247569385
  N         0.0201506468        1.8573425915       16.2211591721
 Ga         0.0451735556        1.8469337753       18.2870946818
  N         0.0482423992       -0.0268772386       18.6992172094
 Ga        -1.6230538369        2.7898794492        0.3238480408
  N        -1.6248085024        4.6597402098        0.6066815043
 Ga        -1.5956845116        4.6757315896        2.6367493823
  N        -1.6231063352        2.7899848108        3.2283613680
 Ga        -1.6217668529        2.7906160244        5.2399101762
  N        -1.6212812727        4.6608897051        5.8464600858
 Ga        -1.6191118562        4.6615284818        7.8451724184
  N        -1.6203666164        2.7918299034        8.4510856356
 Ga        -1.6194587980        2.7953036858       10.4471236577
  N        -1.6174738973        4.6668606315       11.0553136222
 Ga        -1.6182413203        4.6713305070       13.0529348210
  N        -1.6072282566        2.7997062323       13.6583233582
 Ga        -1.6006511450        2.8156299592       15.6627151073
  N        -1.5866552331        4.6836894783       16.3100036575
 Ga        -1.5148505326        4.6815215630       18.3869594768
  N        -1.5542630315        2.7875771237       18.7572010681
 Ga        -3.2437380998        5.5955545491        0.3237662252
  N        -3.2373744497        7.4661482290        0.6072384002
 Ga        -3.2641835692        7.4807110261        2.6385039494
  N        -3.2426864334        5.5950410483        3.2286990365
 Ga        -3.2419175339        5.5960183156        5.2401579877
  N        -3.2357836810        7.4663023622        5.8469642264
 Ga        -3.2358817029        7.4670938883        7.8461096437
  N        -3.2398815520        5.5961848391        8.4493945954
 Ga        -3.2389798372        5.5972656555       10.4449071879
  N        -3.2308510350        7.4658460180       11.0558473105
 Ga        -3.2219987584        7.4630860701       13.0546739573
  N        -3.2356648620        5.5973396343       13.6927438217
 Ga        -3.2233273592        5.5922932687       15.7297242835
  N        -3.2088079819        7.4745532286       16.2698896558
 Ga        -3.1862897319        7.4472798445       18.3272995926
  N        -3.1630863105        5.5847820857       18.8517762095
 Ga         3.2425517063       -0.0154443355        0.3241535924
  N         3.2414642340        1.8548067143        0.6063823022
 Ga         3.2696625725        1.8704510569        2.6372631117
  N         3.2428087937       -0.0153014873        3.2283625463
 Ga         3.2440037641       -0.0145990060        5.2400361573
  N         3.2446610673        1.8555411628        5.8474682495
 Ga         3.2471187131        1.8563039836        7.8468566918
  N         3.2448889705       -0.0146493633        8.4497416019
 Ga         3.2477348970       -0.0140695906       10.4453394995
  N         3.2516198067        1.8569356869       11.0514749818
 Ga         3.2584227375        1.8540560956       13.0488459735
  N         3.2577564293       -0.0165823291       13.6599158619
 Ga         3.2694273251       -0.0184220047       15.6655949093
  N         3.2836910539        1.8548772411       16.2302975343
 Ga         3.3203651811        1.8611259499       18.2546202898
  N         3.3056103113       -0.0249508872       18.7111681737
 Ga         1.6221359457        2.7905842449        0.3237502724
  N         1.6293368850        4.6603706250        0.6070025737
 Ga         1.6011610364        4.6758763883        2.6371135455
  N         1.6229367090        2.7900958599        3.2290976355
 Ga         1.6243014070        2.7909470637        5.2409611885
  N         1.6297319524        4.6611455049        5.8483819133
 Ga         1.6302453918        4.6616114940        7.8483167585
  N         1.6261105742        2.7902880839        8.4495190095
 Ga         1.6296898133        2.7920808903       10.4450133898
  N         1.6277931487        4.6623895047       11.0492769507
 Ga         1.6293129194        4.6645817546       13.0449705648
  N         1.6312523211        2.7872961707       13.6465653420
 Ga         1.6546612440        2.7847015604       15.6409835897
  N         1.6295980730        4.6647113692       16.1835827580
 Ga         1.6795354836        4.6399232003       18.1810571146
  N         1.6850767141        2.7772984058       18.6355190184
 Ga         0.0031265681        5.5957806521       -0.5460739857
  N         0.0059631282        7.4707663455        0.6066684885
 Ga         0.0060800488        7.4382870940        2.6368301070
  N         0.0030126021        5.5951900398        3.2696105026
 Ga         0.0046937201        5.5962074166        5.2598517358
  N         0.0074737047        7.4707313665        5.8477319359
 Ga         0.0089335269        7.4693676871        7.8473352692
  N         0.0049658285        5.5956932489        8.4473726659
 Ga         0.0067460409        5.5972458993       10.4446995508
  N         0.0116954809        7.4694314006       11.0451253116
 Ga         0.0151690362        7.4715729946       13.0372602209
  N         0.0057772479        5.6027740382       13.6453301605
 Ga         0.0069124486        5.6014792232       15.6415263789
  N         0.0373114269        7.4663505146       16.2679540374
 Ga         0.0724624174        7.4322228274       18.3564426344
  N         0.1427025597        5.5801966484       18.9078832081
 Ga         6.4873189611       -0.0150111267        0.3233681487
  N         6.4933546269        1.8552433005        0.6060545214
 Ga         6.4660919721        1.8703021608        2.6370626288
  N         6.4880552429       -0.0152150555        3.2289764456
 Ga         6.4897988129       -0.0146098597        5.2409326269
  N         6.4945645859        1.8559329899        5.8479315990
 Ga         6.4944321022        1.8568641269        7.8474601075
  N         6.4910191046       -0.0135250359        8.4514758349
 Ga         6.4946017274       -0.0112764572       10.4481186982
  N         6.4964318757        1.8611454665       11.0531326143
 Ga         6.5008095427        1.8654471315       13.0503434362
  N         6.4900439645       -0.0069992602       13.6381633332
 Ga         6.5094288430        0.0000549800       15.6388320687
  N         6.5161533463        1.8736561859       16.2284717264
 Ga         6.5716186396        1.8770599193       18.2697314229
  N         6.5618007497       -0.0212704818       18.6571552803
 Ga         4.8675977848        2.7916170056       -0.5407309962
  N         4.8709926419        4.6643845044        0.6069278860
 Ga         4.8708428623        4.6332301461        2.6375395792
  N         4.8683124370        2.7899030041        3.2693526209
 Ga         4.8696070890        2.7911720204        5.2595954222
  N         4.8722539369        4.6651816843        5.8481195180
 Ga         4.8727435786        4.6640275826        7.8477789480
  N         4.8709677855        2.7914503198        8.4503603137
 Ga         4.8737720359        2.7956205750       10.4496490498
  N         4.8796111530        4.6660171306       11.0586002730
 Ga         4.8808932379        4.6697046128       13.0611280736
  N         4.8759620688        2.7957372317       13.6541080823
 Ga         4.8828262269        2.8016211486       15.6675657428
  N         4.8618003055        4.6737388182       16.1680342398
 Ga         4.9280239812        4.6627015101       19.1110020584
  N         4.9397734180        2.7861478580       18.7405638940
 Ga         3.2489110571        5.5950407223        0.3233110336
  N         3.2480349915        7.4655298579        0.6067492496
 Ga         3.2754831970        7.4805731776        2.6380811646
  N         3.2486681197        5.5952810979        3.2291511994
 Ga         3.2500903427        5.5963537762        5.2408275639
  N         3.2504885199        7.4661959818        5.8494145426
 Ga         3.2531371043        7.4666226999        7.8498274680
  N         3.2515156311        5.5960037421        8.4550865564
 Ga         3.2549087250        5.5976723259       10.4542557291
  N         3.2566900705        7.4714486316       11.0509019387
 Ga         3.2574121100        7.4729310471       13.0481315380
  N         3.2491441678        5.5987613751       13.6295829470
 Ga         3.2566378214        5.6060766610       15.6351850777
  N         3.2801034433        7.4865062567       16.1582567446
 Ga         3.3273090459        7.4919704077       18.1714471084
  N         3.3641296702        5.5697234067       18.4645898383
  O         1.6899292075        5.0168321945       21.2074629485
  H         1.0233871994        5.3805890265       20.5194031938
  C         0.8698032673        4.0173555796       21.8634320026
  H         0.1292613338        3.5515549388       21.1939871609
  H         1.5436965318        3.2161842882       22.1853210292
  H         0.3255587240        4.3701191130       22.7529809922
  O         4.1499635975        4.7138106328       21.0672974425
  H         3.1339804151        4.8718655592       21.0954312143
  C         4.5454081196        3.6116176156       21.9322804727
  H         4.1209278327        2.6683510096       21.5625008873
  H         5.6372049974        3.5048452724       21.9648586416
  H         4.1811878215        3.8091588566       22.9481056657
     156
 i =        2, E =     -6136.6602038833
 Ga        -0.0031972833       -0.0158541665       -0.5394884598
  N        -0.0002585465        1.8585241420        0.6072067770
 Ga        -0.0003069050        1.8279849463        2.6383173058
  N        -0.0033543288       -0.0156165650        3.2698661561
 Ga        -0.0021491634       -0.0150456523        5.2604712454
  N         0.0008501131        1.8597188917        5.8484314246
 Ga         0.0023744534        1.8581844668        7.8483714869
  N         0.0008929059       -0.0150090504        8.4503876028
 Ga         0.0038416033       -0.0157044401       10.4494850829
  N         0.0043369472        1.8600402103       11.0421223105
 Ga         0.0100943270        1.8619127530       13.0325990431
  N         0.0156051466       -0.0085977378       13.6349690491
 Ga         0.0316281754       -0.0217235084       15.6276628233
  N         0.0228522607        1.8572467879       16.2196520740
 Ga         0.0456942632        1.8487012993       18.2858464723
  N         0.0463306938       -0.0242807106       18.6958168635
 Ga        -1.6229334963        2.7897851511        0.3238254592
  N        -1.6247913446        4.6597336182        0.6065487558
 Ga        -1.5957105110        4.6757072521        2.6367046482
  N        -1.6230995563        2.7899752378        3.2283612420
 Ga        -1.6217572190        2.7906525896        5.2398958555
  N        -1.6212395504        4.6609194531        5.8465991654
 Ga        -1.6190877711        4.6616594685        7.8453196075
  N        -1.6203650894        2.7918912070        8.4511408318
 Ga        -1.6194451677        2.7954129179       10.4470779158
  N        -1.6175459713        4.6668270099       11.0554615996
 Ga        -1.6184500099        4.6712885985       13.0531910872
  N        -1.6063993454        2.7995331695       13.6603706836
 Ga        -1.6019327999        2.8163328376       15.6654256171
  N        -1.5868772201        4.6835789184       16.3121559810
 Ga        -1.5134453412        4.6819092714       18.3887907607
  N        -1.5537701080        2.7876376071       18.7510419782
 Ga        -3.2437457302        5.5956863923        0.3237494090
  N        -3.2373023101        7.4661203073        0.6074727964
 Ga        -3.2641894069        7.4807135969        2.6384714937
  N        -3.2426768880        5.5950137919        3.2287039799
 Ga        -3.2418982381        5.5960123954        5.2401512297
  N        -3.2357322753        7.4663148732        5.8470531264
 Ga        -3.2358041541        7.4670796177        7.8461784988
  N        -3.2398701584        5.5962352005        8.4496657056
 Ga        -3.2390393697        5.5972717476       10.4452149489
  N        -3.2309265127        7.4659301234       11.0557246929
 Ga        -3.2220578529        7.4628464306       13.0546744379
  N        -3.2363813050        5.5969235970       13.6923022338
 Ga        -3.2232940854        5.5915687188       15.7295846047
  N        -3.2063738126        7.4710588729       16.2730737998
 Ga        -3.1884793677        7.4460491743       18.3298376890
  N        -3.1602722396        5.5843057634       18.8534150469
 Ga         3.2424460699       -0.0154911051        0.3241375086
  N         3.2415900719        1.8548683283        0.6063088630
 Ga         3.2696752172        1.8704373181        2.6372774968
  N         3.2428391353       -0.0152924500        3.2283647245
 Ga         3.2440628012       -0.0145826474        5.2400233373
  N         3.2446886668        1.8555549682        5.8475755296
 Ga         3.2471819400        1.8563105517        7.8469259059
  N         3.2448708042       -0.0145958581        8.4498990444
 Ga         3.2476880059       -0.0140547428       10.4454516356
  N         3.2517664294        1.8570004113       11.0514152030
 Ga         3.2587386096        1.8537614446       13.0487432642
  N         3.2574380489       -0.0165825857       13.6600578098
 Ga         3.2676166616       -0.0190137011       15.6658574628
  N         3.2840884178        1.8525797922       16.2339023023
 Ga         3.3217972339        1.8609206802       18.2590251367
  N         3.3035657270       -0.0247535281       18.7167332243
 Ga         1.6220498476        2.7904946468        0.3237450095
  N         1.6293519602        4.6603640725        0.6068905359
 Ga         1.6012428353        4.6758419325        2.6370807107
  N         1.6229784095        2.7900817235        3.2291007397
 Ga         1.6243503887        2.7909877219        5.2409407877
  N         1.6297446539        4.6611682326        5.8484971010
 Ga         1.6302957805        4.6617043132        7.8484332228
  N         1.6262209223        2.7903564397        8.4496468632
 Ga         1.6297702420        2.7922144724       10.4450864220
  N         1.6278374406        4.6624666706       11.0488965273
 Ga         1.6286749195        4.6651223368       13.0446736063
  N         1.6316511641        2.7876029187       13.6467351678
 Ga         1.6575152703        2.7869115802       15.6409484456
  N         1.6277272261        4.6647035981       16.1822664859
 Ga         1.6781920249        4.6407578544       18.1788841331
  N         1.6851409533        2.7788005110       18.6307596041
 Ga         0.0031587222        5.5957699135       -0.5454151772
  N         0.0059789649        7.4707578848        0.6065579494
 Ga         0.0061014429        7.4383391127        2.6367987361
  N         0.0030411447        5.5951874681        3.2694804277
 Ga         0.0047285959        5.5962281565        5.2597934337
  N         0.0075000930        7.4707275709        5.8479196824
 Ga         0.0089360074        7.4693756640        7.8475513875
  N         0.0050110249        5.5956895563        8.4475732602
 Ga         0.0067065951        5.5972080836       10.4449083879
  N         0.0116860794        7.4694893227       11.0447036788
 Ga         0.0151087148        7.4718056478       13.0367566026
  N         0.0052406352        5.6032223829       13.6448295088
 Ga         0.0071236232        5.6008162935       15.6412562490
  N         0.0382874567        7.4679651659       16.2651517127
 Ga         0.0685486247        7.4324462138       18.3541003896
  N         0.1422362803        5.5817952207       18.9085928725
 Ga         6.4874596523       -0.0150615062        0.3233618113
  N         6.4932647488        1.8553027618        0.6059859122
 Ga         6.4661199869        1.8702828149        2.6370777427
  N         6.4880628243       -0.0152026833        3.2289925065
 Ga         6.4898060340       -0.0146025216        5.2409335505
  N         6.4945979470        1.8559404884        5.8480531429
 Ga         6.4944032562        1.8568666759        7.8475611270
  N         6.4910355666       -0.0134818048        8.4515516644
 Ga         6.4946344688       -0.0111261306       10.4481944899
  N         6.4964456828        1.8613561941       11.0533059434
 Ga         6.5011137683        1.8657322501       13.0506527466
  N         6.4904149054       -0.0066670732       13.6366705503
 Ga         6.5102150717       -0.0001221701       15.6368768281
  N         6.5154688308        1.8723864289       16.2307397335
 Ga         6.5716753302        1.8754648229       18.2723261145
  N         6.5594943325       -0.0228313587       18.6597419094
 Ga         4.8676235750        2.7915875942       -0.5401426342
  N         4.8710140645        4.6642463005        0.6068507354
 Ga         4.8708585052        4.6332402280        2.6375546915
  N         4.8683356593        2.7898991254        3.2693112243
 Ga         4.8696393047        2.7912022427        5.2595829703
  N         4.8722934827        4.6651966423        5.8482551439
 Ga         4.8727579087        4.6641025128        7.8479107262
  N         4.8709790552        2.7915004652        8.4504244181
 Ga         4.8738273211        2.7957273376       10.4495990732
  N         4.8794548955        4.6659796311       11.0583959317
 Ga         4.8803964875        4.6698445543       13.0609745200
  N         4.8759743722        2.7961328510       13.6551617321
 Ga         4.8822938939        2.8013054237       15.6696660724
  N         4.8596357540        4.6744145564       16.1642444016
 Ga         4.9298766943        4.6629366559       19.1044589996
  N         4.9409574433        2.7862109886       18.7413365809
 Ga         3.2489503023        5.5951612980        0.3233094593
  N         3.2479953804        7.4654901301        0.6070179862
 Ga         3.2755266966        7.4805710391        2.6380764052
  N         3.2487005155        5.5952542046        3.2291817580
 Ga         3.2501280781        5.5963484999        5.2408479759
  N         3.2504940884        7.4662044712        5.8495381512
 Ga         3.2531295038        7.4665986141        7.8499635867
  N         3.2515399774        5.5960200812        8.4551551812
 Ga         3.2548872415        5.5977680627       10.4543173545
  N         3.2568216291        7.4716485831       11.0501827319
 Ga         3.2575460692        7.4734610348       13.0473799787
  N         3.2485883557        5.5996210535       13.6276356614
 Ga         3.2552325823        5.6064465439       15.6331026252
  N         3.2794576531        7.4857226000       16.1587285414
 Ga         3.3255914026        7.4923307984       18.1716584227
  N         3.3658903410        5.5689060379       18.4566991520
  O         1.6139776700        5.0363046844       21.2296902088
  H         1.0239875943        5.4000679122       20.4859403016
  C         0.8642999084        3.9852737408       21.8788413197
  H         0.1290915131        3.5553469753       21.1801648977
  H         1.5570245647        3.1977269243       22.1940598707
  H         0.3298555670        4.3878461475       22.7545080969
  O         4.1928763168        4.7162756941       21.0719009466
  H         3.1698756995        4.8608524220       21.0919477597
  C         4.5397653081        3.6035764343       21.9386130305
  H         4.1185700829        2.6619092682       21.5609600407
  H         5.6338156609        3.5148862724       21.9573757547
  H         4.1786677390        3.8115197408       22.9534527762
     156
 i =        3, E =     -6136.6603257899
 Ga        -0.0031956860       -0.0158613033       -0.5411154510
  N        -0.0002296465        1.8586619239        0.6071368045
 Ga        -0.0002411602        1.8276546190        2.6379407257
  N        -0.0033154119       -0.0156443690        3.2700766100
 Ga        -0.0021119778       -0.0150082544        5.2604317938
  N         0.0009292225        1.8597741089        5.8484920247
 Ga         0.0025095505        1.8583484914        7.8484201778
  N         0.0010397145       -0.0149633027        8.4498929450
 Ga         0.0042778282       -0.0152877006       10.4488371804
  N         0.0043614222        1.8599754742       11.0452801803
 Ga         0.0108393524        1.8617376763       13.0369450549
  N         0.0167098167       -0.0091406798       13.6381711869
 Ga         0.0334569529       -0.0251162628       15.6314023354
  N         0.0254266796        1.8565535870       16.2194638171
 Ga         0.0469748771        1.8509460182       18.2836669656
  N         0.0434942829       -0.0212180006       18.6908040247
 Ga        -1.6226437131        2.7898159716        0.3242498956
  N        -1.6247207816        4.6597316923        0.6064536108
 Ga        -1.5958465309        4.6756231281        2.6366971673
  N        -1.6229464787        2.7898163168        3.2282423957
 Ga        -1.6216806785        2.7907207478        5.2398541801
  N        -1.6211680198        4.6610083991        5.8467074942
 Ga        -1.6190290354        4.6618167225        7.8454736754
  N        -1.6203031259        2.7919926710        8.4511164096
 Ga        -1.6191367954        2.7954788189       10.4469790407
  N        -1.6176709681        4.6665763247       11.0560432009
 Ga        -1.6189069536        4.6704991172       13.0539002890
  N        -1.6058448091        2.7994249150       13.6633974787
 Ga        -1.6018130211        2.8153850135       15.6682900462
  N        -1.5881642154        4.6806102980       16.3140716639
 Ga        -1.5131751895        4.6842769246       18.3921742882
  N        -1.5527267968        2.7876168076       18.7403085739
 Ga        -3.2435328721        5.5958693853        0.3241969693
  N        -3.2371015275        7.4660361274        0.6073847515
 Ga        -3.2644161151        7.4808441384        2.6380818740
  N        -3.2427235363        5.5951737868        3.2285511601
 Ga        -3.2418265425        5.5960307708        5.2400284050
  N        -3.2356530337        7.4663432228        5.8470463451
 Ga        -3.2356374374        7.4670569253        7.8461595743
  N        -3.2398030149        5.5963412761        8.4500161968
 Ga        -3.2390349412        5.5972503441       10.4457940643
  N        -3.2310822797        7.4660772577       11.0555122207
 Ga        -3.2224350885        7.4624001516       13.0544562330
  N        -3.2364868968        5.5967686319       13.6923372876
 Ga        -3.2236150065        5.5903773119       15.7301860717
  N        -3.2043920231        7.4662800035       16.2752027256
 Ga        -3.1922305572        7.4438938233       18.3317558507
  N        -3.1588669873        5.5843032556       18.8608485929
 Ga         3.2424190982       -0.0157239018        0.3245645303
  N         3.2415344196        1.8548130952        0.6058507485
 Ga         3.2696725485        1.8704070198        2.6371879506
  N         3.2426944877       -0.0153300580        3.2282167512
 Ga         3.2441674233       -0.0145837975        5.2399122792
  N         3.2447344804        1.8555619114        5.8476020929
 Ga         3.2472136308        1.8563298616        7.8469679256
  N         3.2448558317       -0.0145202576        8.4499689008
 Ga         3.2475271943       -0.0139013365       10.4455233508
  N         3.2519344263        1.8570770408       11.0515105325
 Ga         3.2593574729        1.8534474353       13.0487541974
  N         3.2561517564       -0.0164647436       13.6607151725
 Ga         3.2650149690       -0.0184715031       15.6670568324
  N         3.2845054869        1.8512883576       16.2370358078
 Ga         3.3232348956        1.8613259723       18.2631118250
  N         3.3003734787       -0.0242965644       18.7248114091
 Ga         1.6218294649        2.7905308093        0.3242078768
  N         1.6293450936        4.6603614373        0.6068316636
 Ga         1.6014918115        4.6757268117        2.6370914897
  N         1.6229220101        2.7899275379        3.2289729618
 Ga         1.6243984414        2.7910589934        5.2408423865
  N         1.6297854667        4.6612235316        5.8485483126
 Ga         1.6302837636        4.6617860683        7.8485090512
  N         1.6263718263        2.7904653671        8.4497684569
 Ga         1.6297230610        2.7921113887       10.4452700751
  N         1.6277095479        4.6625446167       11.0476152041
 Ga         1.6269576616        4.6653088843       13.0431034003
  N         1.6334885546        2.7884592475       13.6470871413
 Ga         1.6594450111        2.7870087505       15.6409244879
  N         1.6259996694        4.6642412780       16.1772792372
 Ga         1.6782069107        4.6421078180       18.1735459546
  N         1.6852750931        2.7813395079       18.6246863275
 Ga         0.0032286598        5.5957476094       -0.5453538522
  N         0.0060133803        7.4707117224        0.6065080903
 Ga         0.0061464612        7.4385361224        2.6368236045
  N         0.0031023714        5.5951834842        3.2691613436
 Ga         0.0048026041        5.5962747621        5.2596549104
  N         0.0075555331        7.4707393791        5.8481104912
 Ga         0.0089070460        7.4693753235        7.8477922794
  N         0.0050513638        5.5957208391        8.4476348203
 Ga         0.0063840954        5.5970880392       10.4449909533
  N         0.0116455405        7.4695779244       11.0442954397
 Ga         0.0144197858        7.4726311873       13.0364787907
  N         0.0042628093        5.6039210029       13.6443720340
 Ga         0.0060224230        5.5993050784       15.6412879721
  N         0.0392005663        7.4700348168       16.2618141015
 Ga         0.0630657717        7.4349739189       18.3510403974
  N         0.1450668476        5.5845035843       18.9094898407
 Ga         6.4875681833       -0.0153023898        0.3238182349
  N         6.4933912678        1.8552461021        0.6055250854
 Ga         6.4661921657        1.8702279932        2.6369790842
  N         6.4882841632       -0.0152423806        3.2288666286
 Ga         6.4898291267       -0.0146312307        5.2408300760
  N         6.4946542583        1.8559220656        5.8480579206
 Ga         6.4944664418        1.8569481638        7.8475875242
  N         6.4910254228       -0.0133813263        8.4513772472
 Ga         6.4946048870       -0.0105662611       10.4480881870
  N         6.4967410287        1.8619008880       11.0543559444
 Ga         6.5013485162        1.8670920698       13.0520936695
  N         6.4911149546       -0.0059207221       13.6346898103
 Ga         6.5102167974        0.0014090951       15.6345016530
  N         6.5166044462        1.8717693341       16.2343056001
 Ga         6.5702300934        1.8734628532       18.2766384388
  N         6.5578805439       -0.0253128871       18.6637401020
 Ga         4.8676706373        2.7915221760       -0.5378792135
  N         4.8710532472        4.6643283656        0.6063680891
 Ga         4.8708878279        4.6332931547        2.6374439404
  N         4.8683808901        2.7899088602        3.2690723672
 Ga         4.8696921226        2.7912435059        5.2594971377
  N         4.8723536502        4.6652594840        5.8482905320
 Ga         4.8728454064        4.6642299108        7.8480146620
  N         4.8710151536        2.7915478901        8.4504555359
 Ga         4.8739384119        2.7957166734       10.4497057253
  N         4.8791302181        4.6659420868       11.0583668613
 Ga         4.8803066392        4.6696767523       13.0615843292
  N         4.8754544910        2.7962887077       13.6573634856
 Ga         4.8825577604        2.7988254833       15.6732176204
  N         4.8560390354        4.6742152820       16.1576375633
 Ga         4.9311423024        4.6618857861       19.1068644959
  N         4.9417456249        2.7856304531       18.7465576890
 Ga         3.2488029880        5.5953294877        0.3237916710
  N         3.2478685776        7.4653874383        0.6069902293
 Ga         3.2758234257        7.4806915571        2.6377294695
  N         3.2488293288        5.5954139863        3.2290725460
 Ga         3.2501527579        5.5963765512        5.2407607554
  N         3.2505273714        7.4662288853        5.8495486572
 Ga         3.2531329554        7.4666444142        7.8499893982
  N         3.2515327509        5.5960828697        8.4548946166
 Ga         3.2548119969        5.5979023420       10.4541356622
  N         3.2572026362        7.4721973010       11.0491965802
 Ga         3.2583568087        7.4747099772       13.0464397644
  N         3.2468105936        5.6005767808       13.6235995908
 Ga         3.2548468673        5.6079780139       15.6292267523
  N         3.2776721139        7.4860934982       16.1584306260
 Ga         3.3234288375        7.4915181300       18.1713726608
  N         3.3711261409        5.5662804631       18.4460064312
  O         1.6157580739        5.0451954860       21.2350212138
  H         1.0261600566        5.3949793670       20.4849846683
  C         0.8622603645        3.9901659632       21.8725917948