 DBCSR| Multiplication driver                                               BLAS
 DBCSR| Multrec recursion limit                                              512
 DBCSR| Multiplication stack size                                           1000
 DBCSR| Maximum elements for images                                    UNLIMITED
 DBCSR| Multiplicative factor virtual images                                   1
 DBCSR| Multiplication size stacks                                             3
 DBCSR| Number of 3D layers                                               SINGLE
 DBCSR| Use MPI memory allocation                                              T
 DBCSR| Use RMA algorithm                                                      F
 DBCSR| Use Communication thread                                               T
 DBCSR| Communication thread load                                             87


  **** **** ******  **  PROGRAM STARTED AT               2019-05-26 21:07:47.350
 ***** ** ***  *** **   PROGRAM STARTED ON        blg8314.int.ets1.calculquebec.
 **    ****   ******    PROGRAM STARTED BY                                   rzk
 ***** **    ** ** **   PROGRAM PROCESS ID                                 33180
  **** **  *******  **  PROGRAM STARTED IN /lustre03/project/6004141/rzk/GaN-car
                                           bene/01-Methanol/443-capped/04-both-c
                                           onf2

 CP2K| version string:                    CP2K version 7.0 (Development Version)
 CP2K| source code revision number:                                    svn:18619
 CP2K| cp2kflags: libint fftw3 libxc parallel mpi3 scalapack mkl                
 CP2K| is freely available from                            https://www.cp2k.org/
 CP2K| Program compiled at                          Sun Apr  7 00:48:11 EDT 2019
 CP2K| Program compiled on                      beluga2.int.ets1.calculquebec.ca
 CP2K| Program compiled for                    Beluga-Linux-x86-64-intel-openmpi
 CP2K| Data directory path    /home/rzk/projects/def-rzk/group/cp2k/cp2k-mcgill/
 CP2K| Input file name                                               restart.inp
 
 GLOBAL| Force Environment number                                              1
 GLOBAL| Basis set file name                                        BASIS_MOLOPT
 GLOBAL| Potential file name                                      GTH_POTENTIALS
 GLOBAL| MM Potential file name                                     MM_POTENTIAL
 GLOBAL| Coordinate file name                                      __STD_INPUT__
 GLOBAL| Method name                                                        CP2K
 GLOBAL| Project name                                                       TEST
 GLOBAL| Preferred FFT library                                             FFTW3
 GLOBAL| Preferred diagonalization lib.                                       SL
 GLOBAL| Run type                                                        GEO_OPT
 GLOBAL| All-to-all communication in single precision                          F
 GLOBAL| FFTs using library dependent lengths                                  F
 GLOBAL| Global print level                                               MEDIUM
 GLOBAL| MPI I/O enabled                                                       T
 GLOBAL| Total number of message passing processes                            80
 GLOBAL| Number of threads for this process                                    1
 GLOBAL| This output is from process                                           0
 GLOBAL| CPU model name :  Intel(R) Xeon(R) Gold 6148 CPU @ 2.40GHz

 MEMORY| system memory details [Kb]
 MEMORY|                        rank 0           min           max       average
 MEMORY| MemTotal             97523924      97523924      97523924      97523924
 MEMORY| MemFree              86107312      86102472      86468600      86271854
 MEMORY| Buffers                    76            76            76            76
 MEMORY| Cached                1299460       1215660       1299460       1257560
 MEMORY| Slab                   993780        980928        993780        987354
 MEMORY| SReclaimable           135968        135368        135968        135668
 MEMORY| MemLikelyFree        87542816      87537976      87819704      87665158


 *** Fundamental physical constants (SI units) ***

 *** Literature: B. J. Mohr and B. N. Taylor,
 ***             CODATA recommended values of the fundamental physical
 ***             constants: 2006, Web Version 5.1
 ***             http://physics.nist.gov/constants

 Speed of light in vacuum [m/s]                             2.99792458000000E+08
 Magnetic constant or permeability of vacuum [N/A**2]       1.25663706143592E-06
 Electric constant or permittivity of vacuum [F/m]          8.85418781762039E-12
 Planck constant (h) [J*s]                                  6.62606896000000E-34
 Planck constant (h-bar) [J*s]                              1.05457162825177E-34
 Elementary charge [C]                                      1.60217648700000E-19
 Electron mass [kg]                                         9.10938215000000E-31
 Electron g factor [ ]                                     -2.00231930436220E+00
 Proton mass [kg]                                           1.67262163700000E-27
 Fine-structure constant                                    7.29735253760000E-03
 Rydberg constant [1/m]                                     1.09737315685270E+07
 Avogadro constant [1/mol]                                  6.02214179000000E+23
 Boltzmann constant [J/K]                                   1.38065040000000E-23
 Atomic mass unit [kg]                                      1.66053878200000E-27
 Bohr radius [m]                                            5.29177208590000E-11

 *** Conversion factors ***

 [u] -> [a.u.]                                              1.82288848426455E+03
 [Angstrom] -> [Bohr] = [a.u.]                              1.88972613288564E+00
 [a.u.] = [Bohr] -> [Angstrom]                              5.29177208590000E-01
 [a.u.] -> [s]                                              2.41888432650478E-17
 [a.u.] -> [fs]                                             2.41888432650478E-02
 [a.u.] -> [J]                                              4.35974393937059E-18
 [a.u.] -> [N]                                              8.23872205491840E-08
 [a.u.] -> [K]                                              3.15774647902944E+05
 [a.u.] -> [kJ/mol]                                         2.62549961709828E+03
 [a.u.] -> [kcal/mol]                                       6.27509468713739E+02
 [a.u.] -> [Pa]                                             2.94210107994716E+13
 [a.u.] -> [bar]                                            2.94210107994716E+08
 [a.u.] -> [atm]                                            2.90362800883016E+08
 [a.u.] -> [eV]                                             2.72113838565563E+01
 [a.u.] -> [Hz]                                             6.57968392072181E+15
 [a.u.] -> [1/cm] (wave numbers)                            2.19474631370540E+05
 [a.u./Bohr**2] -> [1/cm]                                   5.14048714338585E+03
 

 CELL_TOP| Volume [angstrom^3]:                                         4160.044
 CELL_TOP| Vector a [angstrom    12.846     0.000     0.000    |a| =      12.846
 CELL_TOP| Vector b [angstrom    -6.447    11.167     0.000    |b| =      12.895
 CELL_TOP| Vector c [angstrom     0.000     0.000    29.000    |c| =      29.000
 CELL_TOP| Angle (b,c), alpha [degree]:                                   90.000
 CELL_TOP| Angle (a,c), beta  [degree]:                                   90.000
 CELL_TOP| Angle (a,b), gamma [degree]:                                  120.000
 CELL_TOP| Numerically orthorhombic:                                          NO
 
 GENERATE|  Preliminary Number of Bonds generated:                             0
 GENERATE|  Achieved consistency in connectivity generation.

 CELL| Volume [angstrom^3]:                                             4160.044
 CELL| Vector a [angstrom]:      12.846     0.000     0.000    |a| =      12.846
 CELL| Vector b [angstrom]:      -6.447    11.167     0.000    |b| =      12.895
 CELL| Vector c [angstrom]:       0.000     0.000    29.000    |c| =      29.000
 CELL| Angle (b,c), alpha [degree]:                                       90.000
 CELL| Angle (a,c), beta  [degree]:                                       90.000
 CELL| Angle (a,b), gamma [degree]:                                      120.000
 CELL| Numerically orthorhombic:                                              NO

 CELL_REF| Volume [angstrom^3]:                                         4232.876
 CELL_REF| Vector a [angstrom    12.982     0.000     0.000    |a| =      12.982
 CELL_REF| Vector b [angstrom    -6.491    11.243     0.000    |b| =      12.982
 CELL_REF| Vector c [angstrom     0.000     0.000    29.000    |c| =      29.000
 CELL_REF| Angle (b,c), alpha [degree]:                                   90.000
 CELL_REF| Angle (a,c), beta  [degree]:                                   90.000
 CELL_REF| Angle (a,b), gamma [degree]:                                  120.000
 CELL_REF| Numerically orthorhombic:                                          NO

 *******************************************************************************
 *******************************************************************************
 **                                                                           **
 **     #####                         ##              ##                      **
 **    ##   ##            ##          ##              ##                      **
 **   ##     ##                       ##            ######                    **
 **   ##     ##  ##   ##  ##   #####  ##  ##   ####   ##    #####    #####    **
 **   ##     ##  ##   ##  ##  ##      ## ##   ##      ##   ##   ##  ##   ##   **
 **   ##  ## ##  ##   ##  ##  ##      ####     ###    ##   ######   ######    **
 **    ##  ###   ##   ##  ##  ##      ## ##      ##   ##   ##       ##        **
 **     #######   #####   ##   #####  ##  ##  ####    ##    #####   ##        **
 **           ##                                                    ##        **
 **                                                                           **
 **                                                ... make the atoms dance   **
 **                                                                           **
 **            Copyright (C) by CP2K developers group (2000 - 2018)           **
 **                                                                           **
 *******************************************************************************

 DFT| Spin restricted Kohn-Sham (RKS) calculation                            RKS
 DFT| Multiplicity                                                             1
 DFT| Number of spin states                                                    1
 DFT| Charge                                                                   0
 DFT| Self-interaction correction (SIC)                                       NO
 DFT| Cutoffs: density                                              1.000000E-10
 DFT|          gradient                                             1.000000E-10
 DFT|          tau                                                  1.000000E-10
 DFT|          cutoff_smoothing_range                               0.000000E+00
 DFT| XC density smoothing                                                  NONE
 DFT| XC derivatives                                                          PW
 FUNCTIONAL| ROUTINE=NEW
 FUNCTIONAL| PBE:
 FUNCTIONAL| J.P.Perdew, K.Burke, M.Ernzerhof, Phys. Rev. Letter, vol. 77, n 18,
 FUNCTIONAL|  pp. 3865-3868, (1996){spin unpolarized}                           
 vdW POTENTIAL|                                                   Pair Potential
 vdW POTENTIAL|          DFT-D3 (Version 3.1)
 vdW POTENTIAL|          Potential Form: S. Grimme et al, JCP 132: 154104 (2010)
 vdW POTENTIAL|          Zero Damping
 vdW POTENTIAL|          Cutoff Radius [Bohr]:                             18.90
 vdW POTENTIAL|          s6 Scaling Factor:                               1.0000
 vdW POTENTIAL|          sr6 Scaling Factor:                              1.2170
 vdW POTENTIAL|          s8 Scaling Factor:                               0.7220
 vdW POTENTIAL|          Cutoff for CN calculation:                   0.1000E-05

 QS| Method:                                                                 GPW
 QS| Density plane wave grid type                        NON-SPHERICAL FULLSPACE
 QS| Number of grid levels:                                                    5
 QS| Density cutoff [a.u.]:                                                600.0
 QS| Multi grid cutoff [a.u.]: 1) grid level                               600.0
 QS|                           2) grid level                               200.0
 QS|                           3) grid level                                66.7
 QS|                           4) grid level                                22.2
 QS|                           5) grid level                                 7.4
 QS| Grid level progression factor:                                          3.0
 QS| Relative density cutoff [a.u.]:                                        20.0
 QS| Consistent realspace mapping and integration 
 QS| Interaction thresholds: eps_pgf_orb:                                1.0E-07
 QS|                         eps_filter_matrix:                          0.0E+00
 QS|                         eps_core_charge:                            1.0E-16
 QS|                         eps_rho_gspace:                             1.0E-14
 QS|                         eps_rho_rspace:                             1.0E-14
 QS|                         eps_gvg_rspace:                             1.0E-07
 QS|                         eps_ppl:                                    1.0E-02
 QS|                         eps_ppnl:                                   1.0E-09


 ATOMIC KIND INFORMATION

  1. Atomic kind: Ga                                    Number of atoms:      96

     Orbital Basis Set                                    DZVP-MOLOPT-SR-GTH-q13

       Number of orbital shell sets:                                           1
       Number of orbital shells:                                               7
       Number of primitive Cartesian functions:                                6
       Number of Cartesian basis functions:                                   30
       Number of spherical basis functions:                                   25
       Norm type:                                                              2

       Normalised Cartesian orbitals:

                        Set   Shell   Orbital            Exponent    Coefficient

                          1       1    2s                7.066654       0.013136
                                                         3.428369      -0.094392
                                                         1.430064       0.265435
                                                         0.571611       0.056465
                                                         0.232197      -0.192187
                                                         0.076562      -0.044987

                          1       2    3s                7.066654      -0.098564
                                                         3.428369       0.010390
                                                         1.430064       0.351249
                                                         0.571611       0.182615
                                                         0.232197      -0.425358
                                                         0.076562       0.190349

                          1       3    3px               7.066654       0.002364
                                                         3.428369       0.019222
                                                         1.430064       0.250132
                                                         0.571611      -0.058486
                                                         0.232197      -0.159451
                                                         0.076562      -0.020696
                          1       3    3py               7.066654       0.002364
                                                         3.428369       0.019222
                                                         1.430064       0.250132
                                                         0.571611      -0.058486
                                                         0.232197      -0.159451
                                                         0.076562      -0.020696
                          1       3    3pz               7.066654       0.002364
                                                         3.428369       0.019222
                                                         1.430064       0.250132
                                                         0.571611      -0.058486
                                                         0.232197      -0.159451
                                                         0.076562      -0.020696

                          1       4    4px               7.066654       0.492448
                                                         3.428369      -0.614736
                                                         1.430064      -0.191654
                                                         0.571611       0.037801
                                                         0.232197       0.302315
                                                         0.076562      -0.071336
                          1       4    4py               7.066654       0.492448
                                                         3.428369      -0.614736
                                                         1.430064      -0.191654
                                                         0.571611       0.037801
                                                         0.232197       0.302315
                                                         0.076562      -0.071336
                          1       4    4pz               7.066654       0.492448
                                                         3.428369      -0.614736
                                                         1.430064      -0.191654
                                                         0.571611       0.037801
                                                         0.232197       0.302315
                                                         0.076562      -0.071336

                          1       5    4dx2              7.066654     -15.264855
                                                         3.428369      -5.345726
                                                         1.430064      -1.022732
                                                         0.571611      -0.123148
                                                         0.232197      -0.006983
                                                         0.076562      -0.000022
                          1       5    4dxy              7.066654     -26.439504
                                                         3.428369      -9.259069
                                                         1.430064      -1.771423
                                                         0.571611      -0.213299
                                                         0.232197      -0.012094
                                                         0.076562      -0.000037
                          1       5    4dxz              7.066654     -26.439504
                                                         3.428369      -9.259069
                                                         1.430064      -1.771423
                                                         0.571611      -0.213299
                                                         0.232197      -0.012094
                                                         0.076562      -0.000037
                          1       5    4dy2              7.066654     -15.264855
                                                         3.428369      -5.345726
                                                         1.430064      -1.022732
                                                         0.571611      -0.123148
                                                         0.232197      -0.006983
                                                         0.076562      -0.000022
                          1       5    4dyz              7.066654     -26.439504
                                                         3.428369      -9.259069
                                                         1.430064      -1.771423
                                                         0.571611      -0.213299
                                                         0.232197      -0.012094
                                                         0.076562      -0.000037
                          1       5    4dz2              7.066654     -15.264855
                                                         3.428369      -5.345726
                                                         1.430064      -1.022732
                                                         0.571611      -0.123148
                                                         0.232197      -0.006983
                                                         0.076562      -0.000022

                          1       6    5dx2              7.066654      -5.739265
                                                         3.428369      -2.129289
                                                         1.430064      -0.700423
                                                         0.571611       0.161606
                                                         0.232197       0.043513
                                                         0.076562       0.011205
                          1       6    5dxy              7.066654      -9.940698
                                                         3.428369      -3.688037
                                                         1.430064      -1.213168
                                                         0.571611       0.279909
                                                         0.232197       0.075368
                                                         0.076562       0.019407
                          1       6    5dxz              7.066654      -9.940698
                                                         3.428369      -3.688037
                                                         1.430064      -1.213168
                                                         0.571611       0.279909
                                                         0.232197       0.075368
                                                         0.076562       0.019407
                          1       6    5dy2              7.066654      -5.739265
                                                         3.428369      -2.129289
                                                         1.430064      -0.700423
                                                         0.571611       0.161606
                                                         0.232197       0.043513
                                                         0.076562       0.011205
                          1       6    5dyz              7.066654      -9.940698
                                                         3.428369      -3.688037
                                                         1.430064      -1.213168
                                                         0.571611       0.279909
                                                         0.232197       0.075368
                                                         0.076562       0.019407
                          1       6    5dz2              7.066654      -5.739265
                                                         3.428369      -2.129289
                                                         1.430064      -0.700423
                                                         0.571611       0.161606
                                                         0.232197       0.043513
                                                         0.076562       0.011205

                          1       7    5fx3              7.066654       0.705879
                                                         3.428369      -0.273976
                                                         1.430064       0.113667
                                                         0.571611       0.132480
                                                         0.232197       0.012437
                                                         0.076562       0.003241
                          1       7    5fx2y             7.066654       1.578393
                                                         3.428369      -0.612629
                                                         1.430064       0.254167
                                                         0.571611       0.296234
                                                         0.232197       0.027811
                                                         0.076562       0.007246
                          1       7    5fx2z             7.066654       1.578393
                                                         3.428369      -0.612629
                                                         1.430064       0.254167
                                                         0.571611       0.296234
                                                         0.232197       0.027811
                                                         0.076562       0.007246
                          1       7    5fxy2             7.066654       1.578393
                                                         3.428369      -0.612629
                                                         1.430064       0.254167
                                                         0.571611       0.296234
                                                         0.232197       0.027811
                                                         0.076562       0.007246
                          1       7    5fxyz             7.066654       2.733856
                                                         3.428369      -1.061105
                                                         1.430064       0.440230
                                                         0.571611       0.513092
                                                         0.232197       0.048170
                                                         0.076562       0.012551
                          1       7    5fxz2             7.066654       1.578393
                                                         3.428369      -0.612629
                                                         1.430064       0.254167
                                                         0.571611       0.296234
                                                         0.232197       0.027811
                                                         0.076562       0.007246
                          1       7    5fy3              7.066654       0.705879
                                                         3.428369      -0.273976
                                                         1.430064       0.113667
                                                         0.571611       0.132480
                                                         0.232197       0.012437
                                                         0.076562       0.003241
                          1       7    5fy2z             7.066654       1.578393
                                                         3.428369      -0.612629
                                                         1.430064       0.254167
                                                         0.571611       0.296234
                                                         0.232197       0.027811
                                                         0.076562       0.007246
                          1       7    5fyz2             7.066654       1.578393
                                                         3.428369      -0.612629
                                                         1.430064       0.254167
                                                         0.571611       0.296234
                                                         0.232197       0.027811
                                                         0.076562       0.007246
                          1       7    5fz3              7.066654       0.705879
                                                         3.428369      -0.273976
                                                         1.430064       0.113667
                                                         0.571611       0.132480
                                                         0.232197       0.012437
                                                         0.076562       0.003241

     GTH Potential information for                                   GTH-PBE-q13

       Description:                       Goedecker-Teter-Hutter pseudopotential
                                           Goedecker et al., PRB 54, 1703 (1996)
                                          Hartwigsen et al., PRB 58, 3641 (1998)
                                                      Krack, TCA 114, 145 (2005)

       Gaussian exponent of the core charge distribution:               2.082466
       Electronic configuration (s p d ...):                           2   1  10

       Parameters of the local part of the GTH pseudopotential:

                          rloc        C1          C2          C3          C4
                        0.490000

       Parameters of the non-local part of the GTH pseudopotential:

                   l      r(l)      h(i,j,l)

                   0    0.416777   10.475690   -4.921768    0.870706
                                   -4.921768    7.770178   -2.248152
                                    0.870706   -2.248152    1.784415
                   1    0.569627    1.777985    0.195860
                                    0.195860   -0.231744
                   2    0.238126  -16.248680

  2. Atomic kind: N                                     Number of atoms:      96

     Orbital Basis Set                                     DZVP-MOLOPT-SR-GTH-q5

       Number of orbital shell sets:                                           1
       Number of orbital shells:                                               5
       Number of primitive Cartesian functions:                                5
       Number of Cartesian basis functions:                                   14
       Number of spherical basis functions:                                   13
       Norm type:                                                              2

       Normalised Cartesian orbitals:

                        Set   Shell   Orbital            Exponent    Coefficient

                          1       1    2s                7.341988       0.360561
                                                         2.542637       0.139177
                                                         0.888575      -0.289383
                                                         0.333802      -0.182244
                                                         0.112012      -0.019197

                          1       2    3s                7.341988       0.282000
                                                         2.542637       0.177875
                                                         0.888575      -0.278381
                                                         0.333802       0.008577
                                                         0.112012       0.154176

                          1       3    3px               7.341988      -1.188719
                                                         2.542637      -0.973969
                                                         0.888575      -0.501079
                                                         0.333802      -0.144894
                                                         0.112012      -0.013986
                          1       3    3py               7.341988      -1.188719
                                                         2.542637      -0.973969
                                                         0.888575      -0.501079
                                                         0.333802      -0.144894
                                                         0.112012      -0.013986
                          1       3    3pz               7.341988      -1.188719
                                                         2.542637      -0.973969
                                                         0.888575      -0.501079
                                                         0.333802      -0.144894
                                                         0.112012      -0.013986

                          1       4    4px               7.341988      -0.094798
                                                         2.542637       0.050069
                                                         0.888575      -0.114797
                                                         0.333802       0.144793
                                                         0.112012       0.066710
                          1       4    4py               7.341988      -0.094798
                                                         2.542637       0.050069
                                                         0.888575      -0.114797
                                                         0.333802       0.144793
                                                         0.112012       0.066710
                          1       4    4pz               7.341988      -0.094798
                                                         2.542637       0.050069
                                                         0.888575      -0.114797
                                                         0.333802       0.144793
                                                         0.112012       0.066710

                          1       5    4dx2              7.341988       1.354688
                                                         2.542637       0.690378
                                                         0.888575       0.855359
                                                         0.333802       0.091746
                                                         0.112012       0.001253
                          1       5    4dxy              7.341988       2.346389
                                                         2.542637       1.195770
                                                         0.888575       1.481524
                                                         0.333802       0.158910
                                                         0.112012       0.002169
                          1       5    4dxz              7.341988       2.346389
                                                         2.542637       1.195770
                                                         0.888575       1.481524
                                                         0.333802       0.158910
                                                         0.112012       0.002169
                          1       5    4dy2              7.341988       1.354688
                                                         2.542637       0.690378
                                                         0.888575       0.855359
                                                         0.333802       0.091746
                                                         0.112012       0.001253
                          1       5    4dyz              7.341988       2.346389
                                                         2.542637       1.195770
                                                         0.888575       1.481524
                                                         0.333802       0.158910
                                                         0.112012       0.002169
                          1       5    4dz2              7.341988       1.354688
                                                         2.542637       0.690378
                                                         0.888575       0.855359
                                                         0.333802       0.091746
                                                         0.112012       0.001253

     GTH Potential information for                                    GTH-PBE-q5

       Description:                       Goedecker-Teter-Hutter pseudopotential
                                           Goedecker et al., PRB 54, 1703 (1996)
                                          Hartwigsen et al., PRB 58, 3641 (1998)
                                                      Krack, TCA 114, 145 (2005)

       Gaussian exponent of the core charge distribution:               6.208322
       Electronic configuration (s p d ...):                               2   3

       Parameters of the local part of the GTH pseudopotential:

                          rloc        C1          C2          C3          C4
                        0.283791  -12.415226    1.868096

       Parameters of the non-local part of the GTH pseudopotential:

                   l      r(l)      h(i,j,l)

                   0    0.255405   13.630263
                   1    0.245495

  3. Atomic kind: H                                     Number of atoms:      20

     Orbital Basis Set                                     DZVP-MOLOPT-SR-GTH-q1

       Number of orbital shell sets:                                           1
       Number of orbital shells:                                               3
       Number of primitive Cartesian functions:                                5
       Number of Cartesian basis functions:                                    5
       Number of spherical basis functions:                                    5
       Norm type:                                                              2

       Normalised Cartesian orbitals:

                        Set   Shell   Orbital            Exponent    Coefficient

                          1       1    2s               10.068468      -0.133023
                                                         2.680223      -0.177618
                                                         0.791502      -0.258419
                                                         0.239116      -0.107525
                                                         0.082193      -0.014019

                          1       2    3s               10.068468       0.344673
                                                         2.680223       1.819821
                                                         0.791502      -0.999069
                                                         0.239116       0.017430
                                                         0.082193       0.082660

                          1       3    3px              10.068468       0.155326
                                                         2.680223       0.367157
                                                         0.791502       0.311480
                                                         0.239116       0.080105
                                                         0.082193       0.033440
                          1       3    3py              10.068468       0.155326
                                                         2.680223       0.367157
                                                         0.791502       0.311480
                                                         0.239116       0.080105
                                                         0.082193       0.033440
                          1       3    3pz              10.068468       0.155326
                                                         2.680223       0.367157
                                                         0.791502       0.311480
                                                         0.239116       0.080105
                                                         0.082193       0.033440

     GTH Potential information for                                    GTH-PBE-q1

       Description:                       Goedecker-Teter-Hutter pseudopotential
                                           Goedecker et al., PRB 54, 1703 (1996)
                                          Hartwigsen et al., PRB 58, 3641 (1998)
                                                      Krack, TCA 114, 145 (2005)

       Gaussian exponent of the core charge distribution:              12.500000
       Electronic configuration (s p d ...):                                   1

       Parameters of the local part of the GTH pseudopotential:

                          rloc        C1          C2          C3          C4
                        0.200000   -4.178900    0.724463

  4. Atomic kind: O                                     Number of atoms:       1

     Orbital Basis Set                                     DZVP-MOLOPT-SR-GTH-q6

       Number of orbital shell sets:                                           1
       Number of orbital shells:                                               5
       Number of primitive Cartesian functions:                                5
       Number of Cartesian basis functions:                                   14
       Number of spherical basis functions:                                   13
       Norm type:                                                              2

       Normalised Cartesian orbitals:

                        Set   Shell   Orbital            Exponent    Coefficient

                          1       1    2s               10.389228       0.396646
                                                         3.849621       0.208811
                                                         1.388401      -0.301641
                                                         0.496955      -0.274061
                                                         0.162492      -0.033677

                          1       2    3s               10.389228       0.303673
                                                         3.849621       0.240943
                                                         1.388401      -0.313066
                                                         0.496955      -0.043055
                                                         0.162492       0.213991

                          1       3    3px              10.389228      -1.530415
                                                         3.849621      -1.371928
                                                         1.388401      -0.761951
                                                         0.496955      -0.253695
                                                         0.162492      -0.035541
                          1       3    3py              10.389228      -1.530415
                                                         3.849621      -1.371928
                                                         1.388401      -0.761951
                                                         0.496955      -0.253695
                                                         0.162492      -0.035541
                          1       3    3pz              10.389228      -1.530415
                                                         3.849621      -1.371928
                                                         1.388401      -0.761951
                                                         0.496955      -0.253695
                                                         0.162492      -0.035541

                          1       4    4px              10.389228      -0.565392
                                                         3.849621      -0.038231
                                                         1.388401      -0.382373
                                                         0.496955       0.179070
                                                         0.162492       0.122714
                          1       4    4py              10.389228      -0.565392
                                                         3.849621      -0.038231
                                                         1.388401      -0.382373
                                                         0.496955       0.179070
                                                         0.162492       0.122714
                          1       4    4pz              10.389228      -0.565392
                                                         3.849621      -0.038231
                                                         1.388401      -0.382373
                                                         0.496955       0.179070
                                                         0.162492       0.122714

                          1       5    4dx2             10.389228       1.867377
                                                         3.849621       0.670994
                                                         1.388401       1.353441
                                                         0.496955       0.273538
                                                         0.162492       0.006620
                          1       5    4dxy             10.389228       3.234392
                                                         3.849621       1.162195
                                                         1.388401       2.344229
                                                         0.496955       0.473781
                                                         0.162492       0.011466
                          1       5    4dxz             10.389228       3.234392
                                                         3.849621       1.162195
                                                         1.388401       2.344229
                                                         0.496955       0.473781
                                                         0.162492       0.011466
                          1       5    4dy2             10.389228       1.867377
                                                         3.849621       0.670994
                                                         1.388401       1.353441
                                                         0.496955       0.273538
                                                         0.162492       0.006620
                          1       5    4dyz             10.389228       3.234392
                                                         3.849621       1.162195
                                                         1.388401       2.344229
                                                         0.496955       0.473781
                                                         0.162492       0.011466
                          1       5    4dz2             10.389228       1.867377
                                                         3.849621       0.670994
                                                         1.388401       1.353441
                                                         0.496955       0.273538
                                                         0.162492       0.006620

     GTH Potential information for                                    GTH-PBE-q6

       Description:                       Goedecker-Teter-Hutter pseudopotential
                                           Goedecker et al., PRB 54, 1703 (1996)
                                          Hartwigsen et al., PRB 58, 3641 (1998)
                                                      Krack, TCA 114, 145 (2005)

       Gaussian exponent of the core charge distribution:               8.360253
       Electronic configuration (s p d ...):                               2   4

       Parameters of the local part of the GTH pseudopotential:

                          rloc        C1          C2          C3          C4
                        0.244554  -16.667215    2.487311

       Parameters of the non-local part of the GTH pseudopotential:

                   l      r(l)      h(i,j,l)

                   0    0.220956   18.337458
                   1    0.211332

  5. Atomic kind: C                                     Number of atoms:       1

     Orbital Basis Set                                     DZVP-MOLOPT-SR-GTH-q4

       Number of orbital shell sets:                                           1
       Number of orbital shells:                                               5
       Number of primitive Cartesian functions:                                5
       Number of Cartesian basis functions:                                   14
       Number of spherical basis functions:                                   13
       Norm type:                                                              2

       Normalised Cartesian orbitals:

                        Set   Shell   Orbital            Exponent    Coefficient

                          1       1    2s                5.605331       0.322515
                                                         2.113016       0.213043
                                                         0.769911      -0.209686
                                                         0.348157      -0.219794
                                                         0.128212      -0.022789

                          1       2    3s                5.605331       0.552234
                                                         2.113016       0.082072
                                                         0.769911       0.007843
                                                         0.348157       0.136893
                                                         0.128212       0.074283

                          1       3    3px               5.605331      -0.703879
                                                         2.113016      -0.642521
                                                         0.769911      -0.374851
                                                         0.348157      -0.139743
                                                         0.128212      -0.027849
                          1       3    3py               5.605331      -0.703879
                                                         2.113016      -0.642521
                                                         0.769911      -0.374851
                                                         0.348157      -0.139743
                                                         0.128212      -0.027849
                          1       3    3pz               5.605331      -0.703879
                                                         2.113016      -0.642521
                                                         0.769911      -0.374851
                                                         0.348157      -0.139743
                                                         0.128212      -0.027849

                          1       4    4px               5.605331      -0.480376
                                                         2.113016      -0.552894
                                                         0.769911      -0.316145
                                                         0.348157       0.210505
                                                         0.128212       0.076095
                          1       4    4py               5.605331      -0.480376
                                                         2.113016      -0.552894
                                                         0.769911      -0.316145
                                                         0.348157       0.210505
                                                         0.128212       0.076095
                          1       4    4pz               5.605331      -0.480376
                                                         2.113016      -0.552894
                                                         0.769911      -0.316145
                                                         0.348157       0.210505
                                                         0.128212       0.076095

                          1       5    4dx2              5.605331       0.640026
                                                         2.113016       0.274300
                                                         0.769911       0.446711
                                                         0.348157       0.028674
                                                         0.128212       0.029790
                          1       5    4dxy              5.605331       1.108557
                                                         2.113016       0.475102
                                                         0.769911       0.773726
                                                         0.348157       0.049666
                                                         0.128212       0.051599
                          1       5    4dxz              5.605331       1.108557
                                                         2.113016       0.475102
                                                         0.769911       0.773726
                                                         0.348157       0.049666
                                                         0.128212       0.051599
                          1       5    4dy2              5.605331       0.640026
                                                         2.113016       0.274300
                                                         0.769911       0.446711
                                                         0.348157       0.028674
                                                         0.128212       0.029790
                          1       5    4dyz              5.605331       1.108557
                                                         2.113016       0.475102
                                                         0.769911       0.773726
                                                         0.348157       0.049666
                                                         0.128212       0.051599
                          1       5    4dz2              5.605331       0.640026
                                                         2.113016       0.274300
                                                         0.769911       0.446711
                                                         0.348157       0.028674
                                                         0.128212       0.029790

     GTH Potential information for                                    GTH-PBE-q4

       Description:                       Goedecker-Teter-Hutter pseudopotential
                                           Goedecker et al., PRB 54, 1703 (1996)
                                          Hartwigsen et al., PRB 58, 3641 (1998)
                                                      Krack, TCA 114, 145 (2005)

       Gaussian exponent of the core charge distribution:               4.364419
       Electronic configuration (s p d ...):                               2   2

       Parameters of the local part of the GTH pseudopotential:

                          rloc        C1          C2          C3          C4
                        0.338471   -8.803674    1.339211

       Parameters of the non-local part of the GTH pseudopotential:

                   l      r(l)      h(i,j,l)

                   0    0.302576    9.622487
                   1    0.291507


 MOLECULE KIND INFORMATION


 All atoms are their own molecule, skipping detailed information


 TOTAL NUMBERS AND MAXIMUM NUMBERS

  Total number of            - Atomic kinds:                                   5
                             - Atoms:                                        214
                             - Shell sets:                                   214
                             - Shells:                                      1222
                             - Primitive Cartesian functions:               1166
                             - Cartesian basis functions:                   4352
                             - Spherical basis functions:                   3774

  Maximum angular momentum of- Orbital basis functions:                        3
                             - Local part of the GTH pseudopotential:          2
                             - Non-local part of the GTH pseudopotential:      4


 MODULE QUICKSTEP:  ATOMIC COORDINATES IN angstrom

  Atom  Kind  Element       X           Y           Z          Z(eff)       Mass

       1     1 Ga  31    0.041162   -0.024895   -0.199246     13.00      69.7230
       2     2 N    7    0.034634    1.834771    0.584590      5.00      14.0067
       3     1 Ga  31    0.034950    1.837934    2.520413     13.00      69.7230
       4     2 N    7    0.041245   -0.020703    3.209819      5.00      14.0067
       5     1 Ga  31    0.038045   -0.021788    5.171617     13.00      69.7230
       6     2 N    7    0.028177    1.836926    5.829866      5.00      14.0067
       7     1 Ga  31    0.027130    1.838294    7.800007     13.00      69.7230
       8     2 N    7    0.039340   -0.015939    8.461109      5.00      14.0067
       9     1 Ga  31    0.042476   -0.015166   10.453216     13.00      69.7230
      10     2 N    7    0.034649    1.844895   11.055362      5.00      14.0067
      11     1 Ga  31   -0.013857    1.830500   13.126366     13.00      69.7230
      12     2 N    7    0.020930   -0.021667   13.513396      5.00      14.0067
      13     1 Ga  31   -1.570983    2.767251   -0.200943     13.00      69.7230
      14     2 N    7   -1.576149    4.626463    0.584626      5.00      14.0067
      15     1 Ga  31   -1.575466    4.630253    2.521337     13.00      69.7230
      16     2 N    7   -1.572702    2.770993    3.209120      5.00      14.0067
      17     1 Ga  31   -1.577198    2.771929    5.171417     13.00      69.7230
      18     2 N    7   -1.579881    4.627918    5.832121      5.00      14.0067
      19     1 Ga  31   -1.580394    4.635148    7.803587     13.00      69.7230
      20     2 N    7   -1.572390    2.777695    8.460974      5.00      14.0067
      21     1 Ga  31   -1.568000    2.780373   10.454368     13.00      69.7230
      22     2 N    7   -1.569415    4.637762   11.063899      5.00      14.0067
      23     1 Ga  31   -1.631050    4.600651   13.149123     13.00      69.7230
      24     2 N    7   -1.597701    2.764413   13.576112      5.00      14.0067
      25     1 Ga  31   -3.182486    5.559226   -0.199894     13.00      69.7230
      26     2 N    7   -3.187881    7.417308    0.587534      5.00      14.0067
      27     1 Ga  31   -3.186744    7.420392    2.524216     13.00      69.7230
      28     2 N    7   -3.182171    5.561972    3.213203      5.00      14.0067
      29     1 Ga  31   -3.185148    5.562345    5.177046     13.00      69.7230
      30     2 N    7   -3.189636    7.420238    5.840997      5.00      14.0067
      31     1 Ga  31   -3.185613    7.424810    7.814455     13.00      69.7230
      32     2 N    7   -3.179774    5.566245    8.463491      5.00      14.0067
      33     1 Ga  31   -3.180244    5.567903   10.454105     13.00      69.7230
      34     2 N    7   -3.195379    7.419935   11.058384      5.00      14.0067
      35     1 Ga  31   -3.218179    7.403841   13.139595     13.00      69.7230
      36     2 N    7   -3.208247    5.560379   13.569541      5.00      14.0067
      37     1 Ga  31   -4.794117    8.350438   -0.198306     13.00      69.7230
      38     2 N    7   -4.800498   10.209017    0.587074      5.00      14.0067
      39     1 Ga  31   -4.799253   10.211522    2.523003     13.00      69.7230
      40     2 N    7   -4.793117    8.353389    3.215030      5.00      14.0067
      41     1 Ga  31   -4.796044    8.352758    5.179582     13.00      69.7230
      42     2 N    7   -4.803225   10.214345    5.837478      5.00      14.0067
      43     1 Ga  31   -4.800144   10.218623    7.810729     13.00      69.7230
      44     2 N    7   -4.794300    8.360090    8.454422      5.00      14.0067
      45     1 Ga  31   -4.791558    8.354641   10.441732     13.00      69.7230
      46     2 N    7   -4.810739   10.209176   11.049766      5.00      14.0067
      47     1 Ga  31   -4.830124   10.196730   13.121156     13.00      69.7230
      48     2 N    7   -4.819203    8.345693   13.512397      5.00      14.0067
      49     1 Ga  31    3.252551   -0.024909   -0.197434     13.00      69.7230
      50     2 N    7    3.246312    1.834323    0.586118      5.00      14.0067
      51     1 Ga  31    3.246692    1.836520    2.522943     13.00      69.7230
      52     2 N    7    3.253512   -0.022957    3.211353      5.00      14.0067
      53     1 Ga  31    3.252467   -0.024005    5.175081     13.00      69.7230
      54     2 N    7    3.245362    1.835011    5.830671      5.00      14.0067
      55     1 Ga  31    3.248261    1.833085    7.801730     13.00      69.7230
      56     2 N    7    3.251760   -0.016162    8.466171      5.00      14.0067
      57     1 Ga  31    3.250714   -0.015773   10.460494     13.00      69.7230
      58     2 N    7    3.221247    1.842639   11.061262      5.00      14.0067
      59     1 Ga  31    3.218864    1.824417   13.135696     13.00      69.7230
      60     2 N    7    3.228258   -0.026676   13.513258      5.00      14.0067
      61     1 Ga  31    1.640895    2.767333   -0.200279     13.00      69.7230
      62     2 N    7    1.635856    4.625949    0.585859      5.00      14.0067
      63     1 Ga  31    1.636402    4.628739    2.522605     13.00      69.7230
      64     2 N    7    1.639742    2.769502    3.210170      5.00      14.0067
      65     1 Ga  31    1.638467    2.770281    5.174118     13.00      69.7230
      66     2 N    7    1.633026    4.627764    5.830019      5.00      14.0067
      67     1 Ga  31    1.634595    4.631767    7.804198     13.00      69.7230
      68     2 N    7    1.637029    2.763728    8.427906      5.00      14.0067
      69     1 Ga  31    1.636336    2.766332   10.404492     13.00      69.7230
      70     2 N    7    1.646064    4.626499   10.955508      5.00      14.0067
      71     1 Ga  31    1.649465    4.610918   12.925110     13.00      69.7230
      72     2 N    7    1.607323    2.789956   13.534190      5.00      14.0067
      73     1 Ga  31    0.030278    5.559402   -0.200986     13.00      69.7230
      74     2 N    7    0.024128    7.417276    0.586276      5.00      14.0067
      75     1 Ga  31    0.025050    7.420138    2.523403     13.00      69.7230
      76     2 N    7    0.029846    5.561415    3.210792      5.00      14.0067
      77     1 Ga  31    0.027383    5.561990    5.175239     13.00      69.7230
      78     2 N    7    0.020439    7.420502    5.835172      5.00      14.0067
      79     1 Ga  31    0.019169    7.428253    7.808232     13.00      69.7230
      80     2 N    7    0.023933    5.567734    8.437172      5.00      14.0067
      81     1 Ga  31    0.032798    5.562209   10.416219     13.00      69.7230
      82     2 N    7    0.020518    7.410732   11.051011      5.00      14.0067
      83     1 Ga  31    0.003026    7.424160   13.127117     13.00      69.7230
      84     2 N    7    0.033738    5.539328   13.415059      5.00      14.0067
      85     1 Ga  31   -1.582574    8.350943   -0.198397     13.00      69.7230
      86     2 N    7   -1.588365   10.209168    0.587562      5.00      14.0067
      87     1 Ga  31   -1.587068   10.211364    2.524294     13.00      69.7230
      88     2 N    7   -1.581843    8.353033    3.213767      5.00      14.0067
      89     1 Ga  31   -1.583808    8.353566    5.178383     13.00      69.7230
      90     2 N    7   -1.591330   10.211312    5.841954      5.00      14.0067
      91     1 Ga  31   -1.589266   10.215917    7.817411     13.00      69.7230
      92     2 N    7   -1.582448    8.360364    8.467675      5.00      14.0067
      93     1 Ga  31   -1.587187    8.355385   10.461388     13.00      69.7230
      94     2 N    7   -1.596802   10.209422   11.060706      5.00      14.0067
      95     1 Ga  31   -1.619801   10.198509   13.135634     13.00      69.7230
      96     2 N    7   -1.601405    8.343682   13.502804      5.00      14.0067
      97     1 Ga  31    6.464018   -0.024456   -0.198272     13.00      69.7230
      98     2 N    7    6.457980    1.833802    0.587430      5.00      14.0067
      99     1 Ga  31    6.457967    1.836161    2.524839     13.00      69.7230
     100     2 N    7    6.463530   -0.022085    3.216411      5.00      14.0067
     101     1 Ga  31    6.461390   -0.023105    5.182185     13.00      69.7230
     102     2 N    7    6.455936    1.837563    5.839972      5.00      14.0067
     103     1 Ga  31    6.453264    1.837847    7.814656     13.00      69.7230
     104     2 N    7    6.463542   -0.016921    8.466569      5.00      14.0067
     105     1 Ga  31    6.459142   -0.017188   10.456435     13.00      69.7230
     106     2 N    7    6.447294    1.844928   11.049130      5.00      14.0067
     107     1 Ga  31    6.412322    1.837020   13.121506     13.00      69.7230
     108     2 N    7    6.446549   -0.018563   13.477779      5.00      14.0067
     109     1 Ga  31    4.852260    2.767071   -0.198375     13.00      69.7230
     110     2 N    7    4.847463    4.625899    0.586881      5.00      14.0067
     111     1 Ga  31    4.847761    4.628397    2.523680     13.00      69.7230
     112     2 N    7    4.851709    2.769723    3.210851      5.00      14.0067
     113     1 Ga  31    4.851396    2.768609    5.174558     13.00      69.7230
     114     2 N    7    4.848452    4.626245    5.832734      5.00      14.0067
     115     1 Ga  31    4.849199    4.626006    7.805257     13.00      69.7230
     116     2 N    7    4.847999    2.770703    8.465749      5.00      14.0067
     117     1 Ga  31    4.837237    2.779247   10.461297     13.00      69.7230
     118     2 N    7    4.830064    4.629855   11.083513      5.00      14.0067
     119     1 Ga  31    4.755359    4.628414   13.186002     13.00      69.7230
     120     2 N    7    4.818772    2.766846   13.537348      5.00      14.0067
     121     1 Ga  31    3.241479    5.559521   -0.198258     13.00      69.7230
     122     2 N    7    3.235609    7.417643    0.588603      5.00      14.0067
     123     1 Ga  31    3.236223    7.420400    2.525315     13.00      69.7230
     124     2 N    7    3.241956    5.560651    3.211569      5.00      14.0067
     125     1 Ga  31    3.240481    5.560281    5.176339     13.00      69.7230
     126     2 N    7    3.232549    7.421193    5.828422      5.00      14.0067
     127     1 Ga  31    3.231018    7.424882    7.798418     13.00      69.7230
     128     2 N    7    3.248159    5.567620    8.429043      5.00      14.0067
     129     1 Ga  31    3.251295    5.564132   10.405241     13.00      69.7230
     130     2 N    7    3.236664    7.404482   11.050955      5.00      14.0067
     131     1 Ga  31    3.203421    7.370048   13.114512     13.00      69.7230
     132     2 N    7    3.160140    5.548047   13.693535      5.00      14.0067
     133     1 Ga  31    1.630107    8.351390   -0.197566     13.00      69.7230
     134     2 N    7    1.622451   10.210089    0.587356      5.00      14.0067
     135     1 Ga  31    1.622463   10.212715    2.524628     13.00      69.7230
     136     2 N    7    1.628855    8.354164    3.212114      5.00      14.0067
     137     1 Ga  31    1.625587    8.354343    5.176400     13.00      69.7230
     138     2 N    7    1.621918   10.212278    5.841323      5.00      14.0067
     139     1 Ga  31    1.618974   10.214826    7.815551     13.00      69.7230
     140     2 N    7    1.627184    8.354556    8.459770      5.00      14.0067
     141     1 Ga  31    1.633326    8.345890   10.450203     13.00      69.7230
     142     2 N    7    1.621385   10.206212   11.044580      5.00      14.0067
     143     1 Ga  31    1.603038   10.209347   13.104496     13.00      69.7230
     144     2 N    7    1.617083    8.353627   13.471447      5.00      14.0067
     145     1 Ga  31    9.675477   -0.024417   -0.199365     13.00      69.7230
     146     2 N    7    9.668147    1.834550    0.585483      5.00      14.0067
     147     1 Ga  31    9.667743    1.837701    2.522057     13.00      69.7230
     148     2 N    7    9.674182   -0.020143    3.213360      5.00      14.0067
     149     1 Ga  31    9.670704   -0.020588    5.177410     13.00      69.7230
     150     2 N    7    9.667460    1.838682    5.838810      5.00      14.0067
     151     1 Ga  31    9.667068    1.840968    7.812727     13.00      69.7230
     152     2 N    7    9.676098   -0.015817    8.462169      5.00      14.0067
     153     1 Ga  31    9.673872   -0.017167   10.452456     13.00      69.7230
     154     2 N    7    9.669357    1.844501   11.043436      5.00      14.0067
     155     1 Ga  31    9.647336    1.839428   13.120514     13.00      69.7230
     156     2 N    7    9.662726   -0.018638   13.473703      5.00      14.0067
     157     1 Ga  31    8.062831    2.767019   -0.199821     13.00      69.7230
     158     2 N    7    8.058129    4.625476    0.586583      5.00      14.0067
     159     1 Ga  31    8.058897    4.628473    2.523547     13.00      69.7230
     160     2 N    7    8.062328    2.770725    3.215255      5.00      14.0067
     161     1 Ga  31    8.059863    2.770843    5.180139     13.00      69.7230
     162     2 N    7    8.057054    4.630095    5.843263      5.00      14.0067
     163     1 Ga  31    8.057894    4.633364    7.818510     13.00      69.7230
     164     2 N    7    8.060895    2.770638    8.458648      5.00      14.0067
     165     1 Ga  31    8.057025    2.774633   10.449721     13.00      69.7230
     166     2 N    7    8.069903    4.628031   11.043831      5.00      14.0067
     167     1 Ga  31    8.033021    4.629546   13.117906     13.00      69.7230
     168     2 N    7    8.036365    2.772450   13.487012      5.00      14.0067
     169     1 Ga  31    6.452434    5.559125   -0.198910     13.00      69.7230
     170     2 N    7    6.447032    7.417252    0.587883      5.00      14.0067
     171     1 Ga  31    6.447944    7.420384    2.524047     13.00      69.7230
     172     2 N    7    6.453178    5.561708    3.213480      5.00      14.0067
     173     1 Ga  31    6.451676    5.559953    5.177304     13.00      69.7230
     174     2 N    7    6.443641    7.418729    5.841363      5.00      14.0067
     175     1 Ga  31    6.443309    7.419332    7.815952     13.00      69.7230
     176     2 N    7    6.449921    5.558390    8.469702      5.00      14.0067
     177     1 Ga  31    6.442153    5.549203   10.467809     13.00      69.7230
     178     2 N    7    6.444261    7.422409   11.024853      5.00      14.0067
     179     1 Ga  31    6.418931    7.415189   13.084393     13.00      69.7230
     180     2 N    7    6.410522    5.558411   13.439330      5.00      14.0067
     181     1 Ga  31    4.840788    8.350955   -0.197424     13.00      69.7230
     182     2 N    7    4.833329   10.209920    0.586982      5.00      14.0067
     183     1 Ga  31    4.833780   10.213186    2.522832     13.00      69.7230
     184     2 N    7    4.841907    8.354251    3.212181      5.00      14.0067
     185     1 Ga  31    4.838051    8.353574    5.175363     13.00      69.7230
     186     2 N    7    4.832438   10.213947    5.835336      5.00      14.0067
     187     1 Ga  31    4.831036   10.217116    7.806787     13.00      69.7230
     188     2 N    7    4.834736    8.361054    8.451996      5.00      14.0067
     189     1 Ga  31    4.830908    8.348978   10.439674     13.00      69.7230
     190     2 N    7    4.834878   10.205718   11.045999      5.00      14.0067
     191     1 Ga  31    4.812831   10.192862   13.121379     13.00      69.7230
     192     2 N    7    4.813960    8.335672   13.483851      5.00      14.0067
     193     3 H    1    4.840588    8.353423   -1.750329      1.00       1.0079
     194     3 H    1    1.633230    8.350603   -1.750582      1.00       1.0079
     195     3 H    1   -1.583122    8.352054   -1.751268      1.00       1.0079
     196     3 H    1   -4.794277    8.353392   -1.751050      1.00       1.0079
     197     3 H    1    6.453501    5.565055   -1.751836      1.00       1.0079
     198     3 H    1    3.242054    5.564754   -1.751178      1.00       1.0079
     199     3 H    1    0.031272    5.560177   -1.754196      1.00       1.0079
     200     3 H    1   -3.182269    5.562184   -1.753054      1.00       1.0079
     201     3 H    1    8.066392    2.769440   -1.752939      1.00       1.0079
     202     3 H    1    4.854598    2.771210   -1.751462      1.00       1.0079
     203     3 H    1    1.641196    2.769750   -1.753069      1.00       1.0079
     204     3 H    1   -1.568204    2.766500   -1.753864      1.00       1.0079
     205     3 H    1    0.041044   -0.026588   -1.752089      1.00       1.0079
     206     3 H    1    3.250997   -0.023629   -1.750170      1.00       1.0079
     207     3 H    1    6.465877   -0.023238   -1.751136      1.00       1.0079
     208     3 H    1    9.681403   -0.025503   -1.752314      1.00       1.0079
     209     4 O    8    1.416633    5.536628   15.679491      6.00      15.9994
     210     3 H    1    2.276364    5.581591   15.077396      1.00       1.0079
     211     5 C    6    1.281210    4.240901   16.202518      4.00      12.0107
     212     3 H    1    0.258837    4.123251   16.587799      1.00       1.0079
     213     3 H    1    1.478642    3.447175   15.403315      1.00       1.0079
     214     3 H    1    2.030187    4.050806   16.996434      1.00       1.0079




 SCF PARAMETERS         Density guess:                                    ATOMIC
                        --------------------------------------------------------
                        max_scf:                                             100
                        max_scf_history:                                       0
                        max_diis:                                              4
                        --------------------------------------------------------
                        eps_scf:                                        5.00E-06
                        eps_scf_history:                                0.00E+00
                        eps_diis:                                       1.00E-01
                        eps_eigval:                                     1.00E-05
                        --------------------------------------------------------
                        level_shift [a.u.]:                                 0.00
                        --------------------------------------------------------
                        Outer loop SCF in use 
                        No variables optimised in outer loop
                        eps_scf                                         5.00E-06
                        max_scf                                                4
                        No outer loop optimization
                        step_size                                       5.00E-01

 PW_GRID| Information for grid number                                          1
 PW_GRID| Grid distributed over                                    80 processors
 PW_GRID| Real space group dimensions                                    80    1
 PW_GRID| the grid is blocked:                                                NO
 PW_GRID| Cutoff [a.u.]                                                    600.0
 PW_GRID| spherical cutoff:                                                   NO
 PW_GRID|   Bounds   1           -144     143                Points:         288
 PW_GRID|   Bounds   2           -144     143                Points:         288
 PW_GRID|   Bounds   3           -312     312                Points:         625
 PW_GRID| Volume element (a.u.^3)  0.5510E-03     Volume (a.u.^3)     28564.8611
 PW_GRID| Grid span                                                    FULLSPACE
 PW_GRID|   Distribution                         Average         Max         Min
 PW_GRID|   G-Vectors                           648000.0      648000      648000
 PW_GRID|   G-Rays                                2250.0        2250        2250
 PW_GRID|   Real Space Points                   648000.0      720000      540000

 PW_GRID| Information for grid number                                          2
 PW_GRID| Grid distributed over                                    80 processors
 PW_GRID| Real space group dimensions                                    80    1
 PW_GRID| the grid is blocked:                                                NO
 PW_GRID| Cutoff [a.u.]                                                    200.0
 PW_GRID| spherical cutoff:                                                   NO
 PW_GRID|   Bounds   1            -80      79                Points:         160
 PW_GRID|   Bounds   2            -80      79                Points:         160
 PW_GRID|   Bounds   3           -180     179                Points:         360
 PW_GRID| Volume element (a.u.^3)  0.3099E-02     Volume (a.u.^3)     28564.8611
 PW_GRID| Grid span                                                    FULLSPACE
 PW_GRID|   Distribution                         Average         Max         Min
 PW_GRID|   G-Vectors                           115200.0      115360      115040
 PW_GRID|   G-Rays                                 720.0         721         719
 PW_GRID|   Real Space Points                   115200.0      115200      115200

 PW_GRID| Information for grid number                                          3
 PW_GRID| Grid distributed over                                    80 processors
 PW_GRID| Real space group dimensions                                    80    1
 PW_GRID| the grid is blocked:                                                NO
 PW_GRID| Cutoff [a.u.]                                                     66.7
 PW_GRID| spherical cutoff:                                                   NO
 PW_GRID|   Bounds   1            -48      47                Points:          96
 PW_GRID|   Bounds   2            -48      47                Points:          96
 PW_GRID|   Bounds   3           -108     107                Points:         216
 PW_GRID| Volume element (a.u.^3)  0.1435E-01     Volume (a.u.^3)     28564.8611
 PW_GRID| Grid span                                                    FULLSPACE
 PW_GRID|   Distribution                         Average         Max         Min
 PW_GRID|   G-Vectors                            24883.2       25728       23616
 PW_GRID|   G-Rays                                 259.2         268         246
[...]
     32       N      2       5.000          4.121                         0.879
     33       Ga     1      13.000         13.912                        -0.912
     34       N      2       5.000          4.115                         0.885
     35       Ga     1      13.000         14.017                        -1.017
     36       N      2       5.000          4.175                         0.825
     37       Ga     1      13.000         14.235                        -1.235
     38       N      2       5.000          4.130                         0.870
     39       Ga     1      13.000         13.895                        -0.895
     40       N      2       5.000          4.121                         0.879
     41       Ga     1      13.000         13.885                        -0.885
     42       N      2       5.000          4.121                         0.879
     43       Ga     1      13.000         13.887                        -0.887
     44       N      2       5.000          4.121                         0.879
     45       Ga     1      13.000         13.914                        -0.914
     46       N      2       5.000          4.125                         0.875
     47       Ga     1      13.000         14.018                        -1.018
     48       N      2       5.000          4.173                         0.827
     49       Ga     1      13.000         14.235                        -1.235
     50       N      2       5.000          4.130                         0.870
     51       Ga     1      13.000         13.896                        -0.896
     52       N      2       5.000          4.121                         0.879
     53       Ga     1      13.000         13.888                        -0.888
     54       N      2       5.000          4.121                         0.879
     55       Ga     1      13.000         13.883                        -0.883
     56       N      2       5.000          4.123                         0.877
     57       Ga     1      13.000         13.905                        -0.905
     58       N      2       5.000          4.111                         0.889
     59       Ga     1      13.000         14.101                        -1.101
     60       N      2       5.000          4.186                         0.814
     61       Ga     1      13.000         14.235                        -1.235
     62       N      2       5.000          4.130                         0.870
     63       Ga     1      13.000         13.895                        -0.895
     64       N      2       5.000          4.121                         0.879
     65       Ga     1      13.000         13.885                        -0.885
     66       N      2       5.000          4.120                         0.880
     67       Ga     1      13.000         13.884                        -0.884
     68       N      2       5.000          4.117                         0.883
     69       Ga     1      13.000         13.905                        -0.905
     70       N      2       5.000          4.110                         0.890
     71       Ga     1      13.000         14.112                        -1.112
     72       N      2       5.000          4.476                         0.524
     73       Ga     1      13.000         14.234                        -1.234
     74       N      2       5.000          4.130                         0.870
     75       Ga     1      13.000         13.895                        -0.895
     76       N      2       5.000          4.121                         0.879
     77       Ga     1      13.000         13.886                        -0.886
     78       N      2       5.000          4.121                         0.879
     79       Ga     1      13.000         13.885                        -0.885
     80       N      2       5.000          4.122                         0.878
     81       Ga     1      13.000         13.898                        -0.898
     82       N      2       5.000          4.121                         0.879
     83       Ga     1      13.000         14.020                        -1.020
     84       N      2       5.000          4.184                         0.816
     85       Ga     1      13.000         14.235                        -1.235
     86       N      2       5.000          4.130                         0.870
     87       Ga     1      13.000         13.895                        -0.895
     88       N      2       5.000          4.121                         0.879
     89       Ga     1      13.000         13.885                        -0.885
     90       N      2       5.000          4.121                         0.879
     91       Ga     1      13.000         13.888                        -0.888
     92       N      2       5.000          4.122                         0.878
     93       Ga     1      13.000         13.911                        -0.911
     94       N      2       5.000          4.114                         0.886
     95       Ga     1      13.000         14.013                        -1.013
     96       N      2       5.000          4.174                         0.826
     97       Ga     1      13.000         14.235                        -1.235
     98       N      2       5.000          4.130                         0.870
     99       Ga     1      13.000         13.895                        -0.895
    100       N      2       5.000          4.121                         0.879
    101       Ga     1      13.000         13.885                        -0.885
    102       N      2       5.000          4.119                         0.881
    103       Ga     1      13.000         13.890                        -0.890
    104       N      2       5.000          4.119                         0.881
    105       Ga     1      13.000         13.914                        -0.914
    106       N      2       5.000          4.119                         0.881
    107       Ga     1      13.000         14.040                        -1.040
    108       N      2       5.000          4.183                         0.817
    109       Ga     1      13.000         14.235                        -1.235
    110       N      2       5.000          4.130                         0.870
    111       Ga     1      13.000         13.894                        -0.894
    112       N      2       5.000          4.120                         0.880
    113       Ga     1      13.000         13.885                        -0.885
    114       N      2       5.000          4.120                         0.880
    115       Ga     1      13.000         13.884                        -0.884
    116       N      2       5.000          4.119                         0.881
    117       Ga     1      13.000         13.903                        -0.903
    118       N      2       5.000          4.110                         0.890
    119       Ga     1      13.000         14.127                        -1.127
    120       N      2       5.000          4.239                         0.761
    121       Ga     1      13.000         14.235                        -1.235
    122       N      2       5.000          4.130                         0.870
    123       Ga     1      13.000         13.895                        -0.895
    124       N      2       5.000          4.121                         0.879
    125       Ga     1      13.000         13.884                        -0.884
    126       N      2       5.000          4.120                         0.880
    127       Ga     1      13.000         13.885                        -0.885
    128       N      2       5.000          4.116                         0.884
    129       Ga     1      13.000         13.904                        -0.904
    130       N      2       5.000          4.113                         0.887
    131       Ga     1      13.000         14.066                        -1.066
    132       N      2       5.000          4.465                         0.535
    133       Ga     1      13.000         14.235                        -1.235
    134       N      2       5.000          4.130                         0.870
    135       Ga     1      13.000         13.895                        -0.895
    136       N      2       5.000          4.120                         0.880
    137       Ga     1      13.000         13.885                        -0.885
    138       N      2       5.000          4.120                         0.880
    139       Ga     1      13.000         13.887                        -0.887
    140       N      2       5.000          4.121                         0.879
    141       Ga     1      13.000         13.898                        -0.898
    142       N      2       5.000          4.108                         0.892
    143       Ga     1      13.000         14.023                        -1.023
    144       N      2       5.000          4.175                         0.825
    145       Ga     1      13.000         14.235                        -1.235
    146       N      2       5.000          4.130                         0.870
    147       Ga     1      13.000         13.893                        -0.893
    148       N      2       5.000          4.121                         0.879
    149       Ga     1      13.000         13.883                        -0.883
    150       N      2       5.000          4.119                         0.881
    151       Ga     1      13.000         13.887                        -0.887
    152       N      2       5.000          4.117                         0.883
    153       Ga     1      13.000         13.916                        -0.916
    154       N      2       5.000          4.110                         0.890
    155       Ga     1      13.000         14.018                        -1.018
    156       N      2       5.000          4.177                         0.823
    157       Ga     1      13.000         14.234                        -1.234
    158       N      2       5.000          4.130                         0.870
    159       Ga     1      13.000         13.895                        -0.895
    160       N      2       5.000          4.120                         0.880
    161       Ga     1      13.000         13.886                        -0.886
    162       N      2       5.000          4.122                         0.878
    163       Ga     1      13.000         13.881                        -0.881
    164       N      2       5.000          4.122                         0.878
    165       Ga     1      13.000         13.908                        -0.908
    166       N      2       5.000          4.113                         0.887
    167       Ga     1      13.000         14.021                        -1.021
    168       N      2       5.000          4.170                         0.830
    169       Ga     1      13.000         14.235                        -1.235
    170       N      2       5.000          4.130                         0.870
    171       Ga     1      13.000         13.894                        -0.894
    172       N      2       5.000          4.121                         0.879
    173       Ga     1      13.000         13.885                        -0.885
    174       N      2       5.000          4.121                         0.879
    175       Ga     1      13.000         13.884                        -0.884
    176       N      2       5.000          4.121                         0.879
    177       Ga     1      13.000         13.906                        -0.906
    178       N      2       5.000          4.116                         0.884
    179       Ga     1      13.000         14.028                        -1.028
    180       N      2       5.000          4.188                         0.812
    181       Ga     1      13.000         14.235                        -1.235
    182       N      2       5.000          4.130                         0.870
    183       Ga     1      13.000         13.893                        -0.893
    184       N      2       5.000          4.121                         0.879
    185       Ga     1      13.000         13.884                        -0.884
    186       N      2       5.000          4.120                         0.880
    187       Ga     1      13.000         13.886                        -0.886
    188       N      2       5.000          4.121                         0.879
    189       Ga     1      13.000         13.901                        -0.901
    190       N      2       5.000          4.114                         0.886
    191       Ga     1      13.000         14.017                        -1.017
    192       N      2       5.000          4.176                         0.824
    193       H      3       1.000          0.401                         0.599
    194       H      3       1.000          0.401                         0.599
    195       H      3       1.000          0.401                         0.599
    196       H      3       1.000          0.401                         0.599
    197       H      3       1.000          0.401                         0.599
    198       H      3       1.000          0.401                         0.599
    199       H      3       1.000          0.401                         0.599
    200       H      3       1.000          0.401                         0.599
    201       H      3       1.000          0.401                         0.599
    202       H      3       1.000          0.401                         0.599
    203       H      3       1.000          0.401                         0.599
    204       H      3       1.000          0.401                         0.599
    205       H      3       1.000          0.401                         0.599
    206       H      3       1.000          0.401                         0.599
    207       H      3       1.000          0.401                         0.599
    208       H      3       1.000          0.401                         0.599
    209       O      4       6.000          6.403                        -0.403
    210       H      3       1.000          0.457                         0.543
    211       C      5       4.000          4.360                        -0.360
    212       H      3       1.000          0.556                         0.444
    213       H      3       1.000          0.464                         0.536
    214       H      3       1.000          0.542                         0.458

  Total Charge                                                            0.002
 !-----------------------------------------------------------------------------!

 ENERGY| Total FORCE_EVAL ( QS ) energy (a.u.):            -8151.583824844132323


 --------  Informations at step =   151 ------------
  Optimization Method        =                 BFGS
  Total Energy               =     -8151.5838248441
  Real energy change         =        -0.0002343595
  Predicted change in energy =        -0.0003828844
  Scaling factor             =         0.8282930839
  Step size                  =         0.4051968999
  Trust radius               =         0.4724315332
  Decrease in energy         =                  YES
  Used time                  =              227.837

  Convergence check :
  Max. step size             =         0.4051968999
  Conv. limit for step size  =         0.0030000000
  Convergence in step size   =                   NO
  RMS step size              =         0.0301094878
  Conv. limit for RMS step   =         0.0015000000
  Convergence in RMS step    =                   NO
  Max. gradient              =         0.0088025139
  Conv. limit for gradients  =         0.0004500000
  Conv. for gradients        =                   NO
  RMS gradient               =         0.0006419579
  Conv. limit for RMS grad.  =         0.0003000000
  Conv. for gradients        =                   NO
 ---------------------------------------------------

 --------------------------
 OPTIMIZATION STEP:    152
 --------------------------

 Number of electrons:                                                       1758
 Number of occupied orbitals:                                                879
 Number of molecular orbitals:                                               879

 Number of orbital functions:                                               3774
 Number of independent orbital functions:                                   3774

 Parameters for the always stable predictor-corrector (ASPC) method:

  ASPC order: 3

  B(1) =   3.000000
  B(2) =  -3.428571
  B(3) =   1.928571
  B(4) =  -0.571429
  B(5) =   0.071429

 Extrapolation method: ASPC


 SCF WAVEFUNCTION OPTIMIZATION

  ----------------------------------- OT ---------------------------------------
  Minimizer      : CG                  : conjugate gradient
  Preconditioner : FULL_ALL            : diagonalization, state selective
  Precond_solver : DEFAULT
  Line search    : 2PNT                : 2 energies, one gradient
  stepsize       :    0.15000000                  energy_gap     :    0.08000000
  eps_taylor     :   0.10000E-15                  max_taylor     :             4
  ----------------------------------- OT ---------------------------------------

  Step     Update method      Time    Convergence         Total energy    Change
  ------------------------------------------------------------------------------
     1 OT CG       0.15E+00   13.3     0.00024266     -8151.5605542500 -8.15E+03
     2 OT LS       0.20E+00    4.5                    -8151.5789031921
     3 OT CG       0.20E+00    9.5     0.00021103     -8151.5801405041 -1.96E-02
     4 OT LS       0.42E-01    4.0                    -8151.5391165011
     5 OT CG       0.42E-01    7.6     0.00005649     -8151.5832509281 -3.11E-03
     6 OT LS       0.51E-01    3.4                    -8151.5835143479
     7 OT CG       0.51E-01    7.3     0.00002704     -8151.5835232546 -2.72E-04
     8 OT LS       0.76E-01    3.4                    -8151.5836058167
     9 OT CG       0.76E-01    7.1     0.00002397     -8151.5836156929 -9.24E-05
    10 OT LS       0.63E-01    3.3                    -8151.5836728613
    11 OT CG       0.63E-01    7.2     0.00001626     -8151.5836755986 -5.99E-05
    12 OT LS       0.71E-01    3.3                    -8151.5837064037
    13 OT CG       0.71E-01    7.8     0.00001508     -8151.5837068371 -3.12E-05
    14 OT LS       0.17E+00    3.3                    -8151.5837490562
    15 OT CG       0.17E+00    8.6     0.00001995     -8151.5837696014 -6.28E-05
    16 OT LS       0.98E-01    4.2                    -8151.5838022902
    17 OT CG       0.98E-01    9.4     0.00001640     -8151.5838342533 -6.47E-05
    18 OT LS       0.97E-01    4.2                    -8151.5838775622
    19 OT CG       0.97E-01    9.0     0.00001384     -8151.5838775644 -4.33E-05
    20 OT LS       0.94E-01    4.2                    -8151.5839072799
    21 OT CG       0.94E-01    9.4     0.00001053     -8151.5839073154 -2.98E-05
    22 OT LS       0.14E+00    4.7                    -8151.5839303674
    23 OT CG       0.14E+00    9.0     0.00001215     -8151.5839333102 -2.60E-05
    24 OT LS       0.11E+00    3.3                    -8151.5839573111
    25 OT CG       0.11E+00    7.6     0.00001051     -8151.5839598176 -2.65E-05
    26 OT LS       0.65E-01    3.8                    -8151.5839666752
    27 OT CG       0.65E-01    9.1     0.00000855     -8151.5839717655 -1.19E-05
    28 OT LS       0.72E-01    4.2                    -8151.5839803885
    29 OT CG       0.72E-01    9.2     0.00000723     -8151.5839804533 -8.69E-06
    30 OT LS       0.78E-01    4.3                    -8151.5839871347
    31 OT CG       0.78E-01    9.2     0.00000579     -8151.5839871735 -6.72E-06
    32 OT LS       0.79E-01    4.3                    -8151.5839915884
