     214
 i =        1, E =     -8151.4223300355
 Ga         0.0018543030       -0.0009030162       -0.1731368047
  N        -0.0042412827        1.8580237098        0.6120184505
 Ga         0.0004520066        1.8605341789        2.5464482216
  N         0.0054291409        0.0020443610        3.2351269100
 Ga         0.0069908987        0.0007520783        5.1958732348
  N         0.0017815062        1.8589052321        5.8578928525
 Ga         0.0056318199        1.8619150272        7.8275542126
  N         0.0117057474        0.0038738203        8.4775959453
 Ga         0.0116252473        0.0067105155       10.4658133982
  N        -0.0072420285        1.8632939387       11.0515208348
 Ga        -0.0272068361        1.8513963552       13.1197164110
  N        -0.0114192517       -0.0000543308       13.4883651355
 Ga        -1.6101111092        2.7910249129       -0.1733973056
  N        -1.6160262520        4.6498237622        0.6118577865
 Ga        -1.6114099377        4.6524835777        2.5463622843
  N        -1.6056975372        2.7937667200        3.2349226073
 Ga        -1.6042794281        2.7918490746        5.1955808638
  N        -1.6097796487        4.6508718499        5.8559652855
 Ga        -1.6094016973        4.6529039309        7.8250153709
  N        -1.6015853410        2.7950026797        8.4736716242
 Ga        -1.6081024727        2.8018829932       10.4602176918
  N        -1.6111490690        4.6561140435       11.0564852816
 Ga        -1.6402451384        4.6289867496       13.1294090850
  N        -1.6162037799        2.7910059749       13.5523092966
 Ga        -3.2218957876        5.5827077301       -0.1734178783
  N        -3.2277614681        7.4416489633        0.6119265767
 Ga        -3.2231313022        7.4443056509        2.5467312314
  N        -3.2174436435        5.5855329822        3.2351589761
 Ga        -3.2171434183        5.5847122564        5.1963412694
  N        -3.2217366731        7.4429139151        5.8578977840
 Ga        -3.2183708266        7.4459327361        7.8277712532
  N        -3.2130878847        5.5867219604        8.4757592101
 Ga        -3.2159295465        5.5886894477       10.4631229146
  N        -3.2299464117        7.4492888686       11.0548103787
 Ga        -3.2571784727        7.4395267829       13.1192247028
  N        -3.2373410889        5.5852870421       13.4709597856
 Ga        -4.8337513411        8.3747933310       -0.1728106545
  N        -4.8396925502       10.2335510466        0.6127030539
 Ga        -4.8350896665       10.2359220973        2.5475177467
  N        -4.8294422285        8.3771009314        3.2354588187
 Ga        -4.8280924139        8.3757869998        5.1966525190
  N        -4.8346157986       10.2350520339        5.8570232655
 Ga        -4.8308551406       10.2358857269        7.8258089848
  N        -4.8253089790        8.3789897173        8.4756386688
 Ga        -4.8344531529        8.3853308644       10.4603023457
  N        -4.8331710102       10.2359179309       11.0646951626
 Ga        -4.8547381537       10.2158633350       13.1451304269
  N        -4.8472218694        8.3739280508       13.5533156917
 Ga         3.2131100274       -0.0009460782       -0.1725137323
  N         3.2071572322        1.8580130606        0.6128880049
 Ga         3.2119173142        1.8604736641        2.5479091018
  N         3.2176110123        0.0015470705        3.2358293893
 Ga         3.2189816654        0.0002786287        5.1970241697
  N         3.2121801109        1.8590989116        5.8568410424
 Ga         3.2151513892        1.8619489812        7.8262316458
  N         3.2231021095        0.0035644097        8.4731700391
 Ga         3.2142156579        0.0088507234       10.4582049396
  N         3.2129381018        1.8602091858       11.0541179696
 Ga         3.1948056825        1.8427825189       13.1236551604
  N         3.1985690926        0.0005524186       13.5358763457
 Ga         1.6012944920        2.7908482209       -0.1732101093
  N         1.5954913938        4.6498705451        0.6117527785
 Ga         1.5999276650        4.6523563908        2.5462388173
  N         1.6050827850        2.7938653754        3.2352024925
 Ga         1.6066484737        2.7923168402        5.1961279771
  N         1.6009821680        4.6510117981        5.8568060869
 Ga         1.6035518944        4.6508207194        7.8257465779
  N         1.6108956723        2.7956824173        8.4773718008
 Ga         1.6080650913        2.7941080789       10.4643767452
  N         1.5865417414        4.6545981091       11.0412633855
 Ga         1.5699304850        4.6425997275       13.1008255254
  N         1.5927396965        2.7917456812       13.4847173980
 Ga        -0.0105959226        5.5826196200       -0.1734820747
  N        -0.0163157214        7.4416032766        0.6122050559
 Ga        -0.0116331433        7.4441685912        2.5470177290
  N        -0.0063193234        5.5852403884        3.2346927812
 Ga        -0.0046906223        5.5842275435        5.1952895701
  N        -0.0104246597        7.4420992407        5.8556980743
 Ga        -0.0087610719        7.4467990337        7.8242645006
  N        -0.0019335095        5.5878268011        8.4668287092
 Ga        -0.0133284572        5.5928302955       10.4484552874
  N        -0.0071965685        7.4361171864       11.0680178572
 Ga        -0.0281265492        7.4358685403       13.1480755663
  N        -0.0296842493        5.5804329194       13.5075962098
 Ga        -1.6223954566        8.3745877855       -0.1732217576
  N        -1.6281749974       10.2333675696        0.6125061945
 Ga        -1.6235608685       10.2357403861        2.5472636252
  N        -1.6179469941        8.3770934894        3.2356365903
 Ga        -1.6168505061        8.3758742469        5.1969334476
  N        -1.6221480373       10.2341734147        5.8588777921
 Ga        -1.6179435501       10.2344491829        7.8291180718
  N        -1.6110514372        8.3770410808        8.4809731876
 Ga        -1.6114938419        8.3771210670       10.4701685815
  N        -1.6304751221       10.2391076494       11.0560700087
 Ga        -1.6562453318       10.2282715775       13.1223114109
  N        -1.6375464063        8.3758033535       13.4781642759
 Ga         6.4246394306       -0.0010481108       -0.1724949955
  N         6.4187442632        1.8580062463        0.6124924717
 Ga         6.4233212042        1.8603976258        2.5474571464
  N         6.4288319258        0.0015557930        3.2357959273
 Ga         6.4300877971        0.0005872482        5.1969932804
  N         6.4251101750        1.8585771005        5.8577100429
 Ga         6.4287552015        1.8612591723        7.8274074753
  N         6.4357945236        0.0037688052        8.4788117256
 Ga         6.4308245813        0.0053939959       10.4668233459
  N         6.4167909562        1.8641116019       11.0571313037
 Ga         6.3918376338        1.8521742778       13.1218299177
  N         6.4108708061       -0.0012945554       13.4752691728
 Ga         4.8126458472        2.7908394748       -0.1726702799
  N         4.8066582343        4.6499211572        0.6121224179
 Ga         4.8112037347        4.6522525091        2.5468987653
  N         4.8171151861        2.7936740624        3.2358863845
 Ga         4.8185267806        2.7916498130        5.1973813352
  N         4.8115912745        4.6519461869        5.8553523979
 Ga         4.8140701537        4.6517937681        7.8242795179
  N         4.8227515290        2.7953269323        8.4726792466
 Ga         4.8136831907        2.8001303521       10.4565175424
  N         4.8095736074        4.6542437608       11.0566118238
 Ga         4.7934212989        4.6384539455       13.1309521072
  N         4.7986998731        2.7932906917       13.5320944783
 Ga         3.2008062917        5.5827756009       -0.1737254054
  N         3.1951865225        7.4416450503        0.6118139558
 Ga         3.1995658087        7.4444846403        2.5463719484
  N         3.2046571748        5.5858328486        3.2344926908
 Ga         3.2054894998        5.5845677712        5.1952225951
  N         3.2010657135        7.4425284576        5.8583189771
 Ga         3.2018698366        7.4453716133        7.8285048317
  N         3.2091619464        5.5861841757        8.4766368761
 Ga         3.2050690772        5.5895569239       10.4654935086
  N         3.1936925165        7.4477763799       11.0519823845
 Ga         3.1677356192        7.4272341970       13.1190098874
  N         3.1855048328        5.5753263821       13.4909203236
 Ga         1.5890873199        8.3747035392       -0.1731455818
  N         1.5833501660       10.2334062946        0.6130214492
 Ga         1.5880169576       10.2357041998        2.5478888289
  N         1.5934642895        8.3768789837        3.2356552551
 Ga         1.5946339962        8.3755479942        5.1965336424
  N         1.5896401571       10.2343472942        5.8556528309
 Ga         1.5892279939       10.2348019069        7.8237275770
  N         1.5967453420        8.3798596147        8.4745865428
 Ga         1.5894289625        8.3806518076       10.4596774110
  N         1.5886384520       10.2341540213       11.0664745225
 Ga         1.5702606607       10.2179136754       13.1482100617
  N         1.5803514298        8.3743413148       13.5485983526
 Ga         9.6358799507       -0.0009397826       -0.1728262937
  N         9.6303281236        1.8579815043        0.6125979906
 Ga         9.6347681370        1.8602305453        2.5473230600
  N         9.6407073061        0.0016643664        3.2354293338
 Ga         9.6416760141        0.0000139563        5.1960184369
  N         9.6369822564        1.8585371050        5.8556693897
 Ga         9.6370718227        1.8628092984        7.8244389974
  N         9.6431956396        0.0033658178        8.4731418052
 Ga         9.6356481286        0.0067665155       10.4586393605
  N         9.6367274462        1.8596736653       11.0599244483
 Ga         9.6237841324        1.8455707314       13.1383486047
  N         9.6246966385        0.0004691423       13.5410362734
 Ga         8.0242045839        2.7909046836       -0.1728048071
  N         8.0184054192        4.6499528745        0.6119358603
 Ga         8.0230148770        4.6523141294        2.5466826647
  N         8.0286778047        2.7935416205        3.2354776883
 Ga         8.0292678295        2.7922065246        5.1967532460
  N         8.0240827781        4.6512796231        5.8569109279
 Ga         8.0264509083        4.6511643221        7.8263548242
  N         8.0351552937        2.7948821114        8.4794915318
 Ga         8.0306452475        2.7982274992       10.4672701556
  N         8.0161713355        4.6587786870       11.0555169279
 Ga         7.9914720569        4.6434750955       13.1213032150
  N         8.0130209330        2.7896715281       13.4704596402
 Ga         6.4122678899        5.5827110232       -0.1730427243
  N         6.4063485276        7.4418193550        0.6120574964
 Ga         6.4107896716        7.4445828661        2.5469464356
  N         6.4164841824        5.5855592587        3.2344006788
 Ga         6.4178950309        5.5840965092        5.1952771093
  N         6.4116211964        7.4430827638        5.8558463210
 Ga         6.4149421594        7.4448659307        7.8246454829
  N         6.4200340778        5.5867752312        8.4740310036
 Ga         6.4134336291        5.5937641966       10.4590773720
  N         6.4141074537        7.4434382795       11.0697948173
 Ga         6.3927207424        7.4251703221       13.1518118184
  N         6.4003166888        5.5787487269       13.5432525800
 Ga         4.8003900058        8.3746835148       -0.1736036111
  N         4.7947290302       10.2335240139        0.6119828987
 Ga         4.7990736791       10.2358750097        2.5465409035
  N         4.8042541868        8.3776496392        3.2353411118
 Ga         4.8055064448        8.3759917163        5.1962779128
  N         4.8009817872       10.2346428318        5.8591591438
 Ga         4.8039669266       10.2348858493        7.8290076975
  N         4.8104486081        8.3772070556        8.4781757058
 Ga         4.8079718046        8.3764880953       10.4667093389
  N         4.7961103783       10.2394682385       11.0452022009
 Ga         4.7690099579       10.2317583684       13.1092273213
  N         4.7843259024        8.3773189636       13.4683391113
  H         4.8007223952        8.3776307032       -1.7256241560
  H         1.5888227894        8.3786945207       -1.7252080563
  H        -1.6225775538        8.3783663411       -1.7252793651
  H        -4.8341876894        8.3786295390       -1.7249424742
  H         6.4121846075        5.5859484516       -1.7252123690
  H         3.2012627933        5.5860020635       -1.7257117510
  H        -0.0107876789        5.5864318729       -1.7254838422
  H        -3.2226533769        5.5862109878       -1.7254929159
  H         8.0244080390        2.7945904535       -1.7249122815
  H         4.8121657364        2.7944465652       -1.7247559399
  H         1.6014821771        2.7937941052       -1.7252422517
  H        -1.6106789763        2.7938509977       -1.7253640338
  H         0.0025822926        0.0025432317       -1.7251357676
  H         3.2129080699        0.0026397196       -1.7246059564
  H         6.4244489742        0.0021808940       -1.7245837970
  H         9.6349504071        0.0032770962       -1.7248298666
  O         1.2399901338        4.7637257074       15.8694125701
  H         2.1508893943        4.5578626217       15.5784472390
  C         0.7230321236        3.5410177245       16.4552644905
  H        -0.1803842103        3.2127003598       15.9155480685
  H         1.4655830316        2.7378480241       16.4252831608
  H         0.4330470731        3.7626381061       17.4924209520
     214
 i =        2, E =     -8151.4237374623
 Ga         0.0020660240       -0.0006448183       -0.1729348799
  N        -0.0039639706        1.8582025622        0.6119837094
 Ga         0.0005193960        1.8605016019        2.5464275228
  N         0.0053412416        0.0021584997        3.2353200432
 Ga         0.0075283577        0.0010323415        5.1963012784
  N         0.0021547374        1.8589564526        5.8568027846
 Ga         0.0056064400        1.8634284199        7.8269119430
  N         0.0098040443        0.0051795757        8.4729166015
 Ga         0.0120129547        0.0064491401       10.4607065436
  N        -0.0064535510        1.8596939297       11.0473961017
 Ga        -0.0203686584        1.8505199115       13.1140638104
  N        -0.0099115286        0.0020676561       13.5064692329
 Ga        -1.6097694126        2.7911417014       -0.1734465504
  N        -1.6155718468        4.6498329875        0.6117646242
 Ga        -1.6112297736        4.6523559861        2.5463296383
  N        -1.6055288875        2.7937466239        3.2350132381
 Ga        -1.6038680012        2.7916168755        5.1957709061
  N        -1.6091251404        4.6503950545        5.8547405805
 Ga        -1.6112233480        4.6538082211        7.8240157346
  N        -1.6024678909        2.7966191996        8.4708208131
 Ga        -1.6054107369        2.8016569914       10.4587444000
  N        -1.6132048474        4.6559498186       11.0516602461
 Ga        -1.6535366232        4.6218470466       13.1209229041
  N        -1.6082629445        2.7911345839       13.5664296161
 Ga        -3.2215076438        5.5829577567       -0.1729709866
  N        -3.2274024716        7.4418509477        0.6121644246
 Ga        -3.2229187327        7.4441565333        2.5472432880
  N        -3.2168820924        5.5853717027        3.2352736288
 Ga        -3.2172450286        5.5848941373        5.1969405746
  N        -3.2213893923        7.4429906191        5.8572449857
 Ga        -3.2178931098        7.4473803417        7.8278443297
  N        -3.2140340903        5.5885008295        8.4745925813
 Ga        -3.2161059777        5.5895508316       10.4618514846
  N        -3.2284900344        7.4492264873       11.0600685900
 Ga        -3.2574052655        7.4390732811       13.1250986500
  N        -3.2398039842        5.5852644869       13.4785453074
 Ga        -4.8334906638        8.3749390048       -0.1723608319
  N        -4.8395022630       10.2336887444        0.6128010816
 Ga        -4.8349194128       10.2358519417        2.5479187214
  N        -4.8293104998        8.3770567632        3.2356607517
 Ga        -4.8277679250        8.3757743086        5.1974474517
  N        -4.8347749709       10.2351625271        5.8568101370
 Ga        -4.8301648021       10.2353279173        7.8262141667
  N        -4.8260202917        8.3794337208        8.4756452909
 Ga        -4.8341126437        8.3847915135       10.4607893443
  N        -4.8336028520       10.2352506462       11.0613726879
 Ga        -4.8576559495       10.2168025291       13.1393753661
  N        -4.8487105241        8.3753168269       13.5513779611
 Ga         3.2133989079       -0.0006943506       -0.1721042669
  N         3.2073353315        1.8582399071        0.6129199705
 Ga         3.2120499956        1.8604605389        2.5481464897
  N         3.2177729782        0.0016215889        3.2361118604
 Ga         3.2192006796        0.0006800208        5.1979505012
  N         3.2118002459        1.8592517733        5.8561225844
 Ga         3.2159846677        1.8630851517        7.8262725139
  N         3.2232537732        0.0046029208        8.4702038666
 Ga         3.2143928171        0.0079185031       10.4553157920
  N         3.2133305213        1.8568196706       11.0520404655
 Ga         3.1942786872        1.8435853404       13.1164876224
  N         3.1961444105        0.0017829090       13.5319704785
 Ga         1.6015516360        2.7910946529       -0.1731208507
  N         1.5957058307        4.6499828503        0.6117180477
 Ga         1.5999302827        4.6522254132        2.5462198613
  N         1.6050046874        2.7938969980        3.2351367176
 Ga         1.6071390088        2.7921245231        5.1962753101
  N         1.6013000781        4.6508092872        5.8551316261
 Ga         1.6033346522        4.6505165633        7.8243265382
  N         1.6099419457        2.7971584906        8.4733313902
 Ga         1.6097762930        2.7903342498       10.4599029405
  N         1.5821446204        4.6503755795       11.0307220674
 Ga         1.5750848174        4.6405871577       13.0811633859
  N         1.5975782558        2.7945333915       13.5030670011
 Ga        -0.0102300818        5.5829584949       -0.1734980101
  N        -0.0159083498        7.4416757327        0.6123607751
 Ga        -0.0114991051        7.4440868163        2.5471505095
  N        -0.0062180161        5.5851761457        3.2346149695
 Ga        -0.0043566455        5.5843288409        5.1953578364
  N        -0.0099907223        7.4418384483        5.8534140408
 Ga        -0.0091468307        7.4491975785        7.8221265489
  N        -0.0031616770        5.5893900801        8.4590575495
 Ga        -0.0152959835        5.5910087411       10.4389206463
  N        -0.0021056449        7.4282364285       11.0661738090
 Ga        -0.0286767464        7.4497407060       13.1440557010
  N        -0.0353523191        5.5813638052       13.4574037988
 Ga        -1.6219321958        8.3746605304       -0.1729791700
  N        -1.6278718434       10.2334072476        0.6125916056
 Ga        -1.6234233816       10.2356195024        2.5476068073
  N        -1.6175786496        8.3769618873        3.2354762019
 Ga        -1.6168471557        8.3758402467        5.1971070306
  N        -1.6221929343       10.2337197642        5.8584880661
 Ga        -1.6176881281       10.2340917377        7.8295895650
  N        -1.6103606398        8.3773789645        8.4815972710
 Ga        -1.6090071181        8.3745600022       10.4722533188
  N        -1.6298660012       10.2375425432       11.0578137166
 Ga        -1.6575554853       10.2267124992       13.1233685848
  N        -1.6390424767        8.3775079282       13.4905427395
 Ga         6.4250371167       -0.0009125507       -0.1721125657
  N         6.4190212550        1.8581623717        0.6127237200
 Ga         6.4234452523        1.8603354335        2.5481395416
  N         6.4290818567        0.0013037155        3.2358198663
 Ga         6.4299496420        0.0009648475        5.1974977935
  N         6.4253007557        1.8586557488        5.8565144189
 Ga         6.4287720351        1.8626053265        7.8268887594
  N         6.4350575445        0.0060553939        8.4776419029
 Ga         6.4297600314        0.0073533001       10.4660736128
  N         6.4160542234        1.8628055724       11.0622006318
 Ga         6.3929247584        1.8531247669       13.1277690645
  N         6.4103521989       -0.0019962190       13.4759014484
 Ga         4.8128918931        2.7910832026       -0.1723139572
  N         4.8068295091        4.6500434648        0.6122437938
 Ga         4.8113262977        4.6521182614        2.5472402637
  N         4.8170737556        2.7937209246        3.2361040007
 Ga         4.8185408169        2.7916957946        5.1982700146
  N         4.8108890028        4.6521423315        5.8559044973
 Ga         4.8131666877        4.6517425976        7.8259039298
  N         4.8230581153        2.7963453112        8.4720827293
 Ga         4.8140130624        2.7990709705       10.4563253742
  N         4.8064418036        4.6546429728       11.0542057077
 Ga         4.7880180805        4.6414515673       13.1232335214
  N         4.7977075153        2.7964953929       13.5298053528
 Ga         3.2010723878        5.5830699006       -0.1735794523
  N         3.1954535659        7.4418303590        0.6117776970
 Ga         3.1995360391        7.4443399410        2.5462514780
  N         3.2045200689        5.5858845545        3.2343651390
 Ga         3.2059456747        5.5845696469        5.1952503454
  N         3.2011215193        7.4422684863        5.8574412127
 Ga         3.2006112847        7.4467750364        7.8284440636
  N         3.2063604410        5.5883704787        8.4746351667
 Ga         3.2031877531        5.5906718863       10.4645266423
  N         3.1950757206        7.4450549246       11.0557090405
 Ga         3.1674604444        7.4171783512       13.1269590157
  N         3.1827410713        5.5686697532       13.5219976968
 Ga         1.5893648478        8.3747937911       -0.1730661276
  N         1.5838132646       10.2334050008        0.6129613318
 Ga         1.5879516089       10.2354684677        2.5478991116
  N         1.5936616702        8.3767338999        3.2355435331
 Ga         1.5948931011        8.3755267073        5.1966061320
  N         1.5902427184       10.2341990927        5.8545134485
 Ga         1.5872303185       10.2349698508        7.8230297225
  N         1.5955438148        8.3817056209        8.4718438996
 Ga         1.5925073889        8.3773841164       10.4580334588
  N         1.5878565270       10.2317927279       11.0662998602
 Ga         1.5697360079       10.2190979473       13.1468150418
  N         1.5817292967        8.3771755779       13.5532704191
 Ga         9.6362704697       -0.0007039343       -0.1727952229
  N         9.6307197328        1.8580467612        0.6125435337
 Ga         9.6349045001        1.8603254463        2.5472777309
  N         9.6407821263        0.0016631821        3.2350427519
 Ga         9.6417892217        0.0003486667        5.1957238902
  N         9.6380837139        1.8581153417        5.8554621826
 Ga         9.6356960974        1.8648027059        7.8250714426
  N         9.6411540000        0.0040971535        8.4713708634
 Ga         9.6357091474        0.0059243647       10.4579831412
  N         9.6390015957        1.8575833167       11.0595907976
 Ga         9.6302912860        1.8490292859       13.1370029878
  N         9.6255770367        0.0013776021       13.5317129047
 Ga         8.0246639455        2.7910164273       -0.1723600416
  N         8.0187094393        4.6500030264        0.6122849545
 Ga         8.0231922420        4.6520876386        2.5475400787
  N         8.0291187585        2.7931990259        3.2358096659
 Ga         8.0294761552        2.7925138718        5.1976964282
  N         8.0243916037        4.6514904649        5.8569826132
 Ga         8.0259309630        4.6511005556        7.8270469324
  N         8.0344369353        2.7959357221        8.4801971407
 Ga         8.0294824997        2.7968700511       10.4686947758
  N         8.0166491976        4.6583521656       11.0570980770
 Ga         7.9928073847        4.6412758675       13.1212350844
  N         8.0169996679        2.7888495798       13.4742781183
 Ga         6.4125131906        5.5830135070       -0.1723857053
  N         6.4065190093        7.4420788597        0.6123098760
 Ga         6.4108962221        7.4443323969        2.5474595222
  N         6.4164529044        5.5854293075        3.2349213723
 Ga         6.4180379443        5.5841077476        5.1964947502
  N         6.4116227924        7.4432565993        5.8557787052
 Ga         6.4148783119        7.4452368737        7.8252524965
  N         6.4188356318        5.5871497483        8.4739132972
 Ga         6.4126267926        5.5925766892       10.4591327857
  N         6.4149968086        7.4420788105       11.0732903590
 Ga         6.3898899244        7.4256346477       13.1550171052
  N         6.3994652614        5.5767254962       13.5320522526
 Ga         4.8006333139        8.3748520104       -0.1734742975
  N         4.7949625075       10.2335569815        0.6118143109
 Ga         4.7991968950       10.2357958365        2.5463777492
  N         4.8040289273        8.3777035916        3.2354461337
 Ga         4.8058671233        8.3754621247        5.1967143789
  N         4.8010610623       10.2345383471        5.8582369504
 Ga         4.8034385644       10.2348378374        7.8285035958
  N         4.8089582551        8.3786001173        8.4773582434
 Ga         4.8072789532        8.3738464203       10.4673615285
  N         4.7993377765       10.2385174543       11.0417993617
 Ga         4.7727223282       10.2321620144       13.1064457377
  N         4.7816948053        8.3782409334       13.4730647628
  H         4.8009182428        8.3777535763       -1.7256497283
  H         1.5890497466        8.3787214374       -1.7252511557
  H        -1.6223164004        8.3783644572       -1.7252396485
  H        -4.8339419878        8.3786541460       -1.7247527110
  H         6.4123951610        5.5860556728       -1.7248644880
  H         3.2013720216        5.5860525904       -1.7257924261
  H        -0.0105680394        5.5863916170       -1.7256896719
  H        -3.2223440741        5.5862349569       -1.7253353176
  H         8.0245414360        2.7945211091       -1.7247540301
  H         4.8123898274        2.7943238032       -1.7246881208
  H         1.6016974357        2.7938296320       -1.7253618418
  H        -1.6104345005        2.7939313805       -1.7255844294
  H         0.0027011323        0.0025105492       -1.7251902340
  H         3.2130923932        0.0026620341       -1.7244776036
  H         6.4247364855        0.0022299611       -1.7244867438
  H         9.6352464499        0.0031272880       -1.7249776677
  O         1.2518486754        4.7483784538       15.8924144543
  H         2.1630253272        4.5933259598       15.5946094376
  C         0.7195611988        3.5328834050       16.4671457877
  H        -0.1770276625        3.2258909820       15.9037289402
  H         1.4511297529        2.7164649334       16.4343836632
  H         0.4370329851        3.7670986727       17.5025042655
     214
 i =        3, E =     -8151.4243344626
 Ga         0.0024093605       -0.0004700291       -0.1730735387
  N        -0.0036285164        1.8583671304        0.6121460565
 Ga         0.0006634118        1.8604509288        2.5466830335
  N         0.0056092046        0.0021759025        3.2353945442
 Ga         0.0076600689        0.0009596205        5.1964840340
  N         0.0025327278        1.8590606212        5.8543370117
 Ga         0.0042918901        1.8639136836        7.8239574637
  N         0.0090065644        0.0057542389        8.4693038735
 Ga         0.0105504008        0.0061716832       10.4563802165
  N        -0.0050102517        1.8573751443       11.0508836331
 Ga        -0.0172983738        1.8503326275       13.1171154746
  N        -0.0094933965        0.0029420443       13.5119598556
 Ga        -1.6094688233        2.7912104790       -0.1736773287
  N        -1.6152567116        4.6499440910        0.6120577118
 Ga        -1.6111895306        4.6522878841        2.5468792395
  N        -1.6053477546        2.7935740521        3.2347326461
 Ga        -1.6038298718        2.7914846281        5.1954867140
  N        -1.6096739328        4.6501713587        5.8524487092
 Ga        -1.6125607072        4.6546286872        7.8212097411
  N        -1.6032551799        2.7977913212        8.4678264236
 Ga        -1.6033600596        2.7988218792       10.4554125056
  N        -1.6177195074        4.6530291625       11.0461279599
 Ga        -1.6572094695        4.6202589959       13.1143578048
  N        -1.6051911913        2.7938231633       13.5713790909
 Ga        -3.2213194533        5.5831670030       -0.1728029081
  N        -3.2271008949        7.4420139804        0.6125605801
 Ga        -3.2228394312        7.4440075114        2.5477185621
  N        -3.2168507697        5.5854278082        3.2351911906
 Ga        -3.2176188700        5.5851196440        5.1968712230
  N        -3.2211889263        7.4433265777        5.8569278766
 Ga        -3.2182127705        7.4481432402        7.8276055829