     212
 i =       99, E =     -8504.8313430654
  N         0.0914584998        2.1090395224        2.5797640323
 Ga         0.1044824081        0.1505529729        3.0164310554
  N         0.0885327236        0.1322391276        5.1255426416
 Ga         0.0642426004        1.9504977007        5.8764059450
  N         0.0725575320        1.9717935820        7.8653889287
 Ga         0.0670090468        0.1163340197        8.4904814554
  N         0.0707368704        0.1207923289       10.4676797622
 Ga         0.0684974761        1.9592206665       11.1210333166
  N         0.0713378348        1.9426721437       13.1154233350
 Ga         0.0703736157        0.1218453220       13.9138153094
  N         0.0698562349        0.1221036949       16.1181126579
 Ga         0.0714566516        2.1625477399       16.5293517084
 Ga         0.1100400923        3.8241749355        1.4415709383
  N        -1.3957272301        4.6906563493        2.5351537660
 Ga        -1.6033591527        2.8396493734        3.3183048508
  N        -1.5343488407        2.9063351435        5.2976969135
 Ga        -1.5695845696        4.7725524228        5.8532424245
  N        -1.5447507773        4.7694481478        7.8490489078
 Ga        -1.5326346871        2.9121029585        8.4893894120
  N        -1.5266429258        2.9141290505       10.4838027887
 Ga        -1.5522354250        4.7732052648       11.1184040683
  N        -1.5672864939        4.7832560569       13.1133296481
 Ga        -1.5254809165        2.9144205249       13.6694079220
  N        -1.5528699227        2.8992676535       15.6329717644
 Ga        -1.3779200516        4.6737240074       16.5291414479
  N         0.0637238013        3.8325198627       17.6648415293
  N        -3.1355083002        7.6589770899        2.5635273316
 Ga        -3.1195178705        5.6924752802        2.8780361806
  N        -3.1389788871        5.6840779378        5.0608579515
 Ga        -3.1490088998        7.5137256899        5.8330389269
  N        -3.1429536698        7.5364878911        7.8357868827
 Ga        -3.1451893048        5.6928284607        8.4886867756
  N        -3.1443574358        5.6929188257       10.4653182063
 Ga        -3.1458510961        7.5315828945       11.1167074637
  N        -3.1441471631        7.5137127270       13.1124471717
 Ga        -3.1437249145        5.6932514505       13.9138155571
  N        -3.1452019423        5.6924712384       16.1184115911
 Ga        -3.1440305767        7.7301717163       16.5274237525
 Ga        -3.1802658946        9.3951617973        1.3125015492
  N        -4.6444956445       10.2936844450        2.5901822470
 Ga        -4.8346143511        8.4444571325        3.2906403240
  N        -4.7497280613        8.4792067601        5.2813425855
 Ga        -4.7771285698       10.3392299219        5.8653167115
  N        -4.7569960272       10.3382182078        7.8578043607
 Ga        -4.7469139142        8.4765725930        8.4748535370
  N        -4.7422752327        8.4812654884       10.4742838156
 Ga        -4.7711190982       10.3390581460       11.1189582262
  N        -4.7844570601       10.3520632634       13.1143439512
 Ga        -4.7412512474        8.4839244282       13.6695588302
  N        -4.7680832351        8.4688742452       15.6337771716
 Ga        -4.5965417740       10.2455084356       16.5274505493
  N        -3.1520806547        9.4020858594       17.6618265067
  N         3.2789221179        1.9670395984        2.6676371615
 Ga         3.2902377377        0.1135492052        3.3791770425
  N         3.2897089431        0.1360111396        5.3184491412
 Ga         3.2866661837        1.9688195126        5.9802636064
  N         3.2895460131        1.9766785190        7.9342572508
 Ga         3.2869607419        0.1025543102        8.5090699055
  N         3.2875662972        0.1078447454       10.4959209381
 Ga         3.2875550219        1.9782988886       11.0855992106
  N         3.2877783612        1.9791095981       13.0558179178
 Ga         3.2884739380        0.1077560262       13.6702786645
  N         3.2899212013        0.1406457658       15.6332998820
 Ga         3.2881078537        1.9799326732       15.9092937808
  N         1.5659946083        4.6928703528        2.6283938056
 Ga         1.6918342525        2.8805848479        3.3929068950
  N         1.7003168379        2.8942931275        5.3291537333
 Ga         1.7034446872        4.7762431226        5.8791730605
  N         1.6871029291        4.7670317218        7.8617801781
 Ga         1.6664641461        2.9130689324        8.5095431888
  N         1.6685470683        2.9143181106       10.4957568388
 Ga         1.6949125014        4.7765900249       11.1203242781
  N         1.7116919796        4.7842229182       13.1140447114
 Ga         1.6676604877        2.9155650151       13.6709954158
  N         1.6966577800        2.9007264086       15.6331746077
 Ga         1.5151281853        4.6702892118       16.5306935486
  N         0.0746646044        7.5507080413        2.7089751358
 Ga         0.0724074214        5.7144799258        3.3829598591
  N         0.0708589861        5.7061204402        5.3168569241
 Ga         0.0932193028        7.5648094455        5.9183196755
  N         0.0771817961        7.5532636278        7.8910918686
 Ga         0.0684287167        5.6858675896        8.4882911343
  N         0.0709539527        5.6814251845       10.4811827515
 Ga         0.0725958253        7.5499136285       11.0754793300
  N         0.0719171138        7.5498277680       13.0477377204
 Ga         0.0721358698        5.6809368421       13.6704226916
  N         0.0732844370        5.7123404237       15.6325143960
 Ga         0.0724367220        7.5505804130       15.9106170594
  N        -1.6415527860       10.2872557503        2.5770273478
 Ga        -1.5291145976        8.4839868627        3.3431164792
  N        -1.5226702584        8.4740099331        5.2915162873
 Ga        -1.5067307283       10.3498749558        5.8732590535
  N        -1.5322061214       10.3357986865        7.8619619487
 Ga        -1.5464642371        8.4774653883        8.4867216111
  N        -1.5471075561        8.4812323734       10.4805932685
 Ga        -1.5182987682       10.3404029117       11.1196064324
  N        -1.5034219040       10.3523051333       13.1140750244
 Ga        -1.5467044214        8.4841614761       13.6698219512
  N        -1.5197375762        8.4704631467       15.6327641812
 Ga        -1.6987196114       10.2410886636       16.5281178648
  N         6.4846193799        2.1098661786        2.5696871316
 Ga         6.5077006483        0.1015899227        2.9561915501
  N         6.4831868926        0.1357074498        5.1261828488
 Ga         6.5153144638        1.9469326352        5.8721724285
  N         6.5048961510        1.9736647554        7.8617452748
 Ga         6.5100562679        0.1171359457        8.4885954038
  N         6.5051699713        0.1208047585       10.4664318191
 Ga         6.5077174600        1.9597247638       11.1198907349
  N         6.5052380195        1.9417731549       13.1150263067
 Ga         6.5052115974        0.1209768877       13.9153195862
  N         6.5036412889        0.1216669146       16.1194278799
 Ga         6.5049180799        2.1600317208       16.5274995585
 Ga         6.4779349740        3.8582651364        1.5884853311
  N         5.0112345174        4.6989136807        2.6526373617
 Ga         4.8547054548        2.8622443487        3.3973978664
  N         4.8790437322        2.8928948121        5.3223912325
 Ga         4.8826493889        4.7793194813        5.8707896438
  N         4.8890551103        4.7652364986        7.8563984103
 Ga         4.9114122733        2.9142304332        8.5089763643
  N         4.9072553570        2.9142291740       10.4955419039
 Ga         4.8832173536        4.7778895734       11.1175393096
  N         4.8647539037        4.7847139084       13.1133120618
 Ga         4.9086690027        2.9152606332       13.6698552869
  N         4.8808532328        2.8995042444       15.6344149089
 Ga         5.0519426032        4.6757870489       16.5282112608
  N         6.4974864854        3.8330164983       17.6612611638
  N         3.2837681556        7.5268604224        2.5865716242
  N         3.2906675670        5.6728238861        5.1189800946
 Ga         3.2928121611        7.5420337874        5.8136042520
  N         3.2875090055        7.5420123621        7.8216651641
 Ga         3.2898374841        5.7011322851        8.4885811224
  N         3.2881688712        5.6948564472       10.4645855348
 Ga         3.2891513808        7.5338598780       11.1168544052
  N         3.2882329130        7.5136714568       13.1120453357
 Ga         3.2873436822        5.6941809468       13.9161269131
  N         3.2865519519        5.6933149311       16.1190514140
 Ga         3.2881527993        7.7331121438       16.5294130388
 Ga         4.1488324124       10.9135670453        0.6853094442
  N         1.7139362639       10.3487929560        2.5749636463
 Ga         1.6975702566        8.5638904162        3.2094388747
  N         1.6769373476        8.4654158965        5.2097139422
 Ga         1.6542009215       10.3388474388        5.8164410623
  N         1.6688628820       10.3315855026        7.8301705544
 Ga         1.6947499277        8.4852781847        8.4828842494
  N         1.6916202383        8.4826561351       10.4781146475
 Ga         1.6678279434       10.3429654721       11.1140142840
  N         1.6490746944       10.3530335806       13.1106526186
 Ga         1.6912277728        8.4849793031       13.6687178183
  N         1.6638034783        8.4696828343       15.6324393586
 Ga         1.8388547642       10.2441084474       16.5295434319
  N         3.2812072625        9.4026007256       17.6644160264
  N         9.7484835836        1.9366316118        2.6513622061
 Ga         9.6693851560        0.1428215426        3.3030109608
  N         9.7184808079        0.1198069043        5.2929103430
 Ga         9.7239744890        1.9676377006        5.9068244007
  N         9.7190276926        1.9783003842        7.8909123765
 Ga         9.7188999513        0.1059128456        8.4671681059
  N         9.7195429093        0.1088703564       10.4702979318
 Ga         9.7200010870        1.9759113449       11.0726564430
  N         9.7204382715        1.9784817036       13.0467563287
 Ga         9.7209468989        0.1092562684       13.6683750353
  N         9.7217677087        0.1413039679       15.6309833532
 Ga         9.7207641087        1.9797006759       15.9102771585
  N         8.0031125044        4.7027240543        2.5691339503
 Ga         8.2306151365        2.8266694495        3.3061718254
  N         8.1131551787        2.9017373887        5.2784766299
 Ga         8.1430132435        4.7742045208        5.8365277580
  N         8.1233262291        4.7680270641        7.8384217483
 Ga         8.1083576239        2.9147601682        8.4882521258
  N         8.1024806730        2.9147848276       10.4825425747
 Ga         8.1265020880        4.7744164431       11.1154888394
  N         8.1440436948        4.7836304455       13.1114234231
 Ga         8.1025758930        2.9147827098       13.6682457978
  N         8.1289774775        2.9010259854       15.6318018832
 Ga         7.9507392113        4.6716114772       16.5282934425
  N         6.4991788319        7.5713520550        2.6380002333
 Ga         6.5066939054        5.8455157329        3.3492937993
  N         6.5069685046        5.6972209305        5.3065686973
 Ga         6.4833664244        7.5749817706        5.8766999573
  N         6.4972354279        7.5547982299        7.8694714084
 Ga         6.5090641679        5.6901300975        8.4725663992
  N         6.5054265897        5.6824952663       10.4720203969
 Ga         6.5030265388        7.5500792279       11.0707495023
  N         6.5041657084        7.5500830511       13.0450314718
 Ga         6.5052862405        5.6815232578       13.6690253630
  N         6.5062056165        5.7120519796       15.6323939550
 Ga         6.5039692556        7.5511657892       15.9118620654
  N         4.8647497560       10.3826648943        2.5386277513
 Ga         4.9524611212        8.5144148227        3.1569614989
  N         4.8827638826        8.4870965306        5.1970029729
 Ga         4.9130833540       10.3387342263        5.8214248799
  N         4.9059560430       10.3353270784        7.8325824052
 Ga         4.8851391260        8.4842708607        8.4745820910
  N         4.8843115845        8.4827939959       10.4731563563
 Ga         4.9079754002       10.3422002158       11.1120701419
  N         4.9269631833       10.3530781400       13.1089853723
 Ga         4.8855351172        8.4856008192       13.6675399576
  N         4.9128417025        8.4711762692       15.6303389158
 Ga         4.7318047673       10.2408659943       16.5303028346
  O         0.7588678632        3.7105884995       -0.2765206761
  H         2.5623565238        3.3841438100        0.1866390724
  C         0.1594377540        2.7693277612       -1.1840719870
  H         0.0148683895        1.7765722324       -0.7234634714
  H        -0.8148528205        3.1278662840       -1.5501833843
  H         0.8361779981        2.6555068459       -2.0432636412
 Ga         3.2702815020        5.6042461830        3.0477266467
  O         3.4528902884        3.0656925931        0.4809463127
  H         0.0098945057        7.5078812080        1.6849519897
  C         3.2901013463        1.8415780165        1.1724430694
  H         4.1427083611        1.2029609140        0.8966539386
  H         3.2802577042        7.5910585349        1.5858214183
  H         2.3590916200        1.3409461620        0.8628786938
