     212
 i =       16, E =     -8504.7338497390
  N         0.0759295035        1.9774798477        2.4832827287
 Ga         0.0782931642        0.0115339303        2.8272162181
  N         0.0794765424       -0.0269617889        5.0058405284
 Ga         0.0809824260        1.8008873869        5.7974878411
  N         0.0798955624        1.8144736654        7.7944980164
 Ga         0.0796740441       -0.0293866325        8.4456235093
  N         0.0797286439       -0.0308039234       10.4155968768
 Ga         0.0799959920        1.8086302268       11.0731819546
  N         0.0805770567        1.7895362534       13.0618884216
 Ga         0.0802876520       -0.0296574583       13.8784388760
  N         0.0801769676       -0.0298500483       16.0648887478
 Ga         0.0802813178        2.0191245867       16.4852882327
 Ga         0.0427025607        3.6858822484        1.3622384866
  N        -1.4095924813        4.5472138634        2.5217136858
 Ga        -1.6027393421        2.7069956062        3.2784620147
  N        -1.5307432524        2.7529555508        5.2527505064
 Ga        -1.5597088609        4.6184797093        5.8100437044
  N        -1.5387693891        4.6176559356        7.8002282047
 Ga        -1.5184612568        2.7575115923        8.4396164186
  N        -1.5173461734        2.7610989276       10.4291366386
 Ga        -1.5443094851        4.6195267728       11.0757749788
  N        -1.5601912268        4.6309095688       13.0635478943
 Ga        -1.5170609541        2.7610485301       13.6223524938
  N        -1.5481552479        2.7433797388       15.5785739353
 Ga        -1.3610089493        4.5155710188       16.4855763782
  N         0.0750865067        3.6802209213       17.6145452119
  N        -3.1337571182        7.5174156419        2.5209291796
 Ga        -3.1127271638        5.5174754799        2.8525294944
  N        -3.1361639868        5.5402700825        5.0191827062
 Ga        -3.1444333645        7.3606790777        5.8086680368
  N        -3.1361230892        7.3864493942        7.7958994406
 Ga        -3.1370213179        5.5392627985        8.4516736027
  N        -3.1365301246        5.5409425338       10.4190813147
 Ga        -3.1379597408        7.3793130550       11.0767493803
  N        -3.1359922554        7.3602741596       13.0639100876
 Ga        -3.1362895225        5.5401549388       13.8796141920
  N        -3.1362036837        5.5404466182       16.0652815182
 Ga        -3.1361425636        7.5897492185       16.4855264530
 Ga        -3.1512102250        9.2547307514        1.4627990672
  N        -4.6408768648       10.1218332035        2.5103067686
 Ga        -4.8488677431        8.2719125075        3.2822142437
  N        -4.7442421942        8.3256111755        5.2442881417
 Ga        -4.7737444823       10.1999694312        5.7961075008
  N        -4.7547052561       10.1876923408        7.7900568827
 Ga        -4.7366641414        8.3329662505        8.4400046778
  N        -4.7334170471        8.3322030191       10.4280069302
 Ga        -4.7599398707       10.1917032874       11.0737381228
  N        -4.7759291836       10.2015742671       13.0620148763
 Ga        -4.7335957445        8.3324198928       13.6230071165
  N        -4.7645263097        8.3143745064       15.5791173993
 Ga        -4.5779175544       10.0869951448       16.4852950892
  N        -3.1416079243        9.2515621213       17.6142158623
  N         3.2852233182        1.8308106167        2.6091244994
 Ga         3.2872743023        0.0882443218        3.2793298222
  N         3.2970448089       -0.0333092252        5.2426846933
 Ga         3.2877519519        1.8280282614        5.8709525537
  N         3.2956964939        1.8251258290        7.8439408618
 Ga         3.2935080416       -0.0404757088        8.4394203470
  N         3.2957814376       -0.0435545927       10.4272212415
 Ga         3.2960359008        1.8268198217       11.0270052514
  N         3.2971502986        1.8271556701       12.9920453223
 Ga         3.2966051834       -0.0411744186       13.6229099540
  N         3.2982258952       -0.0071681444       15.5783440816
 Ga         3.2985255600        1.8284309761       15.8634690045
  N         1.5670102593        4.5512117017        2.5119821409
 Ga         1.7567884756        2.7156538449        3.2615268137
  N         1.6884125799        2.7540385615        5.2433933926
 Ga         1.7181819929        4.6170373067        5.8083392722
  N         1.6978715608        4.6174383742        7.7990228391
 Ga         1.6777395958        2.7579906080        8.4398055665
  N         1.6767557493        2.7612942061       10.4284814427
 Ga         1.7039717941        4.6195177620       11.0745446532
  N         1.7210975640        4.6308342070       13.0623237318
 Ga         1.6785009455        2.7612503375       13.6224428062
  N         1.7088291033        2.7456330134       15.5779099121
 Ga         1.5163353512        4.5125487624       16.4874401325
  N         0.0725086130        7.3772081604        2.6942792219
 Ga         0.0831552533        5.5345819233        3.3378782963
  N         0.0793194117        5.5524567020        5.2715342204
 Ga         0.0801577936        7.3914730565        5.9114279301
  N         0.0795717126        7.3980187771        7.8643146519
 Ga         0.0798440390        5.5236076081        8.4489581543
  N         0.0797110996        5.5267732413       10.4332657858
 Ga         0.0798764191        7.3968388055       11.0308499015
  N         0.0808263462        7.3979595015       12.9945448374
 Ga         0.0808426352        5.5284197151       13.6234734299
  N         0.0822848155        5.5632433858       15.5787659123
 Ga         0.0820799913        7.3985125186       15.8641915411
  N        -1.6307341345       10.1101455834        2.5167202568
 Ga        -1.5010076797        8.2995749087        3.3306655358
  N        -1.5175615237        8.3178230270        5.2577847522
 Ga        -1.5050146258       10.2030813697        5.8089850423
  N        -1.5188203625       10.1860931650        7.7954722072
 Ga        -1.5418401311        8.3327431214        8.4507283735
  N        -1.5405044279        8.3323205870       10.4333218673
 Ga        -1.5138220694       10.1925212618       11.0751666185
  N        -1.4954670612       10.2017161935       13.0623960642
 Ga        -1.5380347895        8.3324493093       13.6237226951
  N        -1.5073367225        8.3164988432       15.5790004111
 Ga        -1.6997854894       10.0837878254       16.4873450484
  N         6.5107379050        1.9492297686        2.5305999154
 Ga         6.5117068845       -0.0244255887        2.8673300019
  N         6.5107391295       -0.0322577474        5.0175250282
 Ga         6.5105868914        1.8009200831        5.8037791151
  N         6.5114837336        1.8139212832        7.7950658103
 Ga         6.5121497946       -0.0300494255        8.4494846432
  N         6.5122679735       -0.0308367603       10.4170785400
 Ga         6.5120847890        1.8099118805       11.0724838499
  N         6.5123516812        1.7899248989       13.0610853217
 Ga         6.5122331380       -0.0292403086       13.8766121302
  N         6.5109922496       -0.0303837772       16.0665157613
 Ga         6.5125457564        2.0117763394       16.4831215938
 Ga         6.5140641618        3.6816968269        1.5127708242
  N         5.0085792828        4.5498433773        2.5251524226
 Ga         4.7932388728        2.6968452716        3.2917350132
  N         4.9013143970        2.7536860839        5.2512900177
 Ga         4.8788083756        4.6256402715        5.8029277500
  N         4.8939376998        4.6176539845        7.7949078273
 Ga         4.9119270451        2.7594402184        8.4390235584
  N         4.9153395823        2.7616885717       10.4271748304
 Ga         4.8895039775        4.6205686314       11.0726413356
  N         4.8726290582        4.6305857869       13.0612597180
 Ga         4.9152588854        2.7615520899       13.6222189497
  N         4.8907525884        2.7475114394       15.5809136331
 Ga         5.0643061802        4.5200330531       16.4830866927
  N         6.5072423430        3.6808907832       17.6263332564
  N         3.2889832944        7.5174118082        2.5082266275
  N         3.2950505023        5.5405929919        5.0202812031
 Ga         3.2992893160        7.3623851802        5.8048902997
  N         3.2935218097        7.3870724812        7.7930422389
 Ga         3.2961921193        5.5397135045        8.4496721488
  N         3.2961788418        5.5412358317       10.4177329814
 Ga         3.2978894121        7.3795571709       11.0753150550
  N         3.2967545037        7.3606383684       13.0629817222
 Ga         3.2967232027        5.5400309499       13.8765192901
  N         3.2950990732        5.5396574852       16.0665458207
 Ga         3.2967333147        7.5822948540       16.4840314217
 Ga         3.3213782833        9.2694976918        1.4500174947
  N         1.7876112998       10.1125303719        2.5104720571
 Ga         1.6559566201        8.3000460025        3.3115855829
  N         1.6729789100        8.3163170459        5.2442748353
 Ga         1.6619062072       10.1994234870        5.8057846915
  N         1.6772879400       10.1846099836        7.7932489154
 Ga         1.7003196031        8.3323779080        8.4508940399
  N         1.7001297521        8.3325489594       10.4332613295
 Ga         1.6735607171       10.1926198625       11.0752840558
  N         1.6563532515       10.2014098976       13.0629133835
 Ga         1.6993460626        8.3322220197       13.6235813791
  N         1.6745356011        8.3180119073       15.5823108112
 Ga         1.8486875565       10.0906669312       16.4840077132
  N         3.2916224340        9.2515878508       17.6268291811
  N         9.7353323482        1.8291688023        2.6180250208
 Ga         9.7316575406        0.0852823550        3.2822661155
  N         9.7244138012       -0.0346804881        5.2449626906
 Ga         9.7326587345        1.8257949478        5.8746237473
  N         9.7269362859        1.8245491475        7.8464036126
 Ga         9.7296785181       -0.0417726443        8.4380074305
  N         9.7279852151       -0.0440156616       10.4265032419
 Ga         9.7279353550        1.8262766825       11.0269518905
  N         9.7275268053        1.8261412622       12.9935783558
 Ga         9.7294084255       -0.0425023803       13.6227622622
  N         9.7294089177       -0.0129868287       15.5808464210
 Ga         9.7268099294        1.8265944790       15.8597830788
  N         8.0132492327        4.5496347345        2.5297848298
 Ga         8.2271926431        2.6959928165        3.2954952499
  N         8.1204793714        2.7534545468        5.2544281582
 Ga         8.1441678328        4.6259236152        5.8029352659
  N         8.1298363121        4.6179414150        7.7952291191
 Ga         8.1107370221        2.7598255281        8.4393979941
  N         8.1087074707        2.7616710563       10.4276701668
 Ga         8.1346625648        4.6204714023       11.0734620800
  N         8.1525050147        4.6307485039       13.0614837607
 Ga         8.1093391438        2.7620923341       13.6221266268
  N         8.1350294637        2.7476232530       15.5800687734
 Ga         7.9572943964        4.5180020495       16.4825339251
  N         6.5095237744        7.3966779699        2.6024328261
 Ga         6.5099205402        5.6574666031        3.2913581377
  N         6.5112494514        5.5425744149        5.2506067320
 Ga         6.5100394003        7.3989780863        5.8744151445
  N         6.5112268230        7.3977152975        7.8438941494
 Ga         6.5118278959        5.5292169934        8.4398019669
  N         6.5120992821        5.5279864821       10.4275826139
 Ga         6.5115607355        7.3974346187       11.0274223701
  N         6.5115514177        7.3972760089       12.9936600551
 Ga         6.5128389167        5.5277176873       13.6224074785
  N         6.5130031134        5.5573724166       15.5802871818
 Ga         6.5110260823        7.3963164776       15.8603208636
  N         4.8004623013       10.1237436779        2.5155840573
 Ga         5.0008169134        8.2702283272        3.2790951287
  N         4.9004213984        8.3251523906        5.2420388999
 Ga         4.9320396178       10.1993323198        5.7945220758
  N         4.9141238706       10.1878582886        7.7889528732
 Ga         4.8945149645        8.3330815595        8.4380121158
  N         4.8925026657        8.3322467901       10.4261469729
 Ga         4.9194107573       10.1913033561       11.0724756929
  N         4.9365201558       10.2012146908       13.0609041480
 Ga         4.8938294175        8.3330511566       13.6229908846
  N         4.9193645674        8.3183039049       15.5809865511
 Ga         4.7414934314       10.0887754898       16.4833865418
  O         0.0149205183        4.0948487105       -0.4345295665
  H        -0.1798428126        5.8757857257       -0.3456472560
  C         1.1321846167        3.6416289663       -1.2218523549
  H         2.0987241733        3.9467139663       -0.7882091635
  H         1.1285153318        2.5458393585       -1.3271759615
  H         1.0398903313        4.0863347255       -2.2230576910
 Ga         3.2675965841        5.5170559183        2.8589901799
  O        -0.1832685864        6.8620171282       -0.2031253350
  H         0.0292471437        7.3093479270        1.6569213377
  C         0.9443816252        7.3969403754       -0.9059662874
  H         0.9566182842        8.4819769438       -0.7296505607
  H         1.8959169413        6.9714346433       -0.5448129216
  H         0.8700761354        7.2261097515       -1.9911793454
     212
 i =       16, E =     -8504.7338666229
  N         0.0743917936        1.9774835983        2.4787992907
 Ga         0.0773519732        0.0120104881        2.8241498713
  N         0.0783520299       -0.0276651684        5.0014857858
 Ga         0.0799304882        1.8006232582        5.7944237812
  N         0.0796543442        1.8137603090        7.7908752103
 Ga         0.0791702217       -0.0299588364        8.4427610779
  N         0.0794148750       -0.0312703345       10.4122330500
 Ga         0.0798331405        1.8077722711       11.0715623551
  N         0.0799155395        1.7884341533       13.0610381228
 Ga         0.0800095761       -0.0328534340       13.8761849316
  N         0.0796271478       -0.0318743524       16.0640189924
 Ga         0.0795607710        2.0099519559       16.4747422185
 Ga         0.0412265874        3.6869794441        1.3588677797
  N        -1.4109864146        4.5465311647        2.5183804891
 Ga        -1.6043374198        2.7062942918        3.2747025620
  N        -1.5318633043        2.7521806587        5.2489200459
 Ga        -1.5610353608        4.6172815010        5.8080351928
  N        -1.5392949698        4.6167690114        7.7974241698
 Ga        -1.5187297389        2.7566584948        8.4374822651
  N        -1.5171742758        2.7605483188       10.4264292639
 Ga        -1.5447538488        4.6189480329       11.0743115999
  N        -1.5611924776        4.6303564154       13.0627721460
 Ga        -1.5184214701        2.7599555797       13.6201853500
  N        -1.5486285049        2.7429547725       15.5785339093
 Ga        -1.3691851016        4.5193780674       16.4749978431
  N         0.0792629542        3.6825226651       17.5920250062
  N        -3.1354204072        7.5169238675        2.5177373581
 Ga        -3.1143136100        5.5160358830        2.8489272010
  N        -3.1372962966        5.5394947232        5.0152949737
 Ga        -3.1458238998        7.3593321775        5.8066835546
  N        -3.1367880400        7.3853184337        7.7928784695
 Ga        -3.1375923133        5.5380480524        8.4494245910
  N        -3.1367767546        5.5400319194       10.4162155902
 Ga        -3.1383272960        7.3787441295       11.0740176302
  N        -3.1366652138        7.3598747344       13.0598312537
 Ga        -3.1387439410        5.5411669814       13.8775992283
  N        -3.1377687410        5.5407178750       16.0644148675
 Ga        -3.1375323600        7.5918896043       16.4882128177
 Ga        -3.1523640241        9.2537473657        1.4647800089
  N        -4.6420497696       10.1210729505        2.5064631461
 Ga        -4.8514179527        8.2705868028        3.2794225105
  N        -4.7453703793        8.3246886196        5.2407660362
 Ga        -4.7748052615       10.1991355948        5.7929581024
  N        -4.7553004283       10.1869059403        7.7861611221
 Ga        -4.7374072482        8.3320869380        8.4368366158
  N        -4.7337698326        8.3315967881       10.4241090391
 Ga        -4.7600958443       10.1910710115       11.0708438978
  N        -4.7763378644       10.2007521073       13.0578511672
 Ga        -4.7333926698        8.3322370854       13.6216018171
  N        -4.7603282167        8.3164701765       15.5763625425
 Ga        -4.5764817217       10.0841757833       16.4880267676
  N        -3.1326593965        9.2564101857       17.6354143685
  N         3.2837169294        1.8306746382        2.6051922569
 Ga         3.2857657694        0.0888559477        3.2761476545
  N         3.2958885299       -0.0340315976        5.2388560065
 Ga         3.2862868391        1.8276247465        5.8679158975
  N         3.2950453506        1.8245529812        7.8402569055
 Ga         3.2928275043       -0.0408999495        8.4365454965
  N         3.2956188463       -0.0440219552       10.4237047691
 Ga         3.2963367652        1.8260724468       11.0255535602
  N         3.2962418377        1.8260960076       12.9907723345
 Ga         3.2954448359       -0.0429235204       13.6222394649
  N         3.2938970463       -0.0126651817       15.5779390270
 Ga         3.2997994810        1.8247420393       15.8602798358
  N         1.5651524958        4.5515145601        2.5096944272
 Ga         1.7552346467        2.7156922063        3.2575977764
  N         1.6871951969        2.7535431942        5.2394804019
 Ga         1.7170423452        4.6161317793        5.8064913092
  N         1.6973847399        4.6166736101        7.7962828073
 Ga         1.6773019418        2.7572927894        8.4377717880
  N         1.6767932079        2.7606990145       10.4264418245
 Ga         1.7041172309        4.6191227041       11.0740768809
  N         1.7210140075        4.6304624805       13.0625403740
 Ga         1.6779621312        2.7602797686       13.6205021214
  N         1.7081906792        2.7429992692       15.5788735303
 Ga         1.5279491799        4.5191977603       16.4751431802
  N         0.0693921411        7.3759459547        2.6938231270
 Ga         0.0811907391        5.5330169281        3.3369402330
  N         0.0779268415        5.5512619585        5.2699120365
 Ga         0.0790335984        7.3902364005        5.9098198272
  N         0.0790687735        7.3971768613        7.8619373013
 Ga         0.0793244308        5.5225737006        8.4474635601
  N         0.0795857006        5.5263350459       10.4316216911
 Ga         0.0796037886        7.3967426854       11.0298867959
  N         0.0796986070        7.3971525276       12.9935430100
 Ga         0.0799697297        5.5279722962       13.6215109023
  N         0.0797901644        5.5637474353       15.5796424699
 Ga         0.0799847632        7.4013295261       15.8606329055
  N        -1.6321066496       10.1088792183        2.5137417654
 Ga        -1.5031538535        8.2985965221        3.3303910197
  N        -1.5190763211        8.3169508230        5.2563623794
 Ga        -1.5064341091       10.2023051209        5.8067507842
  N        -1.5194926311       10.1854682450        7.7922007355
 Ga        -1.5424771948        8.3318983434        8.4485582906
  N        -1.5407237808        8.3318484569       10.4302917545
 Ga        -1.5141180384       10.1920467678       11.0738392399
  N        -1.4960754195       10.2010715591       13.0602475893
 Ga        -1.5398598752        8.3318507224       13.6229971884
  N        -1.5140680632        8.3151448217       15.5785270461
 Ga        -1.6940271288       10.0868271310       16.4886810111
  N         6.5092130669        1.9482639811        2.5272721205
 Ga         6.5102649009       -0.0246922579        2.8648913010
  N         6.5096889050       -0.0336391389        5.0133836608
 Ga         6.5094536024        1.8001192820        5.8010036023
  N         6.5108911519        1.8129230432        7.7914419289
 Ga         6.5115639075       -0.0306761615        8.4476234245
  N         6.5118558157       -0.0314066387       10.4142985772
 Ga         6.5119085214        1.8092896682       11.0710656938
  N         6.5120468093        1.7892690733       13.0586910491
 Ga         6.5121006291       -0.0298080469       13.8774644856
  N         6.5120552641       -0.0302236134       16.0638777305
 Ga         6.5118955016        2.0166159820       16.4873403960
 Ga         6.5122848029        3.6805195451        1.5088742769
  N         5.0074399162        4.5489065583        2.5221627398
 Ga         4.7919148159        2.6960524718        3.2886500767
  N         4.9001515716        2.7527731539        5.2479415899
 Ga         4.8780360863        4.6248599193        5.8004840803
  N         4.8933456550        4.6169426244        7.7915737303
 Ga         4.9114880070        2.7586755653        8.4363903090
  N         4.9151386858        2.7610678354       10.4239209380
 Ga         4.8891137261        4.6200272377       11.0709011877
  N         4.8719934526        4.6300977955       13.0579714146
 Ga         4.9149194495        2.7614089844       13.6212068954
  N         4.8882986761        2.7481104116       15.5773072961
 Ga         5.0723951693        4.5153762120       16.4869698641
  N         6.5118154735        3.6781827392       17.6346311332
  N         3.2862043390        7.5168159548        2.5018500172
  N         3.2941138957        5.5402018804        5.0170887806
 Ga         3.2979919055        7.3616092517        5.8037665097
  N         3.2928486801        7.3864533638        7.7906495077
 Ga         3.2956514539        5.5387946661        8.4477690919
  N         3.2957000307        5.5405112321       10.4150186507
 Ga         3.2975956134        7.3788138611       11.0739790718
  N         3.2962775079        7.3598652799       13.0598059993
 Ga         3.2986594091        5.5410749971       13.8772290070
  N         3.2971148664        5.5407480894       16.0645273897
 Ga         3.2968654713        7.5912693604       16.4876816778
 Ga         3.3204201708        9.2705208522        1.4529229263
  N         1.7865939012       10.1112478618        2.5077986970
 Ga         1.6534180712        8.2983256621        3.3091421242
  N         1.6718561594        8.3150129791        5.2412996951
 Ga         1.6606337103       10.1980262036        5.8038117666
  N         1.6764496297       10.1836938317        7.7902786534
 Ga         1.6996827450        8.3317616487        8.4498153307
  N         1.6997527091        8.3320955358       10.4309874558
 Ga         1.6731746690       10.1923059189       11.0743262623
  N         1.6558794166       10.2010132491       13.0606446581
 Ga         1.6994146797        8.3315559439       13.6228063868
  N         1.6740603431        8.3151919030       15.5785259073
 Ga         1.8527903337       10.0871276035       16.4879284490
  N         3.2917383732        9.2564715655       17.6355011755
  N         9.7335310213        1.8285045992        2.6143920571
 Ga         9.7299246743        0.0860642755        3.2811606647
  N         9.7229970416       -0.0354225633        5.2427043922
 Ga         9.7317475951        1.8256007084        5.8722394694
  N         9.7265423582        1.8239914442        7.8431275795
 Ga         9.7291429129       -0.0423183742        8.4358671299
  N         9.7276145750       -0.0445412821       10.4232653813
 Ga         9.7277556015        1.8257506013       11.0250151839
  N         9.7276692997        1.8259082550       12.9905375678
 Ga         9.7290187440       -0.0429688904       13.6222375755
  N         9.7303066279       -0.0129688677       15.5781432836
 Ga         9.7245291324        1.8245539901       15.8603230248
  N         8.0116909231        4.5486804910        2.5256252532
 Ga         8.2255811738        2.6953735673        3.2923814887
  N         8.1191856604        2.7528260808        5.2510239939
 Ga         8.1430388605        4.6253647713        5.8000902665
  N         8.1291456624        4.6172797039        7.7916883124
 Ga         8.1102408063        2.7591369925        8.4369230277
  N         8.1084485809        2.7610012350       10.4243513722
 Ga         8.1342029922        4.6197076432       11.0715067779
  N         8.1520709600        4.6300952301       13.0584630397
 Ga         8.1091428594        2.7614185451       13.6214036252
  N         8.1359298400        2.7479168388       15.5775899148
 Ga         7.9515576043        4.5154580581       16.4869920539
  N         6.5074813837        7.3954106301        2.5989420310
 Ga         6.5087540259        5.6559629750        3.2881086918
  N         6.5101396006        5.5419019902        5.2470946444
 Ga         6.5087667998        7.3979788987        5.8716744433
  N         6.5104809801        7.3969996844        7.8402166607
 Ga         6.5112567367        5.5285438832        8.4372643437
  N         6.5117614355        5.5278024668       10.4246815619
 Ga         6.5116995821        7.3970804644       11.0260654549
  N         6.5117347853        7.3970547587       12.9923968890
 Ga         6.5120237018        5.5267276647       13.6210545277
  N         6.5119535997        5.5581936433       15.5762790468
 Ga         6.5120424846        7.3970044323       15.8536406720
  N         4.7991657838       10.1230577282        2.5134729075
 Ga         4.9991729192        8.2677998422        3.2773822157
  N         4.8988409886        8.3243458260        5.2391869545
 Ga         4.9310561715       10.1985824329        5.7921784466
  N         4.9136158708       10.1871675982        7.7855956967
 Ga         4.8941382393        8.3324993500        8.4359456559
  N         4.8925441271        8.3314863023       10.4234877478
 Ga         4.9189948839       10.1907909546       11.0706130053
  N         4.9360474208       10.2007046775       13.0577893167
 Ga         4.8926763382        8.3324495957       13.6218377577
  N         4.9196466076        8.3165572110       15.5768196115
 Ga         4.7365118130       10.0845455542       16.4875560431
  O         0.0211275065        4.1026985351       -0.4365077242
  H        -0.1684420000        5.8827892136       -0.3442813323
  C         1.1401720228        3.6498172664       -1.2215493374
  H         2.1054529887        3.9562159359       -0.7862286986
  H         1.1376503407        2.5539869872       -1.3262937241
  H         1.0490098708        4.0935821543       -2.2232534737
 Ga         3.2665434711        5.5156210251        2.8578121344
  O        -0.1904635738        6.8689772338       -0.2011667226
  H         0.0189606939        7.3071126585        1.6570678667
  C         0.9742820259        7.4192358155       -0.8271496786
  H         0.9188495749        8.5113908364       -0.7166185671
  H         1.9050503829        7.0645986392       -0.3491528662
  H         1.0171537938        7.1840338134       -1.9014403187
     212
 i =      122, E =     -8504.7381291590
  N         0.0766865570        1.9804160021        2.4940456229
 Ga         0.0618749073        0.0108909071        2.8265952959
  N         0.0801674977       -0.0219813905        5.0159066728
 Ga         0.0789290481        1.8033093122        5.7994570335
  N         0.0772410173        1.8189010725        7.8012433454
 Ga         0.0748669871       -0.0262860199        8.4438404099
  N         0.0759031166       -0.0272058854       10.4193264634
 Ga         0.0759428807        1.8130596652       11.0685694221
  N         0.0759039035        1.7936614897       13.0629526256
 Ga         0.0760006741       -0.0257124296       13.8666463893
  N         0.0757176001       -0.0247456004       16.0688811893
 Ga         0.0754412017        2.0204244170       16.4814541897
 Ga         0.0467835432        3.6838110025        1.3691763604
  N        -1.4093153278        4.5509897208        2.5255056009
 Ga        -1.6033553275        2.7080324922        3.2821594332
  N        -1.5319539874        2.7577255847        5.2594716651
 Ga        -1.5602509648        4.6230578773        5.8089135939
  N        -1.5415462611        4.6225258992        7.8039529724
 Ga        -1.5223188648        2.7615482858        8.4363905670
  N        -1.5210179199        2.7655063955       10.4317124190
 Ga        -1.5472589815        4.6231037272       11.0719477234
  N        -1.5639908108        4.6337752160       13.0654816396
 Ga        -1.5211991359        2.7641163636       13.6201355909
  N        -1.5476147375        2.7483568486       15.5818834425
 Ga        -1.3745021177        4.5241406614       16.4810970806
  N         0.0750776508        3.6953093622       17.6164541079
  N        -3.1330505737        7.5225957720        2.5292926072
 Ga        -3.1122577624        5.5184545492        2.8531471712
  N        -3.1381816350        5.5446529704        5.0222529764
 Ga        -3.1457660746        7.3651274820        5.8083139571
  N        -3.1384893979        7.3902717507        7.7996640124
 Ga        -3.1399444776        5.5431964226        8.4504222421
  N        -3.1402311933        5.5447481589       10.4225932938
 Ga        -3.1415597296        7.3838070231       11.0727958178
  N        -3.1405274466        7.3645354909       13.0653190145