 DBCSR| Multiplication driver                                               BLAS
 DBCSR| Multrec recursion limit                                              512
 DBCSR| Multiplication stack size                                           1000
 DBCSR| Maximum elements for images                                    UNLIMITED
 DBCSR| Multiplicative factor virtual images                                   1
 DBCSR| Multiplication size stacks                                             3
 DBCSR| Number of 3D layers                                               SINGLE
 DBCSR| Use MPI memory allocation                                              T
 DBCSR| Use RMA algorithm                                                      F
 DBCSR| Use Communication thread                                               T
 DBCSR| Communication thread load                                             87


  **** **** ******  **  PROGRAM STARTED AT               2019-07-12 15:31:17.369
 ***** ** ***  *** **   PROGRAM STARTED ON        blg9123.int.ets1.calculquebec.
 **    ****   ******    PROGRAM STARTED BY                                   rzk
 ***** **    ** ** **   PROGRAM PROCESS ID                                250820
  **** **  *******  **  PROGRAM STARTED IN /lustre04/scratch/rzk/rzk/GaN-carbene
                                           /443-adatoms-both-2x2/09-BondBreaking
                                           -CH/02-0401-CH-to-NTop-PES

 CP2K| version string:                    CP2K version 7.0 (Development Version)
 CP2K| source code revision number:                                    svn:18619
 CP2K| cp2kflags: libint fftw3 libxc parallel mpi3 scalapack mkl                
 CP2K| is freely available from                            https://www.cp2k.org/
 CP2K| Program compiled at                          Sun Apr  7 00:48:11 EDT 2019
 CP2K| Program compiled on                      beluga2.int.ets1.calculquebec.ca
 CP2K| Program compiled for                    Beluga-Linux-x86-64-intel-openmpi
 CP2K| Data directory path    /home/rzk/projects/def-rzk/group/cp2k/cp2k-mcgill/
 CP2K| Input file name                                            TEST-1.restart
 
 GLOBAL| Force Environment number                                              1
 GLOBAL| Basis set file name                                        BASIS_MOLOPT
 GLOBAL| Potential file name                                      GTH_POTENTIALS
 GLOBAL| MM Potential file name                                     MM_POTENTIAL
 GLOBAL| Coordinate file name                                      __STD_INPUT__
 GLOBAL| Method name                                                        CP2K
 GLOBAL| Project name                                                       TEST
 GLOBAL| Preferred FFT library                                             FFTW3
 GLOBAL| Preferred diagonalization lib.                                       SL
 GLOBAL| Run type                                                        GEO_OPT
 GLOBAL| All-to-all communication in single precision                          F
 GLOBAL| FFTs using library dependent lengths                                  F
 GLOBAL| Global print level                                               MEDIUM
 GLOBAL| MPI I/O enabled                                                       T
 GLOBAL| Total number of message passing processes                            80
 GLOBAL| Number of threads for this process                                    1
 GLOBAL| This output is from process                                           0
 GLOBAL| CPU model name :  Intel(R) Xeon(R) Gold 6148 CPU @ 2.40GHz

 MEMORY| system memory details [Kb]
 MEMORY|                        rank 0           min           max       average
 MEMORY| MemTotal            196614300     196614300     196614300     196614300
 MEMORY| MemFree             181903440     180212308     181903440     181096525
 MEMORY| Buffers                     0             0             0             0
 MEMORY| Cached                2224964       1497348       2224964       1861156
 MEMORY| Slab                  1028228       1028228       1593060       1310644
 MEMORY| SReclaimable           136168        136168        164224        150196
 MEMORY| MemLikelyFree       184264572     181873880     184264572     183107877


 *** Fundamental physical constants (SI units) ***

 *** Literature: B. J. Mohr and B. N. Taylor,
 ***             CODATA recommended values of the fundamental physical
 ***             constants: 2006, Web Version 5.1
 ***             http://physics.nist.gov/constants

 Speed of light in vacuum [m/s]                             2.99792458000000E+08
 Magnetic constant or permeability of vacuum [N/A**2]       1.25663706143592E-06
 Electric constant or permittivity of vacuum [F/m]          8.85418781762039E-12
 Planck constant (h) [J*s]                                  6.62606896000000E-34
 Planck constant (h-bar) [J*s]                              1.05457162825177E-34
 Elementary charge [C]                                      1.60217648700000E-19
 Electron mass [kg]                                         9.10938215000000E-31
 Electron g factor [ ]                                     -2.00231930436220E+00
 Proton mass [kg]                                           1.67262163700000E-27
 Fine-structure constant                                    7.29735253760000E-03
 Rydberg constant [1/m]                                     1.09737315685270E+07
 Avogadro constant [1/mol]                                  6.02214179000000E+23
 Boltzmann constant [J/K]                                   1.38065040000000E-23
 Atomic mass unit [kg]                                      1.66053878200000E-27
 Bohr radius [m]                                            5.29177208590000E-11

 *** Conversion factors ***

 [u] -> [a.u.]                                              1.82288848426455E+03
 [Angstrom] -> [Bohr] = [a.u.]                              1.88972613288564E+00
 [a.u.] = [Bohr] -> [Angstrom]                              5.29177208590000E-01
 [a.u.] -> [s]                                              2.41888432650478E-17
 [a.u.] -> [fs]                                             2.41888432650478E-02
 [a.u.] -> [J]                                              4.35974393937059E-18
 [a.u.] -> [N]                                              8.23872205491840E-08
 [a.u.] -> [K]                                              3.15774647902944E+05
 [a.u.] -> [kJ/mol]                                         2.62549961709828E+03
 [a.u.] -> [kcal/mol]                                       6.27509468713739E+02
 [a.u.] -> [Pa]                                             2.94210107994716E+13
 [a.u.] -> [bar]                                            2.94210107994716E+08
 [a.u.] -> [atm]                                            2.90362800883016E+08
 [a.u.] -> [eV]                                             2.72113838565563E+01
 [a.u.] -> [Hz]                                             6.57968392072181E+15
 [a.u.] -> [1/cm] (wave numbers)                            2.19474631370540E+05
 [a.u./Bohr**2] -> [1/cm]                                   5.14048714338585E+03
 
          ----------------------------------------------------------------------
 COLVARS| COLVAR INPUT INDEX:        1
 COLVARS| BOND          >>> ATOMS:                                   127     211
          ----------------------------------------------------------------------

 CELL_TOP| Volume [angstrom^3]:                                         4586.323
 CELL_TOP| Vector a [angstrom    12.864     0.000     0.000    |a| =      12.864
 CELL_TOP| Vector b [angstrom    -6.432    11.141     0.000    |b| =      12.864
 CELL_TOP| Vector c [angstrom     0.000     0.000    32.000    |c| =      32.000
 CELL_TOP| Angle (b,c), alpha [degree]:                                   90.000
 CELL_TOP| Angle (a,c), beta  [degree]:                                   90.000
 CELL_TOP| Angle (a,b), gamma [degree]:                                  120.000
 CELL_TOP| Numerically orthorhombic:                                          NO
 RESTRAINT| Active restraint on COLLECTIVE section Nr.     1. K [a.u.]= 2.000000
 
 GENERATE|  Preliminary Number of Bonds generated:                             0
 GENERATE|  Achieved consistency in connectivity generation.

 CELL| Volume [angstrom^3]:                                             4586.323
 CELL| Vector a [angstrom]:      12.864     0.000     0.000    |a| =      12.864
 CELL| Vector b [angstrom]:      -6.432    11.141     0.000    |b| =      12.864
 CELL| Vector c [angstrom]:       0.000     0.000    32.000    |c| =      32.000
 CELL| Angle (b,c), alpha [degree]:                                       90.000
 CELL| Angle (a,c), beta  [degree]:                                       90.000
 CELL| Angle (a,b), gamma [degree]:                                      120.000
 CELL| Numerically orthorhombic:                                              NO

 CELL_REF| Volume [angstrom^3]:                                         4670.759
 CELL_REF| Vector a [angstrom    12.982     0.000     0.000    |a| =      12.982
 CELL_REF| Vector b [angstrom    -6.491    11.243     0.000    |b| =      12.982
 CELL_REF| Vector c [angstrom     0.000     0.000    32.000    |c| =      32.000
 CELL_REF| Angle (b,c), alpha [degree]:                                   90.000
 CELL_REF| Angle (a,c), beta  [degree]:                                   90.000
 CELL_REF| Angle (a,b), gamma [degree]:                                  120.000
 CELL_REF| Numerically orthorhombic:                                          NO

 *******************************************************************************
 *******************************************************************************
 **                                                                           **
 **     #####                         ##              ##                      **
 **    ##   ##            ##          ##              ##                      **
 **   ##     ##                       ##            ######                    **
 **   ##     ##  ##   ##  ##   #####  ##  ##   ####   ##    #####    #####    **
 **   ##     ##  ##   ##  ##  ##      ## ##   ##      ##   ##   ##  ##   ##   **
 **   ##  ## ##  ##   ##  ##  ##      ####     ###    ##   ######   ######    **
 **    ##  ###   ##   ##  ##  ##      ## ##      ##   ##   ##       ##        **
 **     #######   #####   ##   #####  ##  ##  ####    ##    #####   ##        **
 **           ##                                                    ##        **
 **                                                                           **
 **                                                ... make the atoms dance   **
 **                                                                           **
 **            Copyright (C) by CP2K developers group (2000 - 2018)           **
 **                                                                           **
 *******************************************************************************

 DFT| Spin unrestricted (spin-polarized) Kohn-Sham calculation               UKS
 DFT| Multiplicity                                                             1
 DFT| Number of spin states                                                    2
 DFT| Charge                                                                   0
 DFT| Self-interaction correction (SIC)                                       NO
 DFT| Cutoffs: density                                              1.000000E-10
 DFT|          gradient                                             1.000000E-10
 DFT|          tau                                                  1.000000E-10
 DFT|          cutoff_smoothing_range                               0.000000E+00
 DFT| XC density smoothing                                                  NONE
 DFT| XC derivatives                                                          PW
 FUNCTIONAL| ROUTINE=NEW
 FUNCTIONAL| PBE:
 FUNCTIONAL| J.P.Perdew, K.Burke, M.Ernzerhof, Phys. Rev. Letter, vol. 77, n 18,
 FUNCTIONAL|  pp. 3865-3868, (1996){spin polarized}                             
 vdW POTENTIAL|                                                   Pair Potential
 vdW POTENTIAL|          DFT-D3 (Version 3.1)
 vdW POTENTIAL|          Potential Form: S. Grimme et al, JCP 132: 154104 (2010)
 vdW POTENTIAL|          Zero Damping
 vdW POTENTIAL|          Cutoff Radius [Bohr]:                             18.90
 vdW POTENTIAL|          s6 Scaling Factor:                               1.0000
 vdW POTENTIAL|          sr6 Scaling Factor:                              1.2170
 vdW POTENTIAL|          s8 Scaling Factor:                               0.7220
 vdW POTENTIAL|          Cutoff for CN calculation:                   0.1000E-05

 QS| Method:                                                                 GPW
 QS| Density plane wave grid type                        NON-SPHERICAL FULLSPACE
 QS| Number of grid levels:                                                    5
 QS| Density cutoff [a.u.]:                                                600.0
 QS| Multi grid cutoff [a.u.]: 1) grid level                               600.0
 QS|                           2) grid level                               200.0
 QS|                           3) grid level                                66.7
 QS|                           4) grid level                                22.2
 QS|                           5) grid level                                 7.4
 QS| Grid level progression factor:                                          3.0
 QS| Relative density cutoff [a.u.]:                                        20.0
 QS| Consistent realspace mapping and integration 
 QS| Interaction thresholds: eps_pgf_orb:                                1.0E-07
 QS|                         eps_filter_matrix:                          0.0E+00
 QS|                         eps_core_charge:                            1.0E-16
 QS|                         eps_rho_gspace:                             1.0E-14
 QS|                         eps_rho_rspace:                             1.0E-14
 QS|                         eps_gvg_rspace:                             1.0E-07
 QS|                         eps_ppl:                                    1.0E-02
 QS|                         eps_ppnl:                                   1.0E-09


 ATOMIC KIND INFORMATION

  1. Atomic kind: N                                     Number of atoms:     100

     Orbital Basis Set                                        DZVP-MOLOPT-SR-GTH

       Number of orbital shell sets:                                           1
       Number of orbital shells:                                               5
       Number of primitive Cartesian functions:                                5
       Number of Cartesian basis functions:                                   14
       Number of spherical basis functions:                                   13
       Norm type:                                                              2

       Normalised Cartesian orbitals:

                        Set   Shell   Orbital            Exponent    Coefficient

                          1       1    2s                7.341988       0.360561
                                                         2.542637       0.139177
                                                         0.888575      -0.289383
                                                         0.333802      -0.182244
                                                         0.112012      -0.019197

                          1       2    3s                7.341988       0.282000
                                                         2.542637       0.177875
                                                         0.888575      -0.278381
                                                         0.333802       0.008577
                                                         0.112012       0.154176

                          1       3    3px               7.341988      -1.188719
                                                         2.542637      -0.973969
                                                         0.888575      -0.501079
                                                         0.333802      -0.144894
                                                         0.112012      -0.013986
                          1       3    3py               7.341988      -1.188719
                                                         2.542637      -0.973969
                                                         0.888575      -0.501079
                                                         0.333802      -0.144894
                                                         0.112012      -0.013986
                          1       3    3pz               7.341988      -1.188719
                                                         2.542637      -0.973969
                                                         0.888575      -0.501079
                                                         0.333802      -0.144894
                                                         0.112012      -0.013986

                          1       4    4px               7.341988      -0.094798
                                                         2.542637       0.050069
                                                         0.888575      -0.114797
                                                         0.333802       0.144793
                                                         0.112012       0.066710
                          1       4    4py               7.341988      -0.094798
                                                         2.542637       0.050069
                                                         0.888575      -0.114797
                                                         0.333802       0.144793
                                                         0.112012       0.066710
                          1       4    4pz               7.341988      -0.094798
                                                         2.542637       0.050069
                                                         0.888575      -0.114797
                                                         0.333802       0.144793
                                                         0.112012       0.066710

                          1       5    4dx2              7.341988       1.354688
                                                         2.542637       0.690378
                                                         0.888575       0.855359
                                                         0.333802       0.091746
                                                         0.112012       0.001253
                          1       5    4dxy              7.341988       2.346389
                                                         2.542637       1.195770
                                                         0.888575       1.481524
                                                         0.333802       0.158910
                                                         0.112012       0.002169
                          1       5    4dxz              7.341988       2.346389
                                                         2.542637       1.195770
                                                         0.888575       1.481524
                                                         0.333802       0.158910
                                                         0.112012       0.002169
                          1       5    4dy2              7.341988       1.354688
                                                         2.542637       0.690378
                                                         0.888575       0.855359
                                                         0.333802       0.091746
                                                         0.112012       0.001253
                          1       5    4dyz              7.341988       2.346389
                                                         2.542637       1.195770
                                                         0.888575       1.481524
                                                         0.333802       0.158910
                                                         0.112012       0.002169
                          1       5    4dz2              7.341988       1.354688
                                                         2.542637       0.690378
                                                         0.888575       0.855359
                                                         0.333802       0.091746
                                                         0.112012       0.001253

     GTH Potential information for                                    GTH-PBE-q5

       Description:                       Goedecker-Teter-Hutter pseudopotential
                                           Goedecker et al., PRB 54, 1703 (1996)
                                          Hartwigsen et al., PRB 58, 3641 (1998)
                                                      Krack, TCA 114, 145 (2005)

       Gaussian exponent of the core charge distribution:               6.208322
       Electronic configuration (s p d ...):                               2   3

       Parameters of the local part of the GTH pseudopotential:

                          rloc        C1          C2          C3          C4
                        0.283791  -12.415226    1.868096

       Parameters of the non-local part of the GTH pseudopotential:

                   l      r(l)      h(i,j,l)

                   0    0.255405   13.630263
                   1    0.245495

  2. Atomic kind: Ga                                    Number of atoms:     100

     Orbital Basis Set                                        DZVP-MOLOPT-SR-GTH

       Number of orbital shell sets:                                           1
       Number of orbital shells:                                               7
       Number of primitive Cartesian functions:                                6
       Number of Cartesian basis functions:                                   30
       Number of spherical basis functions:                                   25
       Norm type:                                                              2

       Normalised Cartesian orbitals:

                        Set   Shell   Orbital            Exponent    Coefficient

                          1       1    2s                7.066654       0.013136
                                                         3.428369      -0.094392
                                                         1.430064       0.265435
                                                         0.571611       0.056465
                                                         0.232197      -0.192187
                                                         0.076562      -0.044987

                          1       2    3s                7.066654      -0.098564
                                                         3.428369       0.010390
                                                         1.430064       0.351249
                                                         0.571611       0.182615
                                                         0.232197      -0.425358
                                                         0.076562       0.190349

                          1       3    3px               7.066654       0.002364
                                                         3.428369       0.019222
                                                         1.430064       0.250132
                                                         0.571611      -0.058486
                                                         0.232197      -0.159451
                                                         0.076562      -0.020696
                          1       3    3py               7.066654       0.002364
                                                         3.428369       0.019222
                                                         1.430064       0.250132
                                                         0.571611      -0.058486
                                                         0.232197      -0.159451
                                                         0.076562      -0.020696
                          1       3    3pz               7.066654       0.002364
                                                         3.428369       0.019222
                                                         1.430064       0.250132
                                                         0.571611      -0.058486
                                                         0.232197      -0.159451
                                                         0.076562      -0.020696

                          1       4    4px               7.066654       0.492448
                                                         3.428369      -0.614736
                                                         1.430064      -0.191654
                                                         0.571611       0.037801
                                                         0.232197       0.302315
                                                         0.076562      -0.071336
                          1       4    4py               7.066654       0.492448
                                                         3.428369      -0.614736
                                                         1.430064      -0.191654
                                                         0.571611       0.037801
                                                         0.232197       0.302315
                                                         0.076562      -0.071336
                          1       4    4pz               7.066654       0.492448
                                                         3.428369      -0.614736
                                                         1.430064      -0.191654
                                                         0.571611       0.037801
                                                         0.232197       0.302315
                                                         0.076562      -0.071336

                          1       5    4dx2              7.066654     -15.264855
                                                         3.428369      -5.345726
                                                         1.430064      -1.022732
                                                         0.571611      -0.123148
                                                         0.232197      -0.006983
                                                         0.076562      -0.000022
                          1       5    4dxy              7.066654     -26.439504
                                                         3.428369      -9.259069
                                                         1.430064      -1.771423
                                                         0.571611      -0.213299
                                                         0.232197      -0.012094
                                                         0.076562      -0.000037
                          1       5    4dxz              7.066654     -26.439504
                                                         3.428369      -9.259069
                                                         1.430064      -1.771423
                                                         0.571611      -0.213299
                                                         0.232197      -0.012094
                                                         0.076562      -0.000037
                          1       5    4dy2              7.066654     -15.264855
                                                         3.428369      -5.345726
                                                         1.430064      -1.022732
                                                         0.571611      -0.123148
                                                         0.232197      -0.006983
                                                         0.076562      -0.000022
                          1       5    4dyz              7.066654     -26.439504
                                                         3.428369      -9.259069
                                                         1.430064      -1.771423
                                                         0.571611      -0.213299
                                                         0.232197      -0.012094
                                                         0.076562      -0.000037
                          1       5    4dz2              7.066654     -15.264855
                                                         3.428369      -5.345726
                                                         1.430064      -1.022732
                                                         0.571611      -0.123148
                                                         0.232197      -0.006983
                                                         0.076562      -0.000022

                          1       6    5dx2              7.066654      -5.739265
                                                         3.428369      -2.129289
                                                         1.430064      -0.700423
                                                         0.571611       0.161606
                                                         0.232197       0.043513
                                                         0.076562       0.011205
                          1       6    5dxy              7.066654      -9.940698
                                                         3.428369      -3.688037
                                                         1.430064      -1.213168
                                                         0.571611       0.279909
                                                         0.232197       0.075368
                                                         0.076562       0.019407
                          1       6    5dxz              7.066654      -9.940698
                                                         3.428369      -3.688037
                                                         1.430064      -1.213168
                                                         0.571611       0.279909
                                                         0.232197       0.075368
                                                         0.076562       0.019407
                          1       6    5dy2              7.066654      -5.739265
                                                         3.428369      -2.129289
                                                         1.430064      -0.700423
                                                         0.571611       0.161606
                                                         0.232197       0.043513
                                                         0.076562       0.011205
                          1       6    5dyz              7.066654      -9.940698
                                                         3.428369      -3.688037
                                                         1.430064      -1.213168
                                                         0.571611       0.279909
                                                         0.232197       0.075368
                                                         0.076562       0.019407
                          1       6    5dz2              7.066654      -5.739265
                                                         3.428369      -2.129289
                                                         1.430064      -0.700423
                                                         0.571611       0.161606
                                                         0.232197       0.043513
                                                         0.076562       0.011205

                          1       7    5fx3              7.066654       0.705879
                                                         3.428369      -0.273976
                                                         1.430064       0.113667
                                                         0.571611       0.132480
                                                         0.232197       0.012437
                                                         0.076562       0.003241
                          1       7    5fx2y             7.066654       1.578393
                                                         3.428369      -0.612629
                                                         1.430064       0.254167
                                                         0.571611       0.296234
                                                         0.232197       0.027811
                                                         0.076562       0.007246
                          1       7    5fx2z             7.066654       1.578393
                                                         3.428369      -0.612629
                                                         1.430064       0.254167
                                                         0.571611       0.296234
                                                         0.232197       0.027811
                                                         0.076562       0.007246
                          1       7    5fxy2             7.066654       1.578393
                                                         3.428369      -0.612629
                                                         1.430064       0.254167
                                                         0.571611       0.296234
                                                         0.232197       0.027811
                                                         0.076562       0.007246
                          1       7    5fxyz             7.066654       2.733856
                                                         3.428369      -1.061105
                                                         1.430064       0.440230
                                                         0.571611       0.513092
                                                         0.232197       0.048170
                                                         0.076562       0.012551
                          1       7    5fxz2             7.066654       1.578393
                                                         3.428369      -0.612629
                                                         1.430064       0.254167
                                                         0.571611       0.296234
                                                         0.232197       0.027811
                                                         0.076562       0.007246
                          1       7    5fy3              7.066654       0.705879
                                                         3.428369      -0.273976
                                                         1.430064       0.113667
                                                         0.571611       0.132480
                                                         0.232197       0.012437
                                                         0.076562       0.003241
                          1       7    5fy2z             7.066654       1.578393
                                                         3.428369      -0.612629
                                                         1.430064       0.254167
                                                         0.571611       0.296234
                                                         0.232197       0.027811
                                                         0.076562       0.007246
                          1       7    5fyz2             7.066654       1.578393
                                                         3.428369      -0.612629
                                                         1.430064       0.254167
                                                         0.571611       0.296234
                                                         0.232197       0.027811
                                                         0.076562       0.007246
                          1       7    5fz3              7.066654       0.705879
                                                         3.428369      -0.273976
                                                         1.430064       0.113667
                                                         0.571611       0.132480
                                                         0.232197       0.012437
                                                         0.076562       0.003241

     GTH Potential information for                                   GTH-PBE-q13

       Description:                       Goedecker-Teter-Hutter pseudopotential
                                           Goedecker et al., PRB 54, 1703 (1996)
                                          Hartwigsen et al., PRB 58, 3641 (1998)
                                                      Krack, TCA 114, 145 (2005)

       Gaussian exponent of the core charge distribution:               2.082466
       Electronic configuration (s p d ...):                           2   1  10

       Parameters of the local part of the GTH pseudopotential:

                          rloc        C1          C2          C3          C4
                        0.490000

       Parameters of the non-local part of the GTH pseudopotential:

                   l      r(l)      h(i,j,l)

                   0    0.416777   10.475690   -4.921768    0.870706
                                   -4.921768    7.770178   -2.248152
                                    0.870706   -2.248152    1.784415
                   1    0.569627    1.777985    0.195860
                                    0.195860   -0.231744
                   2    0.238126  -16.248680

  3. Atomic kind: O                                     Number of atoms:       2

     Orbital Basis Set                                     DZVP-MOLOPT-SR-GTH-q6

       Number of orbital shell sets:                                           1
       Number of orbital shells:                                               5
       Number of primitive Cartesian functions:                                5
       Number of Cartesian basis functions:                                   14
       Number of spherical basis functions:                                   13
       Norm type:                                                              2

       Normalised Cartesian orbitals:

                        Set   Shell   Orbital            Exponent    Coefficient

                          1       1    2s               10.389228       0.396646
                                                         3.849621       0.208811
                                                         1.388401      -0.301641
                                                         0.496955      -0.274061
                                                         0.162492      -0.033677

                          1       2    3s               10.389228       0.303673
                                                         3.849621       0.240943
                                                         1.388401      -0.313066
                                                         0.496955      -0.043055
                                                         0.162492       0.213991

                          1       3    3px              10.389228      -1.530415
                                                         3.849621      -1.371928
                                                         1.388401      -0.761951
                                                         0.496955      -0.253695
                                                         0.162492      -0.035541
                          1       3    3py              10.389228      -1.530415
                                                         3.849621      -1.371928
                                                         1.388401      -0.761951
                                                         0.496955      -0.253695
                                                         0.162492      -0.035541
                          1       3    3pz              10.389228      -1.530415
                                                         3.849621      -1.371928
                                                         1.388401      -0.761951
                                                         0.496955      -0.253695
                                                         0.162492      -0.035541

                          1       4    4px              10.389228      -0.565392
                                                         3.849621      -0.038231
                                                         1.388401      -0.382373
                                                         0.496955       0.179070
                                                         0.162492       0.122714
                          1       4    4py              10.389228      -0.565392
                                                         3.849621      -0.038231
                                                         1.388401      -0.382373
                                                         0.496955       0.179070
                                                         0.162492       0.122714
                          1       4    4pz              10.389228      -0.565392
                                                         3.849621      -0.038231
                                                         1.388401      -0.382373
                                                         0.496955       0.179070
                                                         0.162492       0.122714

                          1       5    4dx2             10.389228       1.867377
                                                         3.849621       0.670994
                                                         1.388401       1.353441
                                                         0.496955       0.273538
                                                         0.162492       0.006620
                          1       5    4dxy             10.389228       3.234392
                                                         3.849621       1.162195
                                                         1.388401       2.344229
                                                         0.496955       0.473781
                                                         0.162492       0.011466
                          1       5    4dxz             10.389228       3.234392
                                                         3.849621       1.162195
                                                         1.388401       2.344229
                                                         0.496955       0.473781
                                                         0.162492       0.011466
                          1       5    4dy2             10.389228       1.867377
                                                         3.849621       0.670994
                                                         1.388401       1.353441
                                                         0.496955       0.273538
                                                         0.162492       0.006620
                          1       5    4dyz             10.389228       3.234392
                                                         3.849621       1.162195
                                                         1.388401       2.344229
                                                         0.496955       0.473781
                                                         0.162492       0.011466
                          1       5    4dz2             10.389228       1.867377
                                                         3.849621       0.670994
                                                         1.388401       1.353441
                                                         0.496955       0.273538
                                                         0.162492       0.006620

     GTH Potential information for                                    GTH-PBE-q6

       Description:                       Goedecker-Teter-Hutter pseudopotential
                                           Goedecker et al., PRB 54, 1703 (1996)
                                          Hartwigsen et al., PRB 58, 3641 (1998)
                                                      Krack, TCA 114, 145 (2005)

       Gaussian exponent of the core charge distribution:               8.360253
       Electronic configuration (s p d ...):                               2   4

       Parameters of the local part of the GTH pseudopotential:

                          rloc        C1          C2          C3          C4
                        0.244554  -16.667215    2.487311

       Parameters of the non-local part of the GTH pseudopotential:

                   l      r(l)      h(i,j,l)

                   0    0.220956   18.337458
                   1    0.211332

  4. Atomic kind: H                                     Number of atoms:       8

     Orbital Basis Set                                     DZVP-MOLOPT-SR-GTH-q1

       Number of orbital shell sets:                                           1
       Number of orbital shells:                                               3
       Number of primitive Cartesian functions:                                5
       Number of Cartesian basis functions:                                    5
       Number of spherical basis functions:                                    5
       Norm type:                                                              2

       Normalised Cartesian orbitals:

                        Set   Shell   Orbital            Exponent    Coefficient

                          1       1    2s               10.068468      -0.133023
                                                         2.680223      -0.177618
                                                         0.791502      -0.258419
                                                         0.239116      -0.107525
                                                         0.082193      -0.014019

                          1       2    3s               10.068468       0.344673
                                                         2.680223       1.819821
                                                         0.791502      -0.999069
                                                         0.239116       0.017430
                                                         0.082193       0.082660

                          1       3    3px              10.068468       0.155326
                                                         2.680223       0.367157
                                                         0.791502       0.311480
                                                         0.239116       0.080105
                                                         0.082193       0.033440
                          1       3    3py              10.068468       0.155326
                                                         2.680223       0.367157
                                                         0.791502       0.311480
                                                         0.239116       0.080105
                                                         0.082193       0.033440
                          1       3    3pz              10.068468       0.155326
                                                         2.680223       0.367157
                                                         0.791502       0.311480
                                                         0.239116       0.080105
                                                         0.082193       0.033440

     GTH Potential information for                                    GTH-PBE-q1

       Description:                       Goedecker-Teter-Hutter pseudopotential
                                           Goedecker et al., PRB 54, 1703 (1996)
                                          Hartwigsen et al., PRB 58, 3641 (1998)
                                                      Krack, TCA 114, 145 (2005)

       Gaussian exponent of the core charge distribution:              12.500000
       Electronic configuration (s p d ...):                                   1

       Parameters of the local part of the GTH pseudopotential:

                          rloc        C1          C2          C3          C4
                        0.200000   -4.178900    0.724463

  5. Atomic kind: C                                     Number of atoms:       2

     Orbital Basis Set                                     DZVP-MOLOPT-SR-GTH-q4

       Number of orbital shell sets:                                           1
       Number of orbital shells:                                               5
       Number of primitive Cartesian functions:                                5
       Number of Cartesian basis functions:                                   14
       Number of spherical basis functions:                                   13
       Norm type:                                                              2

       Normalised Cartesian orbitals:

                        Set   Shell   Orbital            Exponent    Coefficient

                          1       1    2s                5.605331       0.322515
                                                         2.113016       0.213043
                                                         0.769911      -0.209686
                                                         0.348157      -0.219794
                                                         0.128212      -0.022789

                          1       2    3s                5.605331       0.552234
                                                         2.113016       0.082072
                                                         0.769911       0.007843
                                                         0.348157       0.136893
                                                         0.128212       0.074283

                          1       3    3px               5.605331      -0.703879
                                                         2.113016      -0.642521
                                                         0.769911      -0.374851
                                                         0.348157      -0.139743
                                                         0.128212      -0.027849
                          1       3    3py               5.605331      -0.703879
                                                         2.113016      -0.642521
                                                         0.769911      -0.374851
                                                         0.348157      -0.139743
                                                         0.128212      -0.027849
                          1       3    3pz               5.605331      -0.703879
                                                         2.113016      -0.642521
                                                         0.769911      -0.374851
                                                         0.348157      -0.139743
                                                         0.128212      -0.027849

                          1       4    4px               5.605331      -0.480376
                                                         2.113016      -0.552894
                                                         0.769911      -0.316145
                                                         0.348157       0.210505
                                                         0.128212       0.076095
                          1       4    4py               5.605331      -0.480376
                                                         2.113016      -0.552894
                                                         0.769911      -0.316145
                                                         0.348157       0.210505
                                                         0.128212       0.076095
                          1       4    4pz               5.605331      -0.480376
                                                         2.113016      -0.552894
                                                         0.769911      -0.316145
                                                         0.348157       0.210505
                                                         0.128212       0.076095

                          1       5    4dx2              5.605331       0.640026
                                                         2.113016       0.274300
                                                         0.769911       0.446711
                                                         0.348157       0.028674
                                                         0.128212       0.029790
                          1       5    4dxy              5.605331       1.108557
                                                         2.113016       0.475102
                                                         0.769911       0.773726
                                                         0.348157       0.049666
                                                         0.128212       0.051599
                          1       5    4dxz              5.605331       1.108557
                                                         2.113016       0.475102
                                                         0.769911       0.773726
                                                         0.348157       0.049666
                                                         0.128212       0.051599
                          1       5    4dy2              5.605331       0.640026
                                                         2.113016       0.274300
                                                         0.769911       0.446711
                                                         0.348157       0.028674
                                                         0.128212       0.029790
                          1       5    4dyz              5.605331       1.108557
                                                         2.113016       0.475102
                                                         0.769911       0.773726
                                                         0.348157       0.049666
                                                         0.128212       0.051599
                          1       5    4dz2              5.605331       0.640026
                                                         2.113016       0.274300
                                                         0.769911       0.446711
                                                         0.348157       0.028674
                                                         0.128212       0.029790

     GTH Potential information for                                    GTH-PBE-q4

       Description:                       Goedecker-Teter-Hutter pseudopotential
                                           Goedecker et al., PRB 54, 1703 (1996)
                                          Hartwigsen et al., PRB 58, 3641 (1998)
                                                      Krack, TCA 114, 145 (2005)

       Gaussian exponent of the core charge distribution:               4.364419
       Electronic configuration (s p d ...):                               2   2

       Parameters of the local part of the GTH pseudopotential:

                          rloc        C1          C2          C3          C4
                        0.338471   -8.803674    1.339211

       Parameters of the non-local part of the GTH pseudopotential:

                   l      r(l)      h(i,j,l)

                   0    0.302576    9.622487
                   1    0.291507


 MOLECULE KIND INFORMATION


 All atoms are their own molecule, skipping detailed information


 TOTAL NUMBERS AND MAXIMUM NUMBERS

  Total number of            - Atomic kinds:                                   5
                             - Atoms:                                        212
                             - Shell sets:                                   212
                             - Shells:                                      1244
                             - Primitive Cartesian functions:               1160
                             - Cartesian basis functions:                   4496
                             - Spherical basis functions:                   3892

  Maximum angular momentum of- Orbital basis functions:                        3
                             - Local part of the GTH pseudopotential:          2
                             - Non-local part of the GTH pseudopotential:      4


 MODULE QUICKSTEP:  ATOMIC COORDINATES IN angstrom

  Atom  Kind  Element       X           Y           Z          Z(eff)       Mass

       1     1 N    7    0.036995    1.986033    2.492191      5.00      14.0067
       2     2 Ga  31    0.034421    0.020474    2.829658     13.00      69.7230
       3     1 N    7    0.039097   -0.015544    5.013673      5.00      14.0067
       4     2 Ga  31    0.037838    1.808615    5.798840     13.00      69.7230
       5     1 N    7    0.037966    1.823675    7.799832      5.00      14.0067
       6     2 Ga  31    0.037567   -0.022837    8.438418     13.00      69.7230
       7     1 N    7    0.038635   -0.022948   10.414938      5.00      14.0067
       8     2 Ga  31    0.039217    1.817188   11.065046     13.00      69.7230
       9     1 N    7    0.039582    1.797835   13.060255      5.00      14.0067
      10     2 Ga  31    0.039722   -0.022053   13.862643     13.00      69.7230
      11     1 N    7    0.039818   -0.020035   16.066807      5.00      14.0067
      12     2 Ga  31    0.039303    2.023182   16.476924     13.00      69.7230
      13     2 Ga  31    0.021863    3.692702    1.364751     13.00      69.7230
      14     1 N    7   -1.442474    4.562343    2.512118      5.00      14.0067
      15     2 Ga  31   -1.638910    2.722988    3.275240     13.00      69.7230
      16     1 N    7   -1.570278    2.766129    5.254892      5.00      14.0067
      17     2 Ga  31   -1.600223    4.631347    5.806203     13.00      69.7230
      18     1 N    7   -1.579114    4.627931    7.801564      5.00      14.0067
      19     2 Ga  31   -1.559494    2.767981    8.436048     13.00      69.7230
      20     1 N    7   -1.558147    2.770467   10.430762      5.00      14.0067
      21     2 Ga  31   -1.584415    4.628798   11.068146     13.00      69.7230
      22     1 N    7   -1.600351    4.638576   13.062625      5.00      14.0067
      23     2 Ga  31   -1.557346    2.768717   13.616700     13.00      69.7230
      24     1 N    7   -1.583669    2.753078   15.579867      5.00      14.0067
      25     2 Ga  31   -1.413029    4.530291   16.476488     13.00      69.7230
      26     1 N    7    0.038996    3.700947   17.609461      5.00      14.0067
      27     1 N    7   -3.179885    7.530276    2.511854      5.00      14.0067
      28     2 Ga  31   -3.151939    5.532404    2.837976     13.00      69.7230
      29     1 N    7   -3.175673    5.549895    5.016279      5.00      14.0067
      30     2 Ga  31   -3.185072    7.372427    5.795652     13.00      69.7230
      31     1 N    7   -3.176700    7.396027    7.790571      5.00      14.0067
      32     2 Ga  31   -3.177980    5.550009    8.444661     13.00      69.7230
      33     1 N    7   -3.177336    5.550075   10.418129      5.00      14.0067
      34     2 Ga  31   -3.179055    7.389360   11.067439     13.00      69.7230
      35     1 N    7   -3.177127    7.369468   13.061112      5.00      14.0067
      36     2 Ga  31   -3.177117    5.549340   13.863762     13.00      69.7230
      37     1 N    7   -3.177133    5.550742   16.067549      5.00      14.0067
      38     2 Ga  31   -3.177015    7.596090   16.479379     13.00      69.7230
      39     2 Ga  31   -3.201250    9.276968    1.444301     13.00      69.7230
      40     1 N    7   -4.686495   10.135709    2.511068      5.00      14.0067
      41     2 Ga  31   -4.900779    8.286998    3.269403     13.00      69.7230
      42     1 N    7   -4.787257    8.335391    5.237527      5.00      14.0067
      43     2 Ga  31   -4.815388   10.208380    5.790224     13.00      69.7230
      44     1 N    7   -4.795012   10.196309    7.790138      5.00      14.0067
      45     2 Ga  31   -4.778954    8.340513    8.427998     13.00      69.7230
      46     1 N    7   -4.774660    8.340051   10.423942      5.00      14.0067
      47     2 Ga  31   -4.800496   10.198559   11.064964     13.00      69.7230
      48     1 N    7   -4.816195   10.208249   13.060277      5.00      14.0067
      49     2 Ga  31   -4.773981    8.339883   13.618151     13.00      69.7230
      50     1 N    7   -4.800112    8.323645   15.580330      5.00      14.0067
      51     2 Ga  31   -4.627148   10.100004   16.478077     13.00      69.7230
      52     1 N    7   -3.177025    9.271886   17.612059      5.00      14.0067
      53     1 N    7    3.242615    1.840526    2.619653      5.00      14.0067
      54     2 Ga  31    3.245616    0.093736    3.278129     13.00      69.7230
      55     1 N    7    3.255888   -0.024538    5.245399      5.00      14.0067
      56     2 Ga  31    3.248195    1.834252    5.871603     13.00      69.7230
      57     1 N    7    3.255738    1.833404    7.848595      5.00      14.0067
      58     2 Ga  31    3.252858   -0.033060    8.434023     13.00      69.7230
      59     1 N    7    3.255227   -0.034929   10.428716      5.00      14.0067
      60     2 Ga  31    3.255168    1.835104   11.023351     13.00      69.7230
      61     1 N    7    3.255693    1.834708   12.996130      5.00      14.0067
      62     2 Ga  31    3.255255   -0.035034   13.618159     13.00      69.7230
      63     1 N    7    3.255258   -0.002804   15.581482      5.00      14.0067
      64     2 Ga  31    3.255650    1.834807   15.860304     13.00      69.7230
      65     1 N    7    1.530468    4.554305    2.540622      5.00      14.0067
      66     2 Ga  31    1.713253    2.719529    3.274929     13.00      69.7230
      67     1 N    7    1.647797    2.761114    5.257049      5.00      14.0067
      68     2 Ga  31    1.674630    4.626187    5.806608     13.00      69.7230
      69     1 N    7    1.656793    4.626749    7.801229      5.00      14.0067
      70     2 Ga  31    1.637089    2.766564    8.434972     13.00      69.7230
      71     1 N    7    1.636627    2.769901   10.430075      5.00      14.0067
      72     2 Ga  31    1.662698    4.628232   11.067847     13.00      69.7230
      73     1 N    7    1.679480    4.638408   13.062461      5.00      14.0067
      74     2 Ga  31    1.636227    2.768848   13.617180     13.00      69.7230
      75     1 N    7    1.662489    2.753052   15.580240      5.00      14.0067
      76     2 Ga  31    1.491184    4.529997   16.476651     13.00      69.7230
      77     1 N    7    0.037057    7.395643    2.693889      5.00      14.0067
      78     2 Ga  31    0.046484    5.552673    3.335449     13.00      69.7230
      79     1 N    7    0.038425    5.563901    5.272901      5.00      14.0067
      80     2 Ga  31    0.043010    7.406415    5.897052     13.00      69.7230
      81     1 N    7    0.039955    7.409083    7.857651      5.00      14.0067
      82     2 Ga  31    0.039153    5.535996    8.441105     13.00      69.7230
      83     1 N    7    0.039238    5.537028   10.432848      5.00      14.0067
      84     2 Ga  31    0.038775    7.406051   11.026596     13.00      69.7230
      85     1 N    7    0.039337    7.405839   12.997893      5.00      14.0067
      86     2 Ga  31    0.039658    5.535466   13.618537     13.00      69.7230
      87     1 N    7    0.039472    5.567895   15.582526      5.00      14.0067
      88     2 Ga  31    0.039227    7.406071   15.861384     13.00      69.7230
      89     1 N    7   -1.673415   10.126609    2.514012      5.00      14.0067
      90     2 Ga  31   -1.542119    8.314509    3.312176     13.00      69.7230
      91     1 N    7   -1.557512    8.327988    5.247008      5.00      14.0067
      92     2 Ga  31   -1.545264   10.211279    5.802246     13.00      69.7230
      93     1 N    7   -1.560098   10.194332    7.795080      5.00      14.0067
      94     2 Ga  31   -1.582148    8.340991    8.441151     13.00      69.7230
      95     1 N    7   -1.580590    8.340435   10.431332      5.00      14.0067
      96     2 Ga  31   -1.554683   10.199984   11.068457     13.00      69.7230
      97     1 N    7   -1.536949   10.208746   13.062396      5.00      14.0067
      98     2 Ga  31   -1.580384    8.339982   13.619064     13.00      69.7230
      99     1 N    7   -1.553501    8.323494   15.581125      5.00      14.0067
     100     2 Ga  31   -1.726809   10.100141   16.478318     13.00      69.7230
     101     1 N    7    6.470107    1.961373    2.533026      5.00      14.0067
     102     2 Ga  31    6.472500   -0.014627    2.860500     13.00      69.7230
     103     1 N    7    6.469017   -0.020847    5.023017      5.00      14.0067
     104     2 Ga  31    6.470917    1.808693    5.803281     13.00      69.7230
     105     1 N    7    6.471341    1.823308    7.799181      5.00      14.0067
     106     2 Ga  31    6.471460   -0.022534    8.443669     13.00      69.7230
     107     1 N    7    6.471482   -0.022650   10.417307      5.00      14.0067
     108     2 Ga  31    6.471600    1.818424   11.066319     13.00      69.7230
     109     1 N    7    6.471771    1.798010   13.060662      5.00      14.0067
     110     2 Ga  31    6.471721   -0.021349   13.864651     13.00      69.7230
     111     1 N    7    6.471161   -0.019623   16.067325      5.00      14.0067
     112     2 Ga  31    6.471612    2.024505   16.478101     13.00      69.7230
     113     2 Ga  31    6.470198    3.691645    1.516616     13.00      69.7230
     114     1 N    7    4.969111    4.555484    2.535195      5.00      14.0067
     115     2 Ga  31    4.754383    2.701892    3.295516     13.00      69.7230
     116     1 N    7    4.860714    2.761983    5.257468      5.00      14.0067
     117     2 Ga  31    4.841792    4.633596    5.802628     13.00      69.7230
     118     1 N    7    4.853704    4.626171    7.797564      5.00      14.0067
     119     2 Ga  31    4.871812    2.767914    8.435973     13.00      69.7230
     120     1 N    7    4.874273    2.770082   10.429888      5.00      14.0067
     121     2 Ga  31    4.849643    4.629386   11.066151     13.00      69.7230
     122     1 N    7    4.832448    4.638481   13.061045      5.00      14.0067
     123     2 Ga  31    4.875073    2.769193   13.617145     13.00      69.7230
     124     1 N    7    4.848421    2.753183   15.579933      5.00      14.0067
     125     2 Ga  31    5.020725    4.529682   16.477414     13.00      69.7230
     126     1 N    7    6.471759    3.701270   17.609987      5.00      14.0067
     127     1 N    7    3.209241    7.506468    2.386429      5.00      14.0067
     128     1 N    7    3.256303    5.549322    5.027892      5.00      14.0067
     129     2 Ga  31    3.258964    7.376583    5.799055     13.00      69.7230
     130     1 N    7    3.252318    7.396018    7.792435      5.00      14.0067
     131     2 Ga  31    3.255523    5.549201    8.444481     13.00      69.7230
     132     1 N    7    3.255558    5.549735   10.417913      5.00      14.0067
     133     2 Ga  31    3.257194    7.388678   11.068283     13.00      69.7230
     134     1 N    7    3.256066    7.369071   13.061786      5.00      14.0067
     135     2 Ga  31    3.256340    5.548798   13.864045     13.00      69.7230
     136     1 N    7    3.255851    5.550072   16.067584      5.00      14.0067
     137     2 Ga  31    3.255745    7.594236   16.477639     13.00      69.7230
     138     2 Ga  31    3.290112    9.396443    1.368656     13.00      69.7230
     139     1 N    7    1.749767   10.142732    2.519669      5.00      14.0067
     140     2 Ga  31    1.638983    8.321351    3.285342     13.00      69.7230
     141     1 N    7    1.638567    8.326906    5.229161      5.00      14.0067
     142     2 Ga  31    1.620052   10.207294    5.798745     13.00      69.7230
     143     1 N    7    1.636355   10.192347    7.792974      5.00      14.0067
     144     2 Ga  31    1.659328    8.341302    8.444632     13.00      69.7230
     145     1 N    7    1.658760    8.340633   10.433498      5.00      14.0067
     146     2 Ga  31    1.633518   10.200805   11.068455     13.00      69.7230
     147     1 N    7    1.616235   10.208859   13.062562      5.00      14.0067
     148     2 Ga  31    1.659104    8.339803   13.618754     13.00      69.7230
     149     1 N    7    1.632502    8.323604   15.581274      5.00      14.0067
     150     2 Ga  31    1.803400   10.101205   16.476717     13.00      69.7230
     151     1 N    7    3.255581    9.271943   17.609839      5.00      14.0067
     152     1 N    7    9.696516    1.844086    2.627724      5.00      14.0067
     153     2 Ga  31    9.690377    0.100938    3.297752     13.00      69.7230
     154     1 N    7    9.683499   -0.020135    5.257700      5.00      14.0067
     155     2 Ga  31    9.692555    1.839938    5.873702     13.00      69.7230
     156     1 N    7    9.686367    1.835593    7.849644      5.00      14.0067
     157     2 Ga  31    9.689463   -0.033416    8.428949     13.00      69.7230
     158     1 N    7    9.687303   -0.034792   10.425868      5.00      14.0067
     159     2 Ga  31    9.687492    1.834997   11.022121     13.00      69.7230
     160     1 N    7    9.687610    1.834560   12.995421      5.00      14.0067
     161     2 Ga  31    9.688418   -0.034697   13.618394     13.00      69.7230
     162     1 N    7    9.687994   -0.002743   15.582121      5.00      14.0067
     163     2 Ga  31    9.687696    1.835254   15.860760     13.00      69.7230
     164     1 N    7    7.971874    4.562956    2.527814      5.00      14.0067
     165     2 Ga  31    8.186298    2.710414    3.295585     13.00      69.7230
     166     1 N    7    8.078884    2.765189    5.257412      5.00      14.0067
     167     2 Ga  31    8.104662    4.638479    5.797711     13.00      69.7230
     168     1 N    7    8.088961    4.627971    7.795436      5.00      14.0067
     169     2 Ga  31    8.070039    2.770084    8.435378     13.00      69.7230
     170     1 N    7    8.068274    2.770672   10.429579      5.00      14.0067
     171     2 Ga  31    8.093300    4.629601   11.066445     13.00      69.7230
     172     1 N    7    8.111125    4.638668   13.061203      5.00      14.0067
     173     2 Ga  31    8.068519    2.769387   13.617022     13.00      69.7230
     174     1 N    7    8.094935    2.753239   15.579928      5.00      14.0067
     175     2 Ga  31    7.922533    4.529944   16.477445     13.00      69.7230
     176     1 N    7    6.453603    7.409153    2.603182      5.00      14.0067
     177     2 Ga  31    6.467576    5.671432    3.288171     13.00      69.7230
     178     1 N    7    6.470708    5.552181    5.250045      5.00      14.0067
     179     2 Ga  31    6.461627    7.413277    5.855434     13.00      69.7230
     180     1 N    7    6.468289    7.407818    7.834868      5.00      14.0067
     181     2 Ga  31    6.471356    5.541447    8.431260     13.00      69.7230
     182     1 N    7    6.471406    5.537880   10.426646      5.00      14.0067
     183     2 Ga  31    6.471295    7.406708   11.021815     13.00      69.7230
     184     1 N    7    6.471607    7.405918   12.994664      5.00      14.0067
     185     2 Ga  31    6.471825    5.536161   13.617576     13.00      69.7230
     186     1 N    7    6.471534    5.568091   15.581526      5.00      14.0067
     187     2 Ga  31    6.471889    7.405930   15.861101     13.00      69.7230
     188     1 N    7    4.760201   10.148092    2.531670      5.00      14.0067
     189     2 Ga  31    4.909170    8.267836    3.231076     13.00      69.7230
     190     1 N    7    4.851807    8.332757    5.218908      5.00      14.0067
     191     2 Ga  31    4.891628   10.202778    5.781538     13.00      69.7230
     192     1 N    7    4.872912   10.194457    7.785713      5.00      14.0067
     193     2 Ga  31    4.853974    8.341573    8.430378     13.00      69.7230
     194     1 N    7    4.852065    8.340214   10.425477      5.00      14.0067
     195     2 Ga  31    4.877765   10.199055   11.064998     13.00      69.7230
     196     1 N    7    4.895001   10.208389   13.060454      5.00      14.0067
     197     2 Ga  31    4.853001    8.340003   13.618138     13.00      69.7230
     198     1 N    7    4.878840    8.323787   15.580780      5.00      14.0067
     199     2 Ga  31    4.707488   10.100989   16.476645     13.00      69.7230
     200     3 O    8    0.124205    4.015393   -0.444844      6.00      15.9994
     201     4 H    1    0.414819    5.778737   -0.338121      1.00       1.0079
     202     5 C    6    1.126039    3.275167   -1.170795      4.00      12.0107
     203     4 H    1    2.122729    3.354363   -0.706118      1.00       1.0079
     204     4 H    1    0.860223    2.209638   -1.242699      1.00       1.0079
     205     4 H    1    1.176889    3.691709   -2.186579      1.00       1.0079
     206     2 Ga  31    3.231508    5.508445    2.890511     13.00      69.7230
     207     3 O    8    0.646182    6.706438   -0.067523      6.00      15.9994
     208     4 H    1    0.059512    7.309341    1.657171      1.00       1.0079
     209     5 C    6    2.078026    6.805690   -0.010770      4.00      12.0107
     210     4 H    1    2.387817    7.713453   -0.582487      1.00       1.0079
     211     4 H    1    2.497961    6.985583    1.044700      1.00       1.0079
     212     4 H    1    2.564778    5.938517   -0.479892      1.00       1.0079




 SCF PARAMETERS         Density guess:                                    ATOMIC
                        --------------------------------------------------------
                        max_scf:                                              80
                        max_scf_history:                                       0
                        max_diis:                                              4
                        --------------------------------------------------------
                        eps_scf:                                        5.00E-06
                        eps_scf_history:                                0.00E+00
                        eps_diis:                                       1.00E-01
                        eps_eigval:                                     1.00E-05
                        --------------------------------------------------------
                        level_shift [a.u.]:                                 0.00
                        --------------------------------------------------------
                        Outer loop SCF in use 
                        No variables optimised in outer loop
                        eps_scf                                         5.00E-06
                        max_scf                                                4
                        No outer loop optimization
                        step_size                                       5.00E-01

 PW_GRID| Information for grid number                                          1
 PW_GRID| Grid distributed over                                    80 processors
 PW_GRID| Real space group dimensions                                    80    1
 PW_GRID| the grid is blocked:                                                NO
 PW_GRID| Cutoff [a.u.]                                                    600.0
 PW_GRID| spherical cutoff:                                                   NO
 PW_GRID|   Bounds   1           -144     143                Points:         288
 PW_GRID|   Bounds   2           -144     143                Points:         288
 PW_GRID|   Bounds   3           -337     337                Points:         675
 PW_GRID| Volume element (a.u.^3)  0.5630E-03     Volume (a.u.^3)     31519.8467
 PW_GRID| Grid span                                                    FULLSPACE
 PW_GRID|   Distribution                         Average         Max         Min
 PW_GRID|   G-Vectors                           699840.0      699840      699840
 PW_GRID|   G-Rays                                2430.0        2430        2430
 PW_GRID|   Real Space Points                   699840.0      777600      583200

 PW_GRID| Information for grid number                                          2
 PW_GRID| Grid distributed over                                    80 processors
 PW_GRID| Real space group dimensions                                    80    1
 PW_GRID| the grid is blocked:                                                NO
 PW_GRID| Cutoff [a.u.]                                                    200.0
 PW_GRID| spherical cutoff:                                                   NO
 PW_GRID|   Bounds   1            -80      79                Points:         160
 PW_GRID|   Bounds   2            -80      79                Points:         160
 PW_GRID|   Bounds   3           -200     199                Points:         400
 PW_GRID| Volume element (a.u.^3)  0.3078E-02     Volume (a.u.^3)     31519.8467
 PW_GRID| Grid span                                                    FULLSPACE
 PW_GRID|   Distribution                         Average         Max         Min
 PW_GRID|   G-Vectors                           128000.0      128160      127840
 PW_GRID|   G-Rays                                 800.0         801         799
 PW_GRID|   Real Space Points                   128000.0      128000      128000

 PW_GRID| Information for grid number                                          3
 PW_GRID| Grid distributed over                                    80 processors
 PW_GRID| Real space group dimensions                                    80    1
 PW_GRID| the grid is blocked:                                                NO
 PW_GRID| Cutoff [a.u.]                                                     66.7
 PW_GRID| spherical cutoff:                                                   NO
 PW_GRID|   Bounds   1            -48      47                Points:          96
 PW_GRID|   Bounds   2            -48      47                Points:          96
 PW_GRID|   Bounds   3           -112     112                Points:         225
 PW_GRID| Volume element (a.u.^3)  0.1520E-01     Volume (a.u.^3)     31519.8467
 PW_GRID| Grid span                                                    FULLSPACE
 PW_GRID|   Distribution                         Average         Max         Min
[...]
 flops   991 x    64 x    50         419004313600     100.0%      0.0%      0.0%
 flops    13 x    25 x    50         433271215000     100.0%      0.0%      0.0%
 flops    25 x    13 x    50         433838730000     100.0%      0.0%      0.0%
 flops   242 x    64 x   178         542727274496     100.0%      0.0%      0.0%
 flops   242 x    64 x   183         557972422656     100.0%      0.0%      0.0%
 flops   973 x    32 x    50         565666393600     100.0%      0.0%      0.0%
 flops   973 x    50 x    32         565666393600     100.0%      0.0%      0.0%
 flops   242 x    32 x    32         570130378752     100.0%      0.0%      0.0%
 flops   242 x    64 x   195         594560778240     100.0%      0.0%      0.0%
 flops    25 x    18 x    13         654705066600     100.0%      0.0%      0.0%
 flops    13 x    18 x    25         654705066600     100.0%      0.0%      0.0%
 flops   955 x    32 x   178         673998110720     100.0%      0.0%      0.0%
 flops   955 x    32 x   183         692930641920     100.0%      0.0%      0.0%
 flops   991 x    32 x   178         699405369344     100.0%      0.0%      0.0%
 flops   991 x    32 x   183         719051587584     100.0%      0.0%      0.0%
 flops   955 x    32 x   195         738368716800     100.0%      0.0%      0.0%
 flops   991 x    32 x   195         766202511360     100.0%      0.0%      0.0%
 flops   973 x    64 x    50         822787481600     100.0%      0.0%      0.0%
 flops   973 x    50 x    64         822787481600     100.0%      0.0%      0.0%
 flops   242 x    64 x    32         829280550912     100.0%      0.0%      0.0%
 flops   242 x    32 x    64         829280550912     100.0%      0.0%      0.0%
 flops    25 x    25 x    50         831356250000     100.0%      0.0%      0.0%
 flops     5 x    32 x    25         919345056000     100.0%      0.0%      0.0%
 flops    25 x    32 x     5         919345056000     100.0%      0.0%      0.0%
 flops   955 x    64 x   178         980360888320     100.0%      0.0%      0.0%
 flops   955 x    64 x   183        1007899115520     100.0%      0.0%      0.0%
 flops   991 x    64 x   178        1017316900864     100.0%      0.0%      0.0%
 flops   224 x    32 x   178        1036115705856     100.0%      0.0%      0.0%
 flops   991 x    64 x   183        1045893218304     100.0%      0.0%      0.0%
 flops   224 x    32 x   183        1065220079616     100.0%      0.0%      0.0%
 flops   955 x    64 x   195        1073990860800     100.0%      0.0%      0.0%
 flops   991 x    64 x   195        1114476380160     100.0%      0.0%      0.0%
 flops   224 x    32 x   195        1135070576640     100.0%      0.0%      0.0%
 flops   242 x    64 x    64        1206226255872     100.0%      0.0%      0.0%
 flops    25 x    18 x    25        1242900000000     100.0%      0.0%      0.0%
 flops   973 x    32 x   178        1373403480064     100.0%      0.0%      0.0%
 flops   973 x    32 x   183        1411982229504     100.0%      0.0%      0.0%
 flops   973 x    32 x   195        1504571228160     100.0%      0.0%      0.0%
 flops   224 x    64 x   178        1507077390336     100.0%      0.0%      0.0%
 flops    13 x    13 x    32        1539203695744     100.0%      0.0%      0.0%
 flops   224 x    64 x   183        1549411024896     100.0%      0.0%      0.0%
 flops   224 x    32 x    32        1583171960832     100.0%      0.0%      0.0%
 flops   224 x    64 x   195        1651011747840     100.0%      0.0%      0.0%
 flops   955 x    32 x    32        1954310533120     100.0%      0.0%      0.0%
 flops   973 x    64 x   178        1997677789184     100.0%      0.0%      0.0%
 flops   991 x    32 x    32        2027980877824     100.0%      0.0%      0.0%
 flops   973 x    64 x   183        2053792333824     100.0%      0.0%      0.0%
 flops   973 x    64 x   195        2188467240960     100.0%      0.0%      0.0%
 flops    13 x    13 x    64        2238841739264     100.0%      0.0%      0.0%
 flops   224 x    32 x    64        2302795579392     100.0%      0.0%      0.0%
 flops   224 x    64 x    32        2302795579392     100.0%      0.0%      0.0%
 flops   955 x    32 x    64        2842633502720     100.0%      0.0%      0.0%
 flops   955 x    64 x    32        2842633502720     100.0%      0.0%      0.0%
 flops   991 x    32 x    64        2949790367744     100.0%      0.0%      0.0%
 flops   991 x    64 x    32        2949790367744     100.0%      0.0%      0.0%
 flops    13 x    25 x    32        3050229353600     100.0%      0.0%      0.0%
 flops    25 x    13 x    32        3054224659200     100.0%      0.0%      0.0%
 flops   224 x    64 x    64        3349520842752     100.0%      0.0%      0.0%
 flops   973 x    32 x    32        3982291410944     100.0%      0.0%      0.0%
 flops   955 x    64 x    64        4134739640320     100.0%      0.0%      0.0%
 flops   991 x    64 x    64        4290604171264     100.0%      0.0%      0.0%
 flops    13 x    25 x    64        4436697241600     100.0%      0.0%      0.0%
 flops    25 x    13 x    64        4442508595200     100.0%      0.0%      0.0%
 flops   973 x    64 x    32        5792423870464     100.0%      0.0%      0.0%
 flops   973 x    32 x    64        5792423870464     100.0%      0.0%      0.0%
 flops    25 x    25 x    32        5852748000000     100.0%      0.0%      0.0%
 flops   973 x    64 x    64        8425343811584     100.0%      0.0%      0.0%
 flops    25 x    25 x    64        8513088000000     100.0%      0.0%      0.0%
 flops    13 x    32 x    13       16260477262848     100.0%      0.0%      0.0%
 flops    25 x    32 x    13       32589763315200     100.0%      0.0%      0.0%
 flops    13 x    32 x    25       32589763315200     100.0%      0.0%      0.0%
 flops    25 x    32 x    25       61868800000000     100.0%      0.0%      0.0%
 flops inhomo. stacks             101428497206400     100.0%      0.0%      0.0%
 flops total                       387.920162E+12     100.0%      0.0%      0.0%
 flops max/rank                      6.734392E+12     100.0%      0.0%      0.0%
 matmuls inhomo. stacks                  10044160     100.0%      0.0%      0.0%
 matmuls total                         8014069694     100.0%      0.0%      0.0%
 number of processed stacks             139426280     100.0%      0.0%      0.0%
 average stack size                                    57.5       0.0       0.0
 marketing flops                   414.355124E+12
 -------------------------------------------------------------------------------
 # multiplications                          35247
 max memory usage/rank               1.529360E+09
 # max total images/rank                        5
 # max 3D layers                                1
 # MPI messages exchanged               321452640
 MPI messages size (bytes):
  total size                        40.892988E+12
  min size                           0.000000E+00
  max size                           1.894792E+06
  average size                     127.213102E+03
 MPI breakdown and total messages size (bytes):
             size <=      128             2908520                        0
       128 < size <=     8192            40878937             334880251904
      8192 < size <=    32768            94202703            1921707374752
     32768 < size <=   131072           144608240           10467362057120
    131072 < size <=  4194304            38854240           28172473320528
   4194304 < size <= 16777216                   0                        0
  16777216 < size                               0                        0
 -------------------------------------------------------------------------------

 *** WARNING in dbcsr/mm/dbcsr_mm.F:268 :: Using a non-square number of ***
 *** MPI ranks might lead to poor performance.                          ***
 *** Used ranks: 80                                                     ***
 *** Suggested: 81 169                                                  ***

 -------------------------------------------------------------------------------
 
 MEMORY| Estimated peak process memory [MiB]                                1482

 -------------------------------------------------------------------------------
 ----                             MULTIGRID INFO                            ----
 -------------------------------------------------------------------------------
 count for grid        1:        1251203          cutoff [a.u.]          600.00
 count for grid        2:       10066271          cutoff [a.u.]          200.00
 count for grid        3:        9254865          cutoff [a.u.]           66.67
 count for grid        4:       13944126          cutoff [a.u.]           22.22
 count for grid        5:       12818728          cutoff [a.u.]            7.41
 total gridlevel count  :       47335193

 -------------------------------------------------------------------------------
 -                                                                             -
 -                         MESSAGE PASSING PERFORMANCE                         -
 -                                                                             -
 -------------------------------------------------------------------------------

 ROUTINE             CALLS      AVE VOLUME [Bytes]
 MP_Group             4039
 MP_Bcast            30534                  13921.
 MP_Allreduce       270586                    235.
 MP_Sync              1583
 MP_Alltoall        208661                5164281.
 MP_SendRecv         27492                   5914.
 MP_ISendRecv       915768                 133520.
 MP_Wait           7878771
 MP_comm_split        1578
 MP_ISend          9052992                 120113.
 MP_IRecv          9055808                 120035.
 MP_Recv              1634                 162816.
 MP_Memory         3905424
 -------------------------------------------------------------------------------


 -------------------------------------------------------------------------------
 -                                                                             -
 -                           R E F E R E N C E S                               -
 -                                                                             -
 -------------------------------------------------------------------------------
 
 CP2K version 7.0 (Development Version), the CP2K developers group (2018).
 CP2K is freely available from https://www.cp2k.org/ .

 Schuett, Ole; Messmer, Peter; Hutter, Juerg; VandeVondele, Joost. 
 Electronic Structure Calculations on Graphics Processing Units, John Wiley & Sons, Ltd, 173-190 (2016). 
 GPU-Accelerated Sparse Matrix-Matrix Multiplication for Linear Scaling Density Functional Theory.
 http://dx.doi.org/10.1002/9781118670712.ch8


 Borstnik, U; VandeVondele, J; Weber, V; Hutter, J. 
 PARALLEL COMPUTING, 40 (5-6), 47-58 (2014). 
 Sparse matrix multiplication: The distributed block-compressed sparse
 row library.
 http://dx.doi.org/10.1016/j.parco.2014.03.012


 Hutter, J; Iannuzzi, M; Schiffmann, F; VandeVondele, J. 
 WILEY INTERDISCIPLINARY REVIEWS-COMPUTATIONAL MOLECULAR SCIENCE, 4 (1), 15-25 (2014). 
 CP2K: atomistic simulations of condensed matter systems.
 http://dx.doi.org/10.1002/wcms.1159


 Grimme, S; Ehrlich, S; Goerigk, L. 
 JOURNAL OF COMPUTATIONAL CHEMISTRY, 32, 1456 (2011). 
 Effect of the damping function in dispersion corrected density functional theory.
 http://dx.doi.org/10.1002/jcc.21759


 Grimme, S; Antony, J; Ehrlich, S; Krieg, H. 
 JOURNAL OF CHEMICAL PHYSICS, 132 (15), 154104 (2010). 
 A consistent and accurate ab initio parametrization of density
 functional dispersion correction (DFT-D) for the 94 elements H-Pu.
 http://dx.doi.org/10.1063/1.3382344


 VandeVondele, J; Hutter, J. 
 JOURNAL OF CHEMICAL PHYSICS, 127 (11), 114105 (2007). 
 Gaussian basis sets for accurate calculations on molecular systems in
 gas and condensed phases.
 http://dx.doi.org/10.1063/1.2770708


 Krack, M. 
 THEORETICAL CHEMISTRY ACCOUNTS, 114 (1-3), 145-152 (2005). 
 Pseudopotentials for H to Kr optimized for gradient-corrected
 exchange-correlation functionals.
 http://dx.doi.org/10.1007/s00214-005-0655-y


 VandeVondele, J; Krack, M; Mohamed, F; Parrinello, M; Chassaing, T;
 Hutter, J. COMPUTER PHYSICS COMMUNICATIONS, 167 (2), 103-128 (2005). 
 QUICKSTEP: Fast and accurate density functional calculations using a
 mixed Gaussian and plane waves approach.
 http://dx.doi.org/10.1016/j.cpc.2004.12.014


 Frigo, M; Johnson, SG. 
 PROCEEDINGS OF THE IEEE, 93 (2), 216-231 (2005). 
 The design and implementation of FFTW3.
 http://dx.doi.org/10.1109/JPROC.2004.840301


 Kolafa, J. 
 JOURNAL OF COMPUTATIONAL CHEMISTRY, 25 (3), 335-342 (2004). 
 Time-reversible always stable predictor-corrector method for molecular dynamics of polarizable molecules.
 http://dx.doi.org/10.1002/jcc.10385


 VandeVondele, J; Hutter, J. 
 JOURNAL OF CHEMICAL PHYSICS, 118 (10), 4365-4369 (2003). 
 An efficient orbital transformation method for electronic structure
 calculations.
 http://dx.doi.org/10.1063/1.1543154


 Hartwigsen, C; Goedecker, S; Hutter, J. 
 PHYSICAL REVIEW B, 58 (7), 3641-3662 (1998). 
 Relativistic separable dual-space Gaussian pseudopotentials from H to Rn.
 http://dx.doi.org/10.1103/PhysRevB.58.3641


 Lippert, G; Hutter, J; Parrinello, M. 
 MOLECULAR PHYSICS, 92 (3), 477-487 (1997). 
 A hybrid Gaussian and plane wave density functional scheme.
 http://dx.doi.org/10.1080/002689797170220


 Perdew, JP; Burke, K; Ernzerhof, M. 
 PHYSICAL REVIEW LETTERS, 77 (18), 3865-3868 (1996). 
 Generalized gradient approximation made simple.
 http://dx.doi.org/10.1103/PhysRevLett.77.3865


 Goedecker, S; Teter, M; Hutter, J. 
 PHYSICAL REVIEW B, 54 (3), 1703-1710 (1996). 
 Separable dual-space Gaussian pseudopotentials.
 http://dx.doi.org/10.1103/PhysRevB.54.1703


 -------------------------------------------------------------------------------
 -                                                                             -
 -                                T I M I N G                                  -
 -                                                                             -
 -------------------------------------------------------------------------------
 SUBROUTINE                       CALLS  ASD         SELF TIME        TOTAL TIME
                                MAXIMUM       AVERAGE  MAXIMUM  AVERAGE  MAXIMUM
 CP2K                                 1  1.0     0.41     0.47 18596.04 18596.08
 cp_geo_opt                           1  2.0     0.07     0.07 18593.96 18593.96
 geoopt_bfgs                          1  3.0     0.22     0.34 18593.89 18593.94
 cp_eval_at                          88  4.0     0.07     0.08 18554.79 18554.82
 qs_forces                           87  5.0     0.07     0.12 18499.20 18499.22
 qs_energies                         88  6.0     0.10     0.16 16782.56 16782.68
 scf_env_do_scf                      88  7.0     0.04     0.13 15634.35 15634.39
 scf_env_do_scf_inner_loop         1142  8.0     0.13     0.25 13711.14 13711.18
 rebuild_ks_matrix                 1229  9.8     0.01     0.01  8111.59  8113.09
 qs_ks_build_kohn_sham_matrix      1229 10.8     0.56     0.94  8111.59  8113.08
 qs_ks_update_qs_env               1231  9.0     0.01     0.02  6536.40  6537.61
 qs_rho_update_rho                 1230  9.1     0.02     0.04  6362.97  6366.41
 calculate_rho_elec                2460 10.1  3190.99  3247.18  6362.94  6366.40
 sum_up_and_integrate               702 11.6    10.56    11.82  4521.83  4524.02
 integrate_v_rspace                1404 12.6  2586.35  2675.48  4511.26  4514.32
 pw_transfer                      39247 13.3     4.22     4.91  3949.10  3965.10
 fft_wrap_pw1pw2                  36789 14.3     0.43     0.50  3929.59  3945.30
 fft_wrap_pw1pw2_600              21333 15.6   238.57   267.24  3652.73  3664.88
 fft3d_ps                         36789 16.3  1100.28  1211.40  3371.11  3404.82
 rs_pw_transfer                   19759 12.9     0.26     0.31  3207.93  3249.69
 density_rs2pw                     2460 11.1     0.18     0.20  2843.13  2906.80
 qs_vxc_create                     1229 11.8     0.05     0.10  2786.84  2787.46
 dbcsr_multiply_generic           35247 13.7     2.36     3.31  2500.45  2505.82
 mp_waitall_1                   7160075 16.6  2221.77  2316.40  2221.77  2316.40
 mp_alltoall_z22v                 36789 18.3  1960.74  2182.89  1960.74  2182.89
 xc_vxc_pw_create                   702 12.6   145.96   164.41  2115.43  2115.78
 qs_scf_new_mos                    1142  9.0     0.02     0.04  2104.69  2106.43
 qs_scf_loop_do_ot                 1142 10.0     0.07     0.13  2104.67  2106.39
 multiply_cannon                  35247 14.7    11.30    11.94  1952.70  1992.55
 ot_scf_mini                       1142 11.0     0.20     0.39  1934.31  1935.49
 init_scf_loop                       89  8.0     0.02     0.05  1920.33  1920.36
 qs_ks_update_qs_env_forces          87  6.0     0.00     0.00  1586.68  1586.96
 potential_pw2rs                   1404 13.6     1.11     1.29  1513.60  1516.90
 mp_waitany                      718696 14.9  1414.54  1512.88  1414.54  1512.88
 xc_rho_set_and_dset_create        1229 13.8    21.61    23.26  1485.62  1510.09
 rs_pw_transfer_RS2PW_600          2636 13.0   526.15   574.07  1329.20  1372.70
 x_to_yz                          15977 17.9   173.69   201.19  1271.90  1348.20
 multiply_cannon_metrocomm3      704940 15.7     1.90     2.03  1157.69  1307.60
 yz_to_x                          13084 16.8   109.39   115.72   970.20  1083.77
 prepare_preconditioner              89  9.0     0.00     0.00  1045.80  1046.07
 ot_mini                           1142 12.0     0.02     0.02  1026.36  1027.65
 make_preconditioner                178 10.0     0.04     0.06   966.21   966.32
 rs_pw_transfer_PW2RS_600          1667 15.0   374.41   405.07   941.56   964.70
 make_full_all                      178 11.0     0.08     0.27   881.48   881.86
 init_scf_run                        88  7.0     0.01     0.02   717.28   717.30
 scf_env_initial_rho_setup           88  8.0     0.00     0.01   717.27   717.29
 wfi_extrapolate                     88  9.0     0.05     0.15   706.10   706.13
 xc_exc_calc                        527 13.0     2.56     2.89   671.35   671.67
 qs_ot_get_derivative              1230 13.0     0.02     0.03   650.14   651.39
 cp_fm_syevd                       1578 13.5     0.01     0.02   645.04   646.44
 cp_fm_redistribute_end            1578 14.5   187.59   625.48   191.44   628.41
 mp_alltoall_d11v                 45346 14.9   527.56   618.29   527.56   618.29
 cp_fm_syevd_base                  1578 14.2   434.08   605.50   434.08   605.50
 multiply_cannon_metrocomm1      704940 15.7     2.18     2.37   453.67   598.96
 rs_distribute_matrix              4038 12.0     4.92     9.85   487.54   575.49
 apply_preconditioner_dbcsr        1408 14.0     0.00     0.01   420.13   421.00
 apply_all                         1408 15.0     0.16     0.24   420.13   420.99
 mp_sum_d                         38560 14.3   296.64   384.70   296.64   384.70
 qs_ot_get_p                       2462 11.9     0.03     0.06   375.37   381.09
 -------------------------------------------------------------------------------

 The number of warnings for this run is : 1
 
 -------------------------------------------------------------------------------
  **** **** ******  **  PROGRAM ENDED AT                 2019-07-12 20:41:41.197
 ***** ** ***  *** **   PROGRAM RAN ON            blg9123.int.ets1.calculquebec.
 **    ****   ******    PROGRAM RAN BY                                       rzk
 ***** **    ** ** **   PROGRAM PROCESS ID                                250820
  **** **  *******  **  PROGRAM STOPPED IN /lustre04/scratch/rzk/rzk/GaN-carbene
                                           /443-adatoms-both-2x2/09-BondBreaking
                                           -CH/02-0401-CH-to-NTop-PES
