 DBCSR| Multiplication driver                                               BLAS
 DBCSR| Multrec recursion limit                                              512
 DBCSR| Multiplication stack size                                           1000
 DBCSR| Maximum elements for images                                    UNLIMITED
 DBCSR| Multiplicative factor virtual images                                   1
 DBCSR| Multiplication size stacks                                             3
 DBCSR| Number of 3D layers                                               SINGLE
 DBCSR| Use MPI memory allocation                                              T
 DBCSR| Use RMA algorithm                                                      F
 DBCSR| Use Communication thread                                               T
 DBCSR| Communication thread load                                             87


  **** **** ******  **  PROGRAM STARTED AT               2019-07-11 11:23:52.872
 ***** ** ***  *** **   PROGRAM STARTED ON        blg9210.int.ets1.calculquebec.
 **    ****   ******    PROGRAM STARTED BY                                   rzk
 ***** **    ** ** **   PROGRAM PROCESS ID                                152355
  **** **  *******  **  PROGRAM STARTED IN /lustre04/scratch/rzk/rzk/GaN-carbene
                                           /443-adatoms-both-2x2/09-BondBreaking
                                           -CH/02-0401-CH-to-NTop-PES

 CP2K| version string:                    CP2K version 7.0 (Development Version)
 CP2K| source code revision number:                                    svn:18619
 CP2K| cp2kflags: libint fftw3 libxc parallel mpi3 scalapack mkl                
 CP2K| is freely available from                            https://www.cp2k.org/
 CP2K| Program compiled at                          Sun Apr  7 00:48:11 EDT 2019
 CP2K| Program compiled on                      beluga2.int.ets1.calculquebec.ca
 CP2K| Program compiled for                    Beluga-Linux-x86-64-intel-openmpi
 CP2K| Data directory path    /home/rzk/projects/def-rzk/group/cp2k/cp2k-mcgill/
 CP2K| Input file name                                            TEST-1.restart
 
 GLOBAL| Force Environment number                                              1
 GLOBAL| Basis set file name                                        BASIS_MOLOPT
 GLOBAL| Potential file name                                      GTH_POTENTIALS
 GLOBAL| MM Potential file name                                     MM_POTENTIAL
 GLOBAL| Coordinate file name                                      __STD_INPUT__
 GLOBAL| Method name                                                        CP2K
 GLOBAL| Project name                                                       TEST
 GLOBAL| Preferred FFT library                                             FFTW3
 GLOBAL| Preferred diagonalization lib.                                       SL
 GLOBAL| Run type                                                        GEO_OPT
 GLOBAL| All-to-all communication in single precision                          F
 GLOBAL| FFTs using library dependent lengths                                  F
 GLOBAL| Global print level                                               MEDIUM
 GLOBAL| MPI I/O enabled                                                       T
 GLOBAL| Total number of message passing processes                            80
 GLOBAL| Number of threads for this process                                    1
 GLOBAL| This output is from process                                           0
 GLOBAL| CPU model name :  Intel(R) Xeon(R) Gold 6148 CPU @ 2.40GHz

 MEMORY| system memory details [Kb]
 MEMORY|                        rank 0           min           max       average
 MEMORY| MemTotal            196614300     196614300     196614300     196614300
 MEMORY| MemFree             182986660     181730280     182990380     182379679
 MEMORY| Buffers                     0             0             0             0
 MEMORY| Cached                1250144       1250144       1293948       1271406
 MEMORY| Slab                  1050892       1050892       1151800       1101303
 MEMORY| SReclaimable           122000        122000        125192        123553
 MEMORY| MemLikelyFree       184358804     183149420     184362524     183774639


 *** Fundamental physical constants (SI units) ***

 *** Literature: B. J. Mohr and B. N. Taylor,
 ***             CODATA recommended values of the fundamental physical
 ***             constants: 2006, Web Version 5.1
 ***             http://physics.nist.gov/constants

 Speed of light in vacuum [m/s]                             2.99792458000000E+08
 Magnetic constant or permeability of vacuum [N/A**2]       1.25663706143592E-06
 Electric constant or permittivity of vacuum [F/m]          8.85418781762039E-12
 Planck constant (h) [J*s]                                  6.62606896000000E-34
 Planck constant (h-bar) [J*s]                              1.05457162825177E-34
 Elementary charge [C]                                      1.60217648700000E-19
 Electron mass [kg]                                         9.10938215000000E-31
 Electron g factor [ ]                                     -2.00231930436220E+00
 Proton mass [kg]                                           1.67262163700000E-27
 Fine-structure constant                                    7.29735253760000E-03
 Rydberg constant [1/m]                                     1.09737315685270E+07
 Avogadro constant [1/mol]                                  6.02214179000000E+23
 Boltzmann constant [J/K]                                   1.38065040000000E-23
 Atomic mass unit [kg]                                      1.66053878200000E-27
 Bohr radius [m]                                            5.29177208590000E-11

 *** Conversion factors ***

 [u] -> [a.u.]                                              1.82288848426455E+03
 [Angstrom] -> [Bohr] = [a.u.]                              1.88972613288564E+00
 [a.u.] = [Bohr] -> [Angstrom]                              5.29177208590000E-01
 [a.u.] -> [s]                                              2.41888432650478E-17
 [a.u.] -> [fs]                                             2.41888432650478E-02
 [a.u.] -> [J]                                              4.35974393937059E-18
 [a.u.] -> [N]                                              8.23872205491840E-08
 [a.u.] -> [K]                                              3.15774647902944E+05
 [a.u.] -> [kJ/mol]                                         2.62549961709828E+03
 [a.u.] -> [kcal/mol]                                       6.27509468713739E+02
 [a.u.] -> [Pa]                                             2.94210107994716E+13
 [a.u.] -> [bar]                                            2.94210107994716E+08
 [a.u.] -> [atm]                                            2.90362800883016E+08
 [a.u.] -> [eV]                                             2.72113838565563E+01
 [a.u.] -> [Hz]                                             6.57968392072181E+15
 [a.u.] -> [1/cm] (wave numbers)                            2.19474631370540E+05
 [a.u./Bohr**2] -> [1/cm]                                   5.14048714338585E+03
 
          ----------------------------------------------------------------------
 COLVARS| COLVAR INPUT INDEX:        1
 COLVARS| BOND          >>> ATOMS:                                   127     211
          ----------------------------------------------------------------------

 CELL_TOP| Volume [angstrom^3]:                                         4586.323
 CELL_TOP| Vector a [angstrom    12.864     0.000     0.000    |a| =      12.864
 CELL_TOP| Vector b [angstrom    -6.432    11.141     0.000    |b| =      12.864
 CELL_TOP| Vector c [angstrom     0.000     0.000    32.000    |c| =      32.000
 CELL_TOP| Angle (b,c), alpha [degree]:                                   90.000
 CELL_TOP| Angle (a,c), beta  [degree]:                                   90.000
 CELL_TOP| Angle (a,b), gamma [degree]:                                  120.000
 CELL_TOP| Numerically orthorhombic:                                          NO
 RESTRAINT| Active restraint on COLLECTIVE section Nr.     1. K [a.u.]= 2.000000
 
 GENERATE|  Preliminary Number of Bonds generated:                             0
 GENERATE|  Achieved consistency in connectivity generation.

 CELL| Volume [angstrom^3]:                                             4586.323
 CELL| Vector a [angstrom]:      12.864     0.000     0.000    |a| =      12.864
 CELL| Vector b [angstrom]:      -6.432    11.141     0.000    |b| =      12.864
 CELL| Vector c [angstrom]:       0.000     0.000    32.000    |c| =      32.000
 CELL| Angle (b,c), alpha [degree]:                                       90.000
 CELL| Angle (a,c), beta  [degree]:                                       90.000
 CELL| Angle (a,b), gamma [degree]:                                      120.000
 CELL| Numerically orthorhombic:                                              NO

 CELL_REF| Volume [angstrom^3]:                                         4670.759
 CELL_REF| Vector a [angstrom    12.982     0.000     0.000    |a| =      12.982
 CELL_REF| Vector b [angstrom    -6.491    11.243     0.000    |b| =      12.982
 CELL_REF| Vector c [angstrom     0.000     0.000    32.000    |c| =      32.000
 CELL_REF| Angle (b,c), alpha [degree]:                                   90.000
 CELL_REF| Angle (a,c), beta  [degree]:                                   90.000
 CELL_REF| Angle (a,b), gamma [degree]:                                  120.000
 CELL_REF| Numerically orthorhombic:                                          NO

 *******************************************************************************
 *******************************************************************************
 **                                                                           **
 **     #####                         ##              ##                      **
 **    ##   ##            ##          ##              ##                      **
 **   ##     ##                       ##            ######                    **
 **   ##     ##  ##   ##  ##   #####  ##  ##   ####   ##    #####    #####    **
 **   ##     ##  ##   ##  ##  ##      ## ##   ##      ##   ##   ##  ##   ##   **
 **   ##  ## ##  ##   ##  ##  ##      ####     ###    ##   ######   ######    **
 **    ##  ###   ##   ##  ##  ##      ## ##      ##   ##   ##       ##        **
 **     #######   #####   ##   #####  ##  ##  ####    ##    #####   ##        **
 **           ##                                                    ##        **
 **                                                                           **
 **                                                ... make the atoms dance   **
 **                                                                           **
 **            Copyright (C) by CP2K developers group (2000 - 2018)           **
 **                                                                           **
 *******************************************************************************

 DFT| Spin unrestricted (spin-polarized) Kohn-Sham calculation               UKS
 DFT| Multiplicity                                                             1
 DFT| Number of spin states                                                    2
 DFT| Charge                                                                   0
 DFT| Self-interaction correction (SIC)                                       NO
 DFT| Cutoffs: density                                              1.000000E-10
 DFT|          gradient                                             1.000000E-10
 DFT|          tau                                                  1.000000E-10
 DFT|          cutoff_smoothing_range                               0.000000E+00
 DFT| XC density smoothing                                                  NONE
 DFT| XC derivatives                                                          PW
 FUNCTIONAL| ROUTINE=NEW
 FUNCTIONAL| PBE:
 FUNCTIONAL| J.P.Perdew, K.Burke, M.Ernzerhof, Phys. Rev. Letter, vol. 77, n 18,
 FUNCTIONAL|  pp. 3865-3868, (1996){spin polarized}                             
 vdW POTENTIAL|                                                   Pair Potential
 vdW POTENTIAL|          DFT-D3 (Version 3.1)
 vdW POTENTIAL|          Potential Form: S. Grimme et al, JCP 132: 154104 (2010)
 vdW POTENTIAL|          Zero Damping
 vdW POTENTIAL|          Cutoff Radius [Bohr]:                             18.90
 vdW POTENTIAL|          s6 Scaling Factor:                               1.0000
 vdW POTENTIAL|          sr6 Scaling Factor:                              1.2170
 vdW POTENTIAL|          s8 Scaling Factor:                               0.7220
 vdW POTENTIAL|          Cutoff for CN calculation:                   0.1000E-05

 QS| Method:                                                                 GPW
 QS| Density plane wave grid type                        NON-SPHERICAL FULLSPACE
 QS| Number of grid levels:                                                    5
 QS| Density cutoff [a.u.]:                                                600.0
 QS| Multi grid cutoff [a.u.]: 1) grid level                               600.0
 QS|                           2) grid level                               200.0
 QS|                           3) grid level                                66.7
 QS|                           4) grid level                                22.2
 QS|                           5) grid level                                 7.4
 QS| Grid level progression factor:                                          3.0
 QS| Relative density cutoff [a.u.]:                                        20.0
 QS| Consistent realspace mapping and integration 
 QS| Interaction thresholds: eps_pgf_orb:                                1.0E-07
 QS|                         eps_filter_matrix:                          0.0E+00
 QS|                         eps_core_charge:                            1.0E-16
 QS|                         eps_rho_gspace:                             1.0E-14
 QS|                         eps_rho_rspace:                             1.0E-14
 QS|                         eps_gvg_rspace:                             1.0E-07
 QS|                         eps_ppl:                                    1.0E-02
 QS|                         eps_ppnl:                                   1.0E-09


 ATOMIC KIND INFORMATION

  1. Atomic kind: N                                     Number of atoms:     100

     Orbital Basis Set                                        DZVP-MOLOPT-SR-GTH

       Number of orbital shell sets:                                           1
       Number of orbital shells:                                               5
       Number of primitive Cartesian functions:                                5
       Number of Cartesian basis functions:                                   14
       Number of spherical basis functions:                                   13
       Norm type:                                                              2

       Normalised Cartesian orbitals:

                        Set   Shell   Orbital            Exponent    Coefficient

                          1       1    2s                7.341988       0.360561
                                                         2.542637       0.139177
                                                         0.888575      -0.289383
                                                         0.333802      -0.182244
                                                         0.112012      -0.019197

                          1       2    3s                7.341988       0.282000
                                                         2.542637       0.177875
                                                         0.888575      -0.278381
                                                         0.333802       0.008577
                                                         0.112012       0.154176

                          1       3    3px               7.341988      -1.188719
                                                         2.542637      -0.973969
                                                         0.888575      -0.501079
                                                         0.333802      -0.144894
                                                         0.112012      -0.013986
                          1       3    3py               7.341988      -1.188719
                                                         2.542637      -0.973969
                                                         0.888575      -0.501079
                                                         0.333802      -0.144894
                                                         0.112012      -0.013986
                          1       3    3pz               7.341988      -1.188719
                                                         2.542637      -0.973969
                                                         0.888575      -0.501079
                                                         0.333802      -0.144894
                                                         0.112012      -0.013986

                          1       4    4px               7.341988      -0.094798
                                                         2.542637       0.050069
                                                         0.888575      -0.114797
                                                         0.333802       0.144793
                                                         0.112012       0.066710
                          1       4    4py               7.341988      -0.094798
                                                         2.542637       0.050069
                                                         0.888575      -0.114797
                                                         0.333802       0.144793
                                                         0.112012       0.066710
                          1       4    4pz               7.341988      -0.094798
                                                         2.542637       0.050069
                                                         0.888575      -0.114797
                                                         0.333802       0.144793
                                                         0.112012       0.066710

                          1       5    4dx2              7.341988       1.354688
                                                         2.542637       0.690378
                                                         0.888575       0.855359
                                                         0.333802       0.091746
                                                         0.112012       0.001253
                          1       5    4dxy              7.341988       2.346389
                                                         2.542637       1.195770
                                                         0.888575       1.481524
                                                         0.333802       0.158910
                                                         0.112012       0.002169
                          1       5    4dxz              7.341988       2.346389
                                                         2.542637       1.195770
                                                         0.888575       1.481524
                                                         0.333802       0.158910
                                                         0.112012       0.002169
                          1       5    4dy2              7.341988       1.354688
                                                         2.542637       0.690378
                                                         0.888575       0.855359
                                                         0.333802       0.091746
                                                         0.112012       0.001253
                          1       5    4dyz              7.341988       2.346389
                                                         2.542637       1.195770
                                                         0.888575       1.481524
                                                         0.333802       0.158910
                                                         0.112012       0.002169
                          1       5    4dz2              7.341988       1.354688
                                                         2.542637       0.690378
                                                         0.888575       0.855359
                                                         0.333802       0.091746
                                                         0.112012       0.001253

     GTH Potential information for                                    GTH-PBE-q5

       Description:                       Goedecker-Teter-Hutter pseudopotential
                                           Goedecker et al., PRB 54, 1703 (1996)
                                          Hartwigsen et al., PRB 58, 3641 (1998)
                                                      Krack, TCA 114, 145 (2005)

       Gaussian exponent of the core charge distribution:               6.208322
       Electronic configuration (s p d ...):                               2   3

       Parameters of the local part of the GTH pseudopotential:

                          rloc        C1          C2          C3          C4
                        0.283791  -12.415226    1.868096

       Parameters of the non-local part of the GTH pseudopotential:

                   l      r(l)      h(i,j,l)

                   0    0.255405   13.630263
                   1    0.245495

  2. Atomic kind: Ga                                    Number of atoms:     100

     Orbital Basis Set                                        DZVP-MOLOPT-SR-GTH

       Number of orbital shell sets:                                           1
       Number of orbital shells:                                               7
       Number of primitive Cartesian functions:                                6
       Number of Cartesian basis functions:                                   30
       Number of spherical basis functions:                                   25
       Norm type:                                                              2

       Normalised Cartesian orbitals:

                        Set   Shell   Orbital            Exponent    Coefficient

                          1       1    2s                7.066654       0.013136
                                                         3.428369      -0.094392
                                                         1.430064       0.265435
                                                         0.571611       0.056465
                                                         0.232197      -0.192187
                                                         0.076562      -0.044987

                          1       2    3s                7.066654      -0.098564
                                                         3.428369       0.010390
                                                         1.430064       0.351249
                                                         0.571611       0.182615
                                                         0.232197      -0.425358
                                                         0.076562       0.190349

                          1       3    3px               7.066654       0.002364
                                                         3.428369       0.019222
                                                         1.430064       0.250132
                                                         0.571611      -0.058486
                                                         0.232197      -0.159451
                                                         0.076562      -0.020696
                          1       3    3py               7.066654       0.002364
                                                         3.428369       0.019222
                                                         1.430064       0.250132
                                                         0.571611      -0.058486
                                                         0.232197      -0.159451
                                                         0.076562      -0.020696
                          1       3    3pz               7.066654       0.002364
                                                         3.428369       0.019222
                                                         1.430064       0.250132
                                                         0.571611      -0.058486
                                                         0.232197      -0.159451
                                                         0.076562      -0.020696

                          1       4    4px               7.066654       0.492448
                                                         3.428369      -0.614736
                                                         1.430064      -0.191654
                                                         0.571611       0.037801
                                                         0.232197       0.302315
                                                         0.076562      -0.071336
                          1       4    4py               7.066654       0.492448
                                                         3.428369      -0.614736
                                                         1.430064      -0.191654
                                                         0.571611       0.037801
                                                         0.232197       0.302315
                                                         0.076562      -0.071336
                          1       4    4pz               7.066654       0.492448
                                                         3.428369      -0.614736
                                                         1.430064      -0.191654
                                                         0.571611       0.037801
                                                         0.232197       0.302315
                                                         0.076562      -0.071336

                          1       5    4dx2              7.066654     -15.264855
                                                         3.428369      -5.345726
                                                         1.430064      -1.022732
                                                         0.571611      -0.123148
                                                         0.232197      -0.006983
                                                         0.076562      -0.000022
                          1       5    4dxy              7.066654     -26.439504
                                                         3.428369      -9.259069
                                                         1.430064      -1.771423
                                                         0.571611      -0.213299
                                                         0.232197      -0.012094
                                                         0.076562      -0.000037
                          1       5    4dxz              7.066654     -26.439504
                                                         3.428369      -9.259069
                                                         1.430064      -1.771423
                                                         0.571611      -0.213299
                                                         0.232197      -0.012094
                                                         0.076562      -0.000037
                          1       5    4dy2              7.066654     -15.264855
                                                         3.428369      -5.345726
                                                         1.430064      -1.022732
                                                         0.571611      -0.123148
                                                         0.232197      -0.006983
                                                         0.076562      -0.000022
                          1       5    4dyz              7.066654     -26.439504
                                                         3.428369      -9.259069
                                                         1.430064      -1.771423
                                                         0.571611      -0.213299
                                                         0.232197      -0.012094
                                                         0.076562      -0.000037
                          1       5    4dz2              7.066654     -15.264855
                                                         3.428369      -5.345726
                                                         1.430064      -1.022732
                                                         0.571611      -0.123148
                                                         0.232197      -0.006983
                                                         0.076562      -0.000022

                          1       6    5dx2              7.066654      -5.739265
                                                         3.428369      -2.129289
                                                         1.430064      -0.700423
                                                         0.571611       0.161606
                                                         0.232197       0.043513
                                                         0.076562       0.011205
                          1       6    5dxy              7.066654      -9.940698
                                                         3.428369      -3.688037
                                                         1.430064      -1.213168
                                                         0.571611       0.279909
                                                         0.232197       0.075368
                                                         0.076562       0.019407
                          1       6    5dxz              7.066654      -9.940698
                                                         3.428369      -3.688037
                                                         1.430064      -1.213168
                                                         0.571611       0.279909
                                                         0.232197       0.075368
                                                         0.076562       0.019407
                          1       6    5dy2              7.066654      -5.739265
                                                         3.428369      -2.129289
                                                         1.430064      -0.700423
                                                         0.571611       0.161606
                                                         0.232197       0.043513
                                                         0.076562       0.011205
                          1       6    5dyz              7.066654      -9.940698
                                                         3.428369      -3.688037
                                                         1.430064      -1.213168
                                                         0.571611       0.279909
                                                         0.232197       0.075368
                                                         0.076562       0.019407
                          1       6    5dz2              7.066654      -5.739265
                                                         3.428369      -2.129289
                                                         1.430064      -0.700423
                                                         0.571611       0.161606
                                                         0.232197       0.043513
                                                         0.076562       0.011205

                          1       7    5fx3              7.066654       0.705879
                                                         3.428369      -0.273976
                                                         1.430064       0.113667
                                                         0.571611       0.132480
                                                         0.232197       0.012437
                                                         0.076562       0.003241
                          1       7    5fx2y             7.066654       1.578393
                                                         3.428369      -0.612629
                                                         1.430064       0.254167
                                                         0.571611       0.296234
                                                         0.232197       0.027811
                                                         0.076562       0.007246
                          1       7    5fx2z             7.066654       1.578393
                                                         3.428369      -0.612629
                                                         1.430064       0.254167
                                                         0.571611       0.296234
                                                         0.232197       0.027811
                                                         0.076562       0.007246
                          1       7    5fxy2             7.066654       1.578393
                                                         3.428369      -0.612629
                                                         1.430064       0.254167
                                                         0.571611       0.296234
                                                         0.232197       0.027811
                                                         0.076562       0.007246
                          1       7    5fxyz             7.066654       2.733856
                                                         3.428369      -1.061105
                                                         1.430064       0.440230
                                                         0.571611       0.513092
                                                         0.232197       0.048170
                                                         0.076562       0.012551
                          1       7    5fxz2             7.066654       1.578393
                                                         3.428369      -0.612629
                                                         1.430064       0.254167
                                                         0.571611       0.296234
                                                         0.232197       0.027811
                                                         0.076562       0.007246
                          1       7    5fy3              7.066654       0.705879
                                                         3.428369      -0.273976
                                                         1.430064       0.113667
                                                         0.571611       0.132480
                                                         0.232197       0.012437
                                                         0.076562       0.003241
                          1       7    5fy2z             7.066654       1.578393
                                                         3.428369      -0.612629
                                                         1.430064       0.254167
                                                         0.571611       0.296234
                                                         0.232197       0.027811
                                                         0.076562       0.007246
                          1       7    5fyz2             7.066654       1.578393
                                                         3.428369      -0.612629
                                                         1.430064       0.254167
                                                         0.571611       0.296234
                                                         0.232197       0.027811
                                                         0.076562       0.007246
                          1       7    5fz3              7.066654       0.705879
                                                         3.428369      -0.273976
                                                         1.430064       0.113667
                                                         0.571611       0.132480
                                                         0.232197       0.012437
                                                         0.076562       0.003241

     GTH Potential information for                                   GTH-PBE-q13

       Description:                       Goedecker-Teter-Hutter pseudopotential
                                           Goedecker et al., PRB 54, 1703 (1996)
                                          Hartwigsen et al., PRB 58, 3641 (1998)
                                                      Krack, TCA 114, 145 (2005)

       Gaussian exponent of the core charge distribution:               2.082466
       Electronic configuration (s p d ...):                           2   1  10

       Parameters of the local part of the GTH pseudopotential:

                          rloc        C1          C2          C3          C4
                        0.490000

       Parameters of the non-local part of the GTH pseudopotential:

                   l      r(l)      h(i,j,l)

                   0    0.416777   10.475690   -4.921768    0.870706
                                   -4.921768    7.770178   -2.248152
                                    0.870706   -2.248152    1.784415
                   1    0.569627    1.777985    0.195860
                                    0.195860   -0.231744
                   2    0.238126  -16.248680

  3. Atomic kind: O                                     Number of atoms:       2

     Orbital Basis Set                                     DZVP-MOLOPT-SR-GTH-q6

       Number of orbital shell sets:                                           1
       Number of orbital shells:                                               5
       Number of primitive Cartesian functions:                                5
       Number of Cartesian basis functions:                                   14
       Number of spherical basis functions:                                   13
       Norm type:                                                              2

       Normalised Cartesian orbitals:

                        Set   Shell   Orbital            Exponent    Coefficient

                          1       1    2s               10.389228       0.396646
                                                         3.849621       0.208811
                                                         1.388401      -0.301641
                                                         0.496955      -0.274061
                                                         0.162492      -0.033677

                          1       2    3s               10.389228       0.303673
                                                         3.849621       0.240943
                                                         1.388401      -0.313066
                                                         0.496955      -0.043055
                                                         0.162492       0.213991

                          1       3    3px              10.389228      -1.530415
                                                         3.849621      -1.371928
                                                         1.388401      -0.761951
                                                         0.496955      -0.253695
                                                         0.162492      -0.035541
                          1       3    3py              10.389228      -1.530415
                                                         3.849621      -1.371928
                                                         1.388401      -0.761951
                                                         0.496955      -0.253695
                                                         0.162492      -0.035541
                          1       3    3pz              10.389228      -1.530415
                                                         3.849621      -1.371928
                                                         1.388401      -0.761951
                                                         0.496955      -0.253695
                                                         0.162492      -0.035541

                          1       4    4px              10.389228      -0.565392
                                                         3.849621      -0.038231
                                                         1.388401      -0.382373
                                                         0.496955       0.179070
                                                         0.162492       0.122714
                          1       4    4py              10.389228      -0.565392
                                                         3.849621      -0.038231
                                                         1.388401      -0.382373
                                                         0.496955       0.179070
                                                         0.162492       0.122714
                          1       4    4pz              10.389228      -0.565392
                                                         3.849621      -0.038231
                                                         1.388401      -0.382373
                                                         0.496955       0.179070
                                                         0.162492       0.122714

                          1       5    4dx2             10.389228       1.867377
                                                         3.849621       0.670994
                                                         1.388401       1.353441
                                                         0.496955       0.273538
                                                         0.162492       0.006620
                          1       5    4dxy             10.389228       3.234392
                                                         3.849621       1.162195
                                                         1.388401       2.344229
                                                         0.496955       0.473781
                                                         0.162492       0.011466
                          1       5    4dxz             10.389228       3.234392
                                                         3.849621       1.162195
                                                         1.388401       2.344229
                                                         0.496955       0.473781
                                                         0.162492       0.011466
                          1       5    4dy2             10.389228       1.867377
                                                         3.849621       0.670994
                                                         1.388401       1.353441
                                                         0.496955       0.273538
                                                         0.162492       0.006620
                          1       5    4dyz             10.389228       3.234392
                                                         3.849621       1.162195
                                                         1.388401       2.344229
                                                         0.496955       0.473781
                                                         0.162492       0.011466
                          1       5    4dz2             10.389228       1.867377
                                                         3.849621       0.670994
                                                         1.388401       1.353441
                                                         0.496955       0.273538
                                                         0.162492       0.006620

     GTH Potential information for                                    GTH-PBE-q6

       Description:                       Goedecker-Teter-Hutter pseudopotential
                                           Goedecker et al., PRB 54, 1703 (1996)
                                          Hartwigsen et al., PRB 58, 3641 (1998)
                                                      Krack, TCA 114, 145 (2005)

       Gaussian exponent of the core charge distribution:               8.360253
       Electronic configuration (s p d ...):                               2   4

       Parameters of the local part of the GTH pseudopotential:

                          rloc        C1          C2          C3          C4
                        0.244554  -16.667215    2.487311

       Parameters of the non-local part of the GTH pseudopotential:

                   l      r(l)      h(i,j,l)

                   0    0.220956   18.337458
                   1    0.211332

  4. Atomic kind: H                                     Number of atoms:       8

     Orbital Basis Set                                     DZVP-MOLOPT-SR-GTH-q1

       Number of orbital shell sets:                                           1
       Number of orbital shells:                                               3
       Number of primitive Cartesian functions:                                5
       Number of Cartesian basis functions:                                    5
       Number of spherical basis functions:                                    5
       Norm type:                                                              2

       Normalised Cartesian orbitals:

                        Set   Shell   Orbital            Exponent    Coefficient

                          1       1    2s               10.068468      -0.133023
                                                         2.680223      -0.177618
                                                         0.791502      -0.258419
                                                         0.239116      -0.107525
                                                         0.082193      -0.014019

                          1       2    3s               10.068468       0.344673
                                                         2.680223       1.819821
                                                         0.791502      -0.999069
                                                         0.239116       0.017430
                                                         0.082193       0.082660

                          1       3    3px              10.068468       0.155326
                                                         2.680223       0.367157
                                                         0.791502       0.311480
                                                         0.239116       0.080105
                                                         0.082193       0.033440
                          1       3    3py              10.068468       0.155326
                                                         2.680223       0.367157
                                                         0.791502       0.311480
                                                         0.239116       0.080105
                                                         0.082193       0.033440
                          1       3    3pz              10.068468       0.155326
                                                         2.680223       0.367157
                                                         0.791502       0.311480
                                                         0.239116       0.080105
                                                         0.082193       0.033440

     GTH Potential information for                                    GTH-PBE-q1

       Description:                       Goedecker-Teter-Hutter pseudopotential
                                           Goedecker et al., PRB 54, 1703 (1996)
                                          Hartwigsen et al., PRB 58, 3641 (1998)
                                                      Krack, TCA 114, 145 (2005)

       Gaussian exponent of the core charge distribution:              12.500000
       Electronic configuration (s p d ...):                                   1

       Parameters of the local part of the GTH pseudopotential:

                          rloc        C1          C2          C3          C4
                        0.200000   -4.178900    0.724463

  5. Atomic kind: C                                     Number of atoms:       2

     Orbital Basis Set                                     DZVP-MOLOPT-SR-GTH-q4

       Number of orbital shell sets:                                           1
       Number of orbital shells:                                               5
       Number of primitive Cartesian functions:                                5
       Number of Cartesian basis functions:                                   14
       Number of spherical basis functions:                                   13
       Norm type:                                                              2

       Normalised Cartesian orbitals:

                        Set   Shell   Orbital            Exponent    Coefficient

                          1       1    2s                5.605331       0.322515
                                                         2.113016       0.213043
                                                         0.769911      -0.209686
                                                         0.348157      -0.219794
                                                         0.128212      -0.022789

                          1       2    3s                5.605331       0.552234
                                                         2.113016       0.082072
                                                         0.769911       0.007843
                                                         0.348157       0.136893
                                                         0.128212       0.074283

                          1       3    3px               5.605331      -0.703879
                                                         2.113016      -0.642521
                                                         0.769911      -0.374851
                                                         0.348157      -0.139743
                                                         0.128212      -0.027849
                          1       3    3py               5.605331      -0.703879
                                                         2.113016      -0.642521
                                                         0.769911      -0.374851
                                                         0.348157      -0.139743
                                                         0.128212      -0.027849
                          1       3    3pz               5.605331      -0.703879
                                                         2.113016      -0.642521
                                                         0.769911      -0.374851
                                                         0.348157      -0.139743
                                                         0.128212      -0.027849

                          1       4    4px               5.605331      -0.480376
                                                         2.113016      -0.552894
                                                         0.769911      -0.316145
                                                         0.348157       0.210505
                                                         0.128212       0.076095
                          1       4    4py               5.605331      -0.480376
                                                         2.113016      -0.552894
                                                         0.769911      -0.316145
                                                         0.348157       0.210505
                                                         0.128212       0.076095
                          1       4    4pz               5.605331      -0.480376
                                                         2.113016      -0.552894
                                                         0.769911      -0.316145
                                                         0.348157       0.210505
                                                         0.128212       0.076095

                          1       5    4dx2              5.605331       0.640026
                                                         2.113016       0.274300
                                                         0.769911       0.446711
                                                         0.348157       0.028674
                                                         0.128212       0.029790
                          1       5    4dxy              5.605331       1.108557
                                                         2.113016       0.475102
                                                         0.769911       0.773726
                                                         0.348157       0.049666
                                                         0.128212       0.051599
                          1       5    4dxz              5.605331       1.108557
                                                         2.113016       0.475102
                                                         0.769911       0.773726
                                                         0.348157       0.049666
                                                         0.128212       0.051599
                          1       5    4dy2              5.605331       0.640026
                                                         2.113016       0.274300
                                                         0.769911       0.446711
                                                         0.348157       0.028674
                                                         0.128212       0.029790
                          1       5    4dyz              5.605331       1.108557
                                                         2.113016       0.475102
                                                         0.769911       0.773726
                                                         0.348157       0.049666
                                                         0.128212       0.051599
                          1       5    4dz2              5.605331       0.640026
                                                         2.113016       0.274300
                                                         0.769911       0.446711
                                                         0.348157       0.028674
                                                         0.128212       0.029790

     GTH Potential information for                                    GTH-PBE-q4

       Description:                       Goedecker-Teter-Hutter pseudopotential
                                           Goedecker et al., PRB 54, 1703 (1996)
                                          Hartwigsen et al., PRB 58, 3641 (1998)
                                                      Krack, TCA 114, 145 (2005)

       Gaussian exponent of the core charge distribution:               4.364419
       Electronic configuration (s p d ...):                               2   2

       Parameters of the local part of the GTH pseudopotential:

                          rloc        C1          C2          C3          C4
                        0.338471   -8.803674    1.339211

       Parameters of the non-local part of the GTH pseudopotential:

                   l      r(l)      h(i,j,l)

                   0    0.302576    9.622487
                   1    0.291507


 MOLECULE KIND INFORMATION


 All atoms are their own molecule, skipping detailed information


 TOTAL NUMBERS AND MAXIMUM NUMBERS

  Total number of            - Atomic kinds:                                   5
                             - Atoms:                                        212
                             - Shell sets:                                   212
                             - Shells:                                      1244
                             - Primitive Cartesian functions:               1160
                             - Cartesian basis functions:                   4496
                             - Spherical basis functions:                   3892

  Maximum angular momentum of- Orbital basis functions:                        3
                             - Local part of the GTH pseudopotential:          2
                             - Non-local part of the GTH pseudopotential:      4


 MODULE QUICKSTEP:  ATOMIC COORDINATES IN angstrom

  Atom  Kind  Element       X           Y           Z          Z(eff)       Mass

       1     1 N    7    0.039425    1.988945    2.495890      5.00      14.0067
       2     2 Ga  31    0.062953    0.021412    2.830317     13.00      69.7230
       3     1 N    7    0.041062   -0.011896    5.017180      5.00      14.0067
       4     2 Ga  31    0.044609    1.813477    5.800096     13.00      69.7230
       5     1 N    7    0.043224    1.828718    7.801646      5.00      14.0067
       6     2 Ga  31    0.045598   -0.017092    8.443021     13.00      69.7230
       7     1 N    7    0.043383   -0.016906   10.418822      5.00      14.0067
       8     2 Ga  31    0.043861    1.823343   11.068341     13.00      69.7230
       9     1 N    7    0.043223    1.804083   13.063291      5.00      14.0067
      10     2 Ga  31    0.044218   -0.016271   13.865476     13.00      69.7230
      11     1 N    7    0.044153   -0.014608   16.069895      5.00      14.0067
      12     2 Ga  31    0.043438    2.029049   16.479279     13.00      69.7230
      13     2 Ga  31    0.011672    3.689163    1.366886     13.00      69.7230
      14     1 N    7   -1.442759    4.560009    2.517253      5.00      14.0067
      15     2 Ga  31   -1.635447    2.725132    3.283725     13.00      69.7230
      16     1 N    7   -1.566571    2.768393    5.260713      5.00      14.0067
      17     2 Ga  31   -1.596652    4.635303    5.810401     13.00      69.7230
      18     1 N    7   -1.573792    4.632052    7.805859      5.00      14.0067
      19     2 Ga  31   -1.553774    2.772767    8.440308     13.00      69.7230
      20     1 N    7   -1.554162    2.775789   10.434385      5.00      14.0067
      21     2 Ga  31   -1.580894    4.634469   11.072019     13.00      69.7230
      22     1 N    7   -1.597233    4.644661   13.066369      5.00      14.0067
      23     2 Ga  31   -1.553727    2.774843   13.620613     13.00      69.7230
      24     1 N    7   -1.580124    2.758030   15.583244      5.00      14.0067
      25     2 Ga  31   -1.410068    4.536819   16.478190     13.00      69.7230
      26     1 N    7    0.042398    3.707003   17.608698      5.00      14.0067
      27     1 N    7   -3.172256    7.526951    2.507412      5.00      14.0067
      28     2 Ga  31   -3.146039    5.548381    2.840355     13.00      69.7230
      29     1 N    7   -3.170860    5.551586    5.025291      5.00      14.0067
      30     2 Ga  31   -3.178864    7.378034    5.795703     13.00      69.7230
      31     1 N    7   -3.171407    7.401001    7.793823      5.00      14.0067
      32     2 Ga  31   -3.173071    5.555678    8.447869     13.00      69.7230
      33     1 N    7   -3.173137    5.555836   10.421395      5.00      14.0067
      34     2 Ga  31   -3.174977    7.395189   11.070879     13.00      69.7230
      35     1 N    7   -3.173579    7.375299   13.063974      5.00      14.0067
      36     2 Ga  31   -3.174351    5.555589   13.869297     13.00      69.7230
      37     1 N    7   -3.173730    5.557154   16.069536      5.00      14.0067
      38     2 Ga  31   -3.173370    7.602876   16.483138     13.00      69.7230
      39     2 Ga  31   -3.195393    9.278934    1.337608     13.00      69.7230
      40     1 N    7   -4.680558   10.138741    2.507100      5.00      14.0067
      41     2 Ga  31   -4.865291    8.297517    3.255724     13.00      69.7230
      42     1 N    7   -4.779796    8.339214    5.236344      5.00      14.0067
      43     2 Ga  31   -4.805839   10.211531    5.785584     13.00      69.7230
      44     1 N    7   -4.790305   10.201413    7.789947      5.00      14.0067
      45     2 Ga  31   -4.771514    8.346988    8.431804     13.00      69.7230
      46     1 N    7   -4.770193    8.346191   10.427588      5.00      14.0067
      47     2 Ga  31   -4.795309   10.204638   11.067740     13.00      69.7230
      48     1 N    7   -4.812065   10.214347   13.062499      5.00      14.0067
      49     2 Ga  31   -4.770088    8.346113   13.621325     13.00      69.7230
      50     1 N    7   -4.796293    8.330514   15.582753      5.00      14.0067
      51     2 Ga  31   -4.620470   10.104422   16.482863     13.00      69.7230
      52     1 N    7   -3.172514    9.276636   17.620486      5.00      14.0067
      53     1 N    7    3.247556    1.841421    2.620325      5.00      14.0067
      54     2 Ga  31    3.252324    0.079914    3.256883     13.00      69.7230
      55     1 N    7    3.261720   -0.018963    5.238013      5.00      14.0067
      56     2 Ga  31    3.252198    1.835341    5.865649     13.00      69.7230
      57     1 N    7    3.259955    1.838888    7.845754      5.00      14.0067
      58     2 Ga  31    3.257645   -0.027536    8.432185     13.00      69.7230
      59     1 N    7    3.259491   -0.029087   10.428459      5.00      14.0067
      60     2 Ga  31    3.259137    1.840315   11.024620     13.00      69.7230
      61     1 N    7    3.258979    1.840707   12.997027      5.00      14.0067
      62     2 Ga  31    3.258814   -0.028568   13.621143     13.00      69.7230
      63     1 N    7    3.258565    0.002482   15.583694      5.00      14.0067
      64     2 Ga  31    3.259626    1.840128   15.862830     13.00      69.7230
      65     1 N    7    1.533293    4.564561    2.525983      5.00      14.0067
      66     2 Ga  31    1.720950    2.725273    3.268956     13.00      69.7230
      67     1 N    7    1.652186    2.768095    5.252723      5.00      14.0067
      68     2 Ga  31    1.679889    4.631598    5.806016     13.00      69.7230
      69     1 N    7    1.661497    4.632512    7.801652      5.00      14.0067
      70     2 Ga  31    1.642815    2.771632    8.435379     13.00      69.7230
      71     1 N    7    1.640832    2.775944   10.431080      5.00      14.0067
      72     2 Ga  31    1.667017    4.633490   11.071539     13.00      69.7230
      73     1 N    7    1.683185    4.644402   13.065732      5.00      14.0067
      74     2 Ga  31    1.640267    2.774633   13.620308     13.00      69.7230
      75     1 N    7    1.666642    2.758639   15.582767      5.00      14.0067
      76     2 Ga  31    1.495459    4.536084   16.478518     13.00      69.7230
      77     1 N    7    0.031420    7.394928    2.689128      5.00      14.0067
      78     2 Ga  31    0.044057    5.553020    3.334292     13.00      69.7230
      79     1 N    7    0.042781    5.567574    5.272019      5.00      14.0067
      80     2 Ga  31    0.036437    7.408521    5.904345     13.00      69.7230
      81     1 N    7    0.042928    7.412921    7.863646      5.00      14.0067
      82     2 Ga  31    0.043697    5.539926    8.445930     13.00      69.7230
      83     1 N    7    0.043497    5.542249   10.436991      5.00      14.0067
      84     2 Ga  31    0.042215    7.411723   11.030105     13.00      69.7230
      85     1 N    7    0.042931    7.411931   13.001170      5.00      14.0067
      86     2 Ga  31    0.043061    5.541398   13.622014     13.00      69.7230
      87     1 N    7    0.043701    5.574416   15.585537      5.00      14.0067
      88     2 Ga  31    0.042514    7.412400   15.862741     13.00      69.7230
      89     1 N    7   -1.663399   10.132017    2.510850      5.00      14.0067
      90     2 Ga  31   -1.558575    8.327497    3.299663     13.00      69.7230
      91     1 N    7   -1.552873    8.332325    5.243696      5.00      14.0067
      92     2 Ga  31   -1.543343   10.214554    5.797591     13.00      69.7230
      93     1 N    7   -1.554996   10.199325    7.794223      5.00      14.0067
      94     2 Ga  31   -1.579040    8.347190    8.444472     13.00      69.7230
      95     1 N    7   -1.576581    8.346638   10.434663      5.00      14.0067
      96     2 Ga  31   -1.551338   10.206313   11.071105     13.00      69.7230
      97     1 N    7   -1.533811   10.214942   13.064519      5.00      14.0067
      98     2 Ga  31   -1.577339    8.346315   13.622235     13.00      69.7230
      99     1 N    7   -1.550121    8.329883   15.583432      5.00      14.0067
     100     2 Ga  31   -1.724776   10.105210   16.482832     13.00      69.7230
     101     1 N    7    6.476558    1.964775    2.537105      5.00      14.0067
     102     2 Ga  31    6.458260   -0.014403    2.864028     13.00      69.7230
     103     1 N    7    6.478804   -0.016026    5.025441      5.00      14.0067
     104     2 Ga  31    6.475446    1.813805    5.805707     13.00      69.7230
     105     1 N    7    6.475803    1.828268    7.801411      5.00      14.0067
     106     2 Ga  31    6.473651   -0.017454    8.446851     13.00      69.7230
     107     1 N    7    6.475260   -0.016838   10.420073      5.00      14.0067
     108     2 Ga  31    6.474559    1.824261   11.069461     13.00      69.7230
     109     1 N    7    6.474941    1.804087   13.062979      5.00      14.0067
     110     2 Ga  31    6.474017   -0.014853   13.868633     13.00      69.7230
     111     1 N    7    6.474467   -0.013869   16.069722      5.00      14.0067
     112     2 Ga  31    6.475154    2.033947   16.483326     13.00      69.7230
     113     2 Ga  31    6.476567    3.695247    1.528791     13.00      69.7230
     114     1 N    7    4.974379    4.563204    2.535266      5.00      14.0067
     115     2 Ga  31    4.755073    2.704324    3.296731     13.00      69.7230
     116     1 N    7    4.866341    2.767729    5.257668      5.00      14.0067
     117     2 Ga  31    4.845828    4.639107    5.802745     13.00      69.7230
     118     1 N    7    4.857761    4.632036    7.798607      5.00      14.0067
     119     2 Ga  31    4.874936    2.772818    8.435952     13.00      69.7230
     120     1 N    7    4.877940    2.775877   10.430451      5.00      14.0067
     121     2 Ga  31    4.853325    4.634345   11.069686     13.00      69.7230
     122     1 N    7    4.835817    4.644290   13.063653      5.00      14.0067
     123     2 Ga  31    4.878167    2.775019   13.620484     13.00      69.7230
     124     1 N    7    4.850833    2.758665   15.581342      5.00      14.0067
     125     2 Ga  31    5.028586    4.533472   16.482445     13.00      69.7230
     126     1 N    7    6.476202    3.706608   17.617727      5.00      14.0067
     127     1 N    7    3.242568    7.532374    2.476516      5.00      14.0067
     128     1 N    7    3.260930    5.556666    5.023630      5.00      14.0067
     129     2 Ga  31    3.263658    7.377367    5.807997     13.00      69.7230
     130     1 N    7    3.257060    7.400716    7.798494      5.00      14.0067
     131     2 Ga  31    3.259818    5.552918    8.448631     13.00      69.7230
     132     1 N    7    3.259515    5.555362   10.421205      5.00      14.0067
     133     2 Ga  31    3.260990    7.394206   11.072479     13.00      69.7230
     134     1 N    7    3.259463    7.374862   13.065385      5.00      14.0067
     135     2 Ga  31    3.260404    5.554131   13.868433     13.00      69.7230
     136     1 N    7    3.260085    5.556201   16.069980      5.00      14.0067
     137     2 Ga  31    3.259792    7.598204   16.479287     13.00      69.7230
     138     2 Ga  31    3.285871    9.314184    1.502706     13.00      69.7230
     139     1 N    7    1.755051   10.131859    2.526381      5.00      14.0067
     140     2 Ga  31    1.612345    8.309287    3.317609     13.00      69.7230
     141     1 N    7    1.638417    8.329998    5.249028      5.00      14.0067
     142     2 Ga  31    1.623316   10.214307    5.809240     13.00      69.7230
     143     1 N    7    1.641565   10.197902    7.800113      5.00      14.0067
     144     2 Ga  31    1.662546    8.345466    8.449393     13.00      69.7230
     145     1 N    7    1.662602    8.346206   10.437375      5.00      14.0067
     146     2 Ga  31    1.636159   10.206310   11.073183     13.00      69.7230
     147     1 N    7    1.619241   10.214953   13.066572      5.00      14.0067
     148     2 Ga  31    1.662710    8.345859   13.622407     13.00      69.7230
     149     1 N    7    1.636900    8.329604   15.585184      5.00      14.0067
     150     2 Ga  31    1.805681   10.108007   16.478785     13.00      69.7230
     151     1 N    7    3.258971    9.277644   17.613403      5.00      14.0067
     152     1 N    7    9.700728    1.847676    2.626690      5.00      14.0067
     153     2 Ga  31    9.697147    0.113030    3.305142     13.00      69.7230
     154     1 N    7    9.689373   -0.018704    5.261302      5.00      14.0067
     155     2 Ga  31    9.697002    1.844041    5.882032     13.00      69.7230
     156     1 N    7    9.690715    1.839462    7.855691      5.00      14.0067
     157     2 Ga  31    9.693335   -0.028072    8.439403     13.00      69.7230
     158     1 N    7    9.691089   -0.029517   10.432863      5.00      14.0067
     159     2 Ga  31    9.691404    1.840818   11.027036     13.00      69.7230
     160     1 N    7    9.691424    1.840524   12.999020      5.00      14.0067
     161     2 Ga  31    9.691726   -0.028717   13.621664     13.00      69.7230
     162     1 N    7    9.692318    0.001917   15.585602      5.00      14.0067
     163     2 Ga  31    9.690955    1.840761   15.863457     13.00      69.7230
     164     1 N    7    7.978376    4.563866    2.530964      5.00      14.0067
     165     2 Ga  31    8.192194    2.714497    3.301458     13.00      69.7230
     166     1 N    7    8.085142    2.768680    5.261880      5.00      14.0067
     167     2 Ga  31    8.111663    4.642439    5.804227     13.00      69.7230
     168     1 N    7    8.093239    4.631867    7.801304      5.00      14.0067
     169     2 Ga  31    8.073591    2.774771    8.440952     13.00      69.7230
     170     1 N    7    8.072223    2.775990   10.433802      5.00      14.0067
     171     2 Ga  31    8.097680    4.635490   11.070380     13.00      69.7230
     172     1 N    7    8.114769    4.644683   13.064276      5.00      14.0067
     173     2 Ga  31    8.071653    2.775355   13.620671     13.00      69.7230
     174     1 N    7    8.099467    2.758342   15.581381      5.00      14.0067
     175     2 Ga  31    7.923478    4.534491   16.481872     13.00      69.7230
     176     1 N    7    6.475084    7.413057    2.609419      5.00      14.0067
     177     2 Ga  31    6.480892    5.675775    3.294234     13.00      69.7230
     178     1 N    7    6.476995    5.556203    5.255002      5.00      14.0067
     179     2 Ga  31    6.480467    7.415933    5.866806     13.00      69.7230
     180     1 N    7    6.475224    7.412048    7.843574      5.00      14.0067
     181     2 Ga  31    6.475796    5.545121    8.436790     13.00      69.7230
     182     1 N    7    6.475151    5.543068   10.430995      5.00      14.0067
     183     2 Ga  31    6.475955    7.412350   11.025291     13.00      69.7230
     184     1 N    7    6.475198    7.412339   12.997507      5.00      14.0067
     185     2 Ga  31    6.475211    5.542231   13.620942     13.00      69.7230
     186     1 N    7    6.474884    5.575375   15.582849      5.00      14.0067
     187     2 Ga  31    6.475847    7.412056   15.862042     13.00      69.7230
     188     1 N    7    4.765363   10.143002    2.532543      5.00      14.0067
     189     2 Ga  31    4.963063    8.274138    3.282808     13.00      69.7230
     190     1 N    7    4.862794    8.338992    5.246680      5.00      14.0067
     191     2 Ga  31    4.899579   10.212976    5.799118     13.00      69.7230
     192     1 N    7    4.877248   10.200864    7.796854      5.00      14.0067
     193     2 Ga  31    4.859899    8.345556    8.436489     13.00      69.7230
     194     1 N    7    4.856135    8.345766   10.430073      5.00      14.0067
     195     2 Ga  31    4.882880   10.204753   11.069511     13.00      69.7230
     196     1 N    7    4.898667   10.214507   13.064212      5.00      14.0067
     197     2 Ga  31    4.856544    8.345837   13.621284     13.00      69.7230
     198     1 N    7    4.881920    8.330539   15.583945      5.00      14.0067
     199     2 Ga  31    4.712663   10.107464   16.478620     13.00      69.7230
     200     3 O    8    0.064128    4.021883   -0.442279      6.00      15.9994
     201     4 H    1    0.166923    5.806068   -0.361394      1.00       1.0079
     202     5 C    6    1.134289    3.396140   -1.177711      4.00      12.0107
     203     4 H    1    2.121241    3.597081   -0.729275      1.00       1.0079
     204     4 H    1    0.995561    2.305749   -1.235437      1.00       1.0079
     205     4 H    1    1.120174    3.803693   -2.198628      1.00       1.0079
     206     2 Ga  31    3.234159    5.519993    2.869785     13.00      69.7230
     207     3 O    8    0.344869    6.771280   -0.200348      6.00      15.9994
     208     4 H    1    0.035234    7.321894    1.651255      1.00       1.0079
     209     5 C    6    1.756346    6.968319   -0.370587      4.00      12.0107
     210     4 H    1    1.908429    7.986215   -0.773919      1.00       1.0079
     211     4 H    1    2.305092    6.894241    0.589747      1.00       1.0079
     212     4 H    1    2.188362    6.260454   -1.092118      1.00       1.0079




 SCF PARAMETERS         Density guess:                                    ATOMIC
                        --------------------------------------------------------
                        max_scf:                                              80
                        max_scf_history:                                       0
                        max_diis:                                              4
                        --------------------------------------------------------
                        eps_scf:                                        5.00E-06
                        eps_scf_history:                                0.00E+00
                        eps_diis:                                       1.00E-01
                        eps_eigval:                                     1.00E-05
                        --------------------------------------------------------
                        level_shift [a.u.]:                                 0.00
                        --------------------------------------------------------
                        Outer loop SCF in use 
                        No variables optimised in outer loop
                        eps_scf                                         5.00E-06
                        max_scf                                                4
                        No outer loop optimization
                        step_size                                       5.00E-01

 PW_GRID| Information for grid number                                          1
 PW_GRID| Grid distributed over                                    80 processors
 PW_GRID| Real space group dimensions                                    80    1
 PW_GRID| the grid is blocked:                                                NO
 PW_GRID| Cutoff [a.u.]                                                    600.0
 PW_GRID| spherical cutoff:                                                   NO
 PW_GRID|   Bounds   1           -144     143                Points:         288
 PW_GRID|   Bounds   2           -144     143                Points:         288
 PW_GRID|   Bounds   3           -337     337                Points:         675
 PW_GRID| Volume element (a.u.^3)  0.5630E-03     Volume (a.u.^3)     31519.8467
 PW_GRID| Grid span                                                    FULLSPACE
 PW_GRID|   Distribution                         Average         Max         Min
 PW_GRID|   G-Vectors                           699840.0      699840      699840
 PW_GRID|   G-Rays                                2430.0        2430        2430
 PW_GRID|   Real Space Points                   699840.0      777600      583200

 PW_GRID| Information for grid number                                          2
 PW_GRID| Grid distributed over                                    80 processors
 PW_GRID| Real space group dimensions                                    80    1
 PW_GRID| the grid is blocked:                                                NO
 PW_GRID| Cutoff [a.u.]                                                    200.0
 PW_GRID| spherical cutoff:                                                   NO
 PW_GRID|   Bounds   1            -80      79                Points:         160
 PW_GRID|   Bounds   2            -80      79                Points:         160
 PW_GRID|   Bounds   3           -200     199                Points:         400
 PW_GRID| Volume element (a.u.^3)  0.3078E-02     Volume (a.u.^3)     31519.8467
 PW_GRID| Grid span                                                    FULLSPACE
 PW_GRID|   Distribution                         Average         Max         Min
 PW_GRID|   G-Vectors                           128000.0      128160      127840
 PW_GRID|   G-Rays                                 800.0         801         799
 PW_GRID|   Real Space Points                   128000.0      128000      128000

 PW_GRID| Information for grid number                                          3
 PW_GRID| Grid distributed over                                    80 processors
 PW_GRID| Real space group dimensions                                    80    1
 PW_GRID| the grid is blocked:                                                NO
 PW_GRID| Cutoff [a.u.]                                                     66.7
 PW_GRID| spherical cutoff:                                                   NO
 PW_GRID|   Bounds   1            -48      47                Points:          96
 PW_GRID|   Bounds   2            -48      47                Points:          96
 PW_GRID|   Bounds   3           -112     112                Points:         225
 PW_GRID| Volume element (a.u.^3)  0.1520E-01     Volume (a.u.^3)     31519.8467
 PW_GRID| Grid span                                                    FULLSPACE
 PW_GRID|   Distribution                         Average         Max         Min
[...]
     11       N      1       5.000    2.135   2.135            0.000      0.730
     12       Ga     2      13.000    6.913   6.913           -0.000     -0.827
     13       Ga     2      13.000    6.982   6.982            0.000     -0.964
     14       N      1       5.000    2.095   2.095            0.000      0.809
     15       Ga     2      13.000    6.965   6.964            0.000     -0.929
     16       N      1       5.000    2.052   2.052            0.000      0.896
     17       Ga     2      13.000    6.941   6.941            0.000     -0.881
     18       N      1       5.000    2.060   2.060            0.000      0.879
     19       Ga     2      13.000    6.938   6.938            0.000     -0.876
     20       N      1       5.000    2.062   2.062           -0.000      0.877
     21       Ga     2      13.000    6.939   6.939            0.000     -0.878
     22       N      1       5.000    2.060   2.060            0.000      0.880
     23       Ga     2      13.000    6.950   6.950           -0.000     -0.901
     24       N      1       5.000    2.050   2.051           -0.000      0.899
     25       Ga     2      13.000    6.913   6.913           -0.000     -0.825
     26       N      1       5.000    2.232   2.232           -0.000      0.536
     27       N      1       5.000    2.101   2.100            0.000      0.799
     28       Ga     2      13.000    6.891   6.891            0.000     -0.782
     29       N      1       5.000    2.100   2.100            0.000      0.801
     30       Ga     2      13.000    6.942   6.942            0.000     -0.884
     31       N      1       5.000    2.061   2.061            0.000      0.878
     32       Ga     2      13.000    6.951   6.951            0.000     -0.901
     33       N      1       5.000    2.051   2.051           -0.000      0.897
     34       Ga     2      13.000    6.939   6.939           -0.000     -0.878
     35       N      1       5.000    2.060   2.060            0.000      0.881
     36       Ga     2      13.000    6.873   6.873           -0.000     -0.746
     37       N      1       5.000    2.135   2.135            0.000      0.729
     38       Ga     2      13.000    6.913   6.909            0.003     -0.822
     39       Ga     2      13.000    6.711   6.709            0.002     -0.420
     40       N      1       5.000    2.096   2.095            0.000      0.809
     41       Ga     2      13.000    6.960   6.960            0.000     -0.919
     42       N      1       5.000    2.052   2.052            0.000      0.896
     43       Ga     2      13.000    6.945   6.944            0.000     -0.889
     44       N      1       5.000    2.061   2.061            0.000      0.878
     45       Ga     2      13.000    6.938   6.938            0.000     -0.876
     46       N      1       5.000    2.062   2.062            0.000      0.876
     47       Ga     2      13.000    6.939   6.939           -0.000     -0.878
     48       N      1       5.000    2.060   2.060           -0.000      0.880
     49       Ga     2      13.000    6.950   6.950            0.000     -0.900
     50       N      1       5.000    2.052   2.050            0.002      0.899
     51       Ga     2      13.000    6.914   6.911            0.003     -0.825
     52       N      1       5.000    2.259   2.211            0.048      0.530
     53       N      1       5.000    2.124   2.124            0.000      0.752
     54       Ga     2      13.000    6.960   6.960            0.000     -0.919
     55       N      1       5.000    2.051   2.051            0.000      0.897
     56       Ga     2      13.000    6.936   6.936            0.000     -0.871
     57       N      1       5.000    2.056   2.056            0.000      0.888
     58       Ga     2      13.000    6.938   6.938           -0.000     -0.877
     59       N      1       5.000    2.062   2.062            0.000      0.876
     60       Ga     2      13.000    6.946   6.947           -0.000     -0.893
     61       N      1       5.000    2.062   2.062            0.000      0.876
     62       Ga     2      13.000    6.950   6.950            0.000     -0.900
     63       N      1       5.000    2.051   2.049            0.002      0.899
     64       Ga     2      13.000    6.858   6.857            0.000     -0.715
     65       N      1       5.000    2.101   2.101            0.000      0.797
     66       Ga     2      13.000    6.972   6.972            0.000     -0.944
     67       N      1       5.000    2.052   2.052            0.000      0.895
     68       Ga     2      13.000    6.939   6.939            0.000     -0.878
     69       N      1       5.000    2.060   2.060            0.000      0.879
     70       Ga     2      13.000    6.938   6.938           -0.000     -0.875
     71       N      1       5.000    2.062   2.062            0.000      0.876
     72       Ga     2      13.000    6.939   6.939           -0.000     -0.878
     73       N      1       5.000    2.060   2.060           -0.000      0.880
     74       Ga     2      13.000    6.950   6.950            0.000     -0.901
     75       N      1       5.000    2.050   2.050            0.000      0.899
     76       Ga     2      13.000    6.913   6.913           -0.000     -0.825
     77       N      1       5.000    2.227   2.227            0.000      0.546
     78       Ga     2      13.000    6.993   6.993            0.000     -0.987
     79       N      1       5.000    2.049   2.049            0.000      0.903
     80       Ga     2      13.000    6.946   6.946            0.000     -0.891
     81       N      1       5.000    2.055   2.055            0.000      0.891
     82       Ga     2      13.000    6.938   6.938            0.000     -0.876
     83       N      1       5.000    2.062   2.062            0.000      0.877
     84       Ga     2      13.000    6.946   6.946            0.000     -0.892
     85       N      1       5.000    2.062   2.062           -0.000      0.876
     86       Ga     2      13.000    6.950   6.950            0.000     -0.900
     87       N      1       5.000    2.050   2.050           -0.000      0.899
     88       Ga     2      13.000    6.857   6.857           -0.000     -0.713
     89       N      1       5.000    2.100   2.100            0.000      0.800
     90       Ga     2      13.000    6.981   6.981            0.000     -0.962
     91       N      1       5.000    2.050   2.050            0.000      0.900
     92       Ga     2      13.000    6.943   6.943            0.000     -0.886
     93       N      1       5.000    2.061   2.061            0.000      0.879
     94       Ga     2      13.000    6.939   6.939            0.000     -0.878
     95       N      1       5.000    2.061   2.061            0.000      0.877
     96       Ga     2      13.000    6.939   6.939           -0.000     -0.878
     97       N      1       5.000    2.060   2.060           -0.000      0.881
     98       Ga     2      13.000    6.950   6.950            0.000     -0.900
     99       N      1       5.000    2.052   2.050            0.002      0.899
    100       Ga     2      13.000    6.914   6.911            0.003     -0.824
    101       N      1       5.000    2.093   2.093            0.000      0.813
    102       Ga     2      13.000    6.900   6.899            0.000     -0.799
    103       N      1       5.000    2.098   2.098            0.000      0.804
    104       Ga     2      13.000    6.944   6.944            0.000     -0.888
    105       N      1       5.000    2.061   2.061            0.000      0.879
    106       Ga     2      13.000    6.950   6.950            0.000     -0.900
    107       N      1       5.000    2.052   2.052            0.000      0.897
    108       Ga     2      13.000    6.939   6.939            0.000     -0.878
    109       N      1       5.000    2.060   2.060            0.000      0.881
    110       Ga     2      13.000    6.873   6.873            0.000     -0.746
    111       N      1       5.000    2.135   2.135            0.000      0.730
    112       Ga     2      13.000    6.913   6.913           -0.000     -0.826
    113       Ga     2      13.000    6.717   6.716            0.001     -0.432
    114       N      1       5.000    2.095   2.095            0.000      0.810
    115       Ga     2      13.000    6.963   6.962            0.000     -0.925
    116       N      1       5.000    2.050   2.050            0.000      0.899
    117       Ga     2      13.000    6.944   6.944            0.000     -0.887
    118       N      1       5.000    2.061   2.061            0.000      0.879
    119       Ga     2      13.000    6.938   6.938           -0.000     -0.876
    120       N      1       5.000    2.062   2.062            0.000      0.876
    121       Ga     2      13.000    6.939   6.939           -0.000     -0.878
    122       N      1       5.000    2.060   2.060           -0.000      0.880
    123       Ga     2      13.000    6.950   6.950            0.000     -0.901
    124       N      1       5.000    2.051   2.050            0.000      0.899
    125       Ga     2      13.000    6.913   6.913           -0.000     -0.826
    126       N      1       5.000    2.231   2.233           -0.002      0.536
    127       N      1       5.000    2.129   2.129            0.000      0.741
    128       N      1       5.000    2.096   2.096            0.000      0.807
    129       Ga     2      13.000    6.943   6.943            0.000     -0.886
    130       N      1       5.000    2.061   2.061            0.000      0.878
    131       Ga     2      13.000    6.951   6.951            0.000     -0.901
    132       N      1       5.000    2.052   2.052            0.000      0.897
    133       Ga     2      13.000    6.939   6.939            0.000     -0.878
    134       N      1       5.000    2.060   2.060           -0.000      0.881
    135       Ga     2      13.000    6.873   6.873            0.000     -0.746
    136       N      1       5.000    2.135   2.135           -0.000      0.729
    137       Ga     2      13.000    6.909   6.913           -0.003     -0.822
    138       Ga     2      13.000    6.826   6.825            0.000     -0.651
    139       N      1       5.000    2.097   2.097            0.000      0.806
    140       Ga     2      13.000    6.996   6.996            0.000     -0.992
    141       N      1       5.000    2.051   2.051            0.000      0.899
    142       Ga     2      13.000    6.942   6.942            0.000     -0.885
    143       N      1       5.000    2.061   2.061            0.000      0.878
    144       Ga     2      13.000    6.939   6.939           -0.000     -0.879
    145       N      1       5.000    2.061   2.061            0.000      0.878
    146       Ga     2      13.000    6.939   6.939            0.000     -0.879
    147       N      1       5.000    2.060   2.060            0.000      0.881
    148       Ga     2      13.000    6.950   6.950           -0.000     -0.900
    149       N      1       5.000    2.049   2.052           -0.002      0.899
    150       Ga     2      13.000    6.910   6.914           -0.003     -0.824
    151       N      1       5.000    2.210   2.260           -0.050      0.529
    152       N      1       5.000    2.122   2.122           -0.000      0.757
    153       Ga     2      13.000    6.957   6.957            0.000     -0.914
    154       N      1       5.000    2.051   2.051            0.000      0.899
    155       Ga     2      13.000    6.935   6.935            0.000     -0.870
    156       N      1       5.000    2.056   2.056           -0.000      0.888
    157       Ga     2      13.000    6.938   6.938            0.000     -0.876
    158       N      1       5.000    2.062   2.062           -0.000      0.876
    159       Ga     2      13.000    6.947   6.946            0.000     -0.893
    160       N      1       5.000    2.062   2.062           -0.000      0.876
    161       Ga     2      13.000    6.950   6.950           -0.000     -0.900
    162       N      1       5.000    2.049   2.052           -0.002      0.899
    163       Ga     2      13.000    6.857   6.858           -0.000     -0.715
    164       N      1       5.000    2.094   2.094            0.000      0.812
    165       Ga     2      13.000    6.961   6.961            0.000     -0.923
    166       N      1       5.000    2.050   2.050            0.000      0.899
    167       Ga     2      13.000    6.944   6.944            0.000     -0.887
    168       N      1       5.000    2.061   2.061            0.000      0.878
    169       Ga     2      13.000    6.938   6.938            0.000     -0.877
    170       N      1       5.000    2.062   2.062           -0.000      0.877
    171       Ga     2      13.000    6.939   6.939            0.000     -0.878
    172       N      1       5.000    2.060   2.060            0.000      0.880
    173       Ga     2      13.000    6.950   6.950           -0.000     -0.901
    174       N      1       5.000    2.050   2.051           -0.000      0.899
    175       Ga     2      13.000    6.913   6.913           -0.000     -0.826
    176       N      1       5.000    2.122   2.122            0.000      0.755
    177       Ga     2      13.000    6.963   6.963            0.000     -0.925
    178       N      1       5.000    2.050   2.050            0.000      0.899
    179       Ga     2      13.000    6.933   6.933            0.000     -0.867
    180       N      1       5.000    2.056   2.056            0.000      0.887
    181       Ga     2      13.000    6.938   6.938            0.000     -0.877
    182       N      1       5.000    2.062   2.062            0.000      0.876
    183       Ga     2      13.000    6.947   6.946            0.000     -0.893
    184       N      1       5.000    2.062   2.062           -0.000      0.876
    185       Ga     2      13.000    6.950   6.950           -0.000     -0.900
    186       N      1       5.000    2.050   2.051           -0.000      0.899
    187       Ga     2      13.000    6.857   6.857           -0.000     -0.713
    188       N      1       5.000    2.092   2.092            0.000      0.817
    189       Ga     2      13.000    6.957   6.957            0.000     -0.914
    190       N      1       5.000    2.053   2.053            0.000      0.895
    191       Ga     2      13.000    6.945   6.945            0.000     -0.889
    192       N      1       5.000    2.061   2.061            0.000      0.877
    193       Ga     2      13.000    6.938   6.938           -0.000     -0.877
    194       N      1       5.000    2.062   2.062            0.000      0.877
    195       Ga     2      13.000    6.939   6.939            0.000     -0.878
    196       N      1       5.000    2.060   2.060            0.000      0.880
    197       Ga     2      13.000    6.950   6.950           -0.000     -0.901
    198       N      1       5.000    2.050   2.052           -0.002      0.899
    199       Ga     2      13.000    6.911   6.914           -0.003     -0.825
    200       O      3       6.000    3.055   3.055            0.000     -0.109
    201       H      4       1.000    0.207   0.207           -0.000      0.586
    202       C      5       4.000    2.448   2.448            0.000     -0.896
    203       H      4       1.000    0.279   0.279            0.000      0.441
    204       H      4       1.000    0.280   0.280            0.000      0.440
    205       H      4       1.000    0.280   0.280            0.000      0.441
    206       Ga     2      13.000    6.955   6.955            0.000     -0.909
    207       O      3       6.000    3.367   3.367            0.000     -0.734
    208       H      4       1.000    0.224   0.224           -0.000      0.551
    209       C      5       4.000    2.362   2.362            0.000     -0.724
    210       H      4       1.000    0.276   0.276           -0.000      0.447
    211       H      4       1.000    0.260   0.260            0.000      0.479
    212       H      4       1.000    0.280   0.280           -0.000      0.440

  Total Charge                                                            0.003
 !-----------------------------------------------------------------------------!

 ENERGY| Total FORCE_EVAL ( QS ) energy (a.u.):            -8504.722767183391625


 --------  Informations at step =    27 ------------
  Optimization Method        =                 BFGS
  Total Energy               =     -8504.7227671834
  Real energy change         =        -0.0000553224
  Predicted change in energy =        -0.0000209288
  Scaling factor             =         0.0465170409
  Step size                  =         0.0550596313
  Trust radius               =         0.4724315332
  Decrease in energy         =                  YES
  Used time                  =              171.433

  Convergence check :
  Max. step size             =         0.0550596313
  Conv. limit for step size  =         0.0030000000
  Convergence in step size   =                   NO
  RMS step size              =         0.0047939170
  Conv. limit for RMS step   =         0.0015000000
  Convergence in RMS step    =                   NO
  Max. gradient              =         0.0013951101
  Conv. limit for gradients  =         0.0004500000
  Conv. for gradients        =                   NO
  RMS gradient               =         0.0002055004
  Conv. limit for RMS grad.  =         0.0003000000
  Conv. in RMS gradients     =                  YES
 ---------------------------------------------------

 --------------------------
 OPTIMIZATION STEP:     28
 --------------------------

 Spin 1

 Number of electrons:                                                        914
 Number of occupied orbitals:                                                914
 Number of molecular orbitals:                                               914

 Spin 2

 Number of electrons:                                                        914
 Number of occupied orbitals:                                                914
 Number of molecular orbitals:                                               914

 Number of orbital functions:                                               3892
 Number of independent orbital functions:                                   3892

 Parameters for the always stable predictor-corrector (ASPC) method:

  ASPC order: 3

  B(1) =   3.000000
  B(2) =  -3.428571
  B(3) =   1.928571
  B(4) =  -0.571429
  B(5) =   0.071429

 Parameters for the always stable predictor-corrector (ASPC) method:

  ASPC order: 3

  B(1) =   3.000000
  B(2) =  -3.428571
  B(3) =   1.928571
  B(4) =  -0.571429
  B(5) =   0.071429

 Extrapolation method: ASPC


 SCF WAVEFUNCTION OPTIMIZATION

  ----------------------------------- OT ---------------------------------------
  Minimizer      : CG                  : conjugate gradient
  Preconditioner : FULL_ALL            : diagonalization, state selective
  Precond_solver : DEFAULT
  Line search    : 2PNT                : 2 energies, one gradient
  stepsize       :    0.15000000                  energy_gap     :    0.08000000
  eps_taylor     :   0.10000E-15                  max_taylor     :             4
  ----------------------------------- OT ---------------------------------------

  Step     Update method      Time    Convergence         Total energy    Change
  ------------------------------------------------------------------------------
     1 OT CG       0.15E+00   25.9     0.00003655     -8504.7219583633 -8.50E+03
     2 OT LS       0.96E-01    7.9                    -8504.7222706255
     3 OT CG       0.96E-01   18.2     0.00003460     -8504.7224139183 -4.56E-04
     4 OT LS       0.14E+00    8.0                    -8504.7229433353
     5 OT CG       0.14E+00   17.5     0.00002778     -8504.7229931631 -5.79E-04
     6 OT LS       0.13E+00    8.1                    -8504.7233496889
