 DBCSR| Multiplication driver                                               BLAS
 DBCSR| Multrec recursion limit                                              512
 DBCSR| Multiplication stack size                                           1000
 DBCSR| Maximum elements for images                                    UNLIMITED
 DBCSR| Multiplicative factor virtual images                                   1
 DBCSR| Multiplication size stacks                                             3
 DBCSR| Number of 3D layers                                               SINGLE
 DBCSR| Use MPI memory allocation                                              T
 DBCSR| Use RMA algorithm                                                      F
 DBCSR| Use Communication thread                                               T
 DBCSR| Communication thread load                                             87


  **** **** ******  **  PROGRAM STARTED AT               2019-07-13 09:04:56.833
 ***** ** ***  *** **   PROGRAM STARTED ON        blg7528.int.ets1.calculquebec.
 **    ****   ******    PROGRAM STARTED BY                                   rzk
 ***** **    ** ** **   PROGRAM PROCESS ID                                434076
  **** **  *******  **  PROGRAM STARTED IN /lustre04/scratch/rzk/rzk/GaN-carbene
                                           /443-adatoms-both-2x2/09-BondBreaking
                                           -CH/02-0401-CH-to-NTop-PES

 CP2K| version string:                    CP2K version 7.0 (Development Version)
 CP2K| source code revision number:                                    svn:18619
 CP2K| cp2kflags: libint fftw3 libxc parallel mpi3 scalapack mkl                
 CP2K| is freely available from                            https://www.cp2k.org/
 CP2K| Program compiled at                          Sun Apr  7 00:48:11 EDT 2019
 CP2K| Program compiled on                      beluga2.int.ets1.calculquebec.ca
 CP2K| Program compiled for                    Beluga-Linux-x86-64-intel-openmpi
 CP2K| Data directory path    /home/rzk/projects/def-rzk/group/cp2k/cp2k-mcgill/
 CP2K| Input file name                                            TEST-1.restart
 
 GLOBAL| Force Environment number                                              1
 GLOBAL| Basis set file name                                        BASIS_MOLOPT
 GLOBAL| Potential file name                                      GTH_POTENTIALS
 GLOBAL| MM Potential file name                                     MM_POTENTIAL
 GLOBAL| Coordinate file name                                      __STD_INPUT__
 GLOBAL| Method name                                                        CP2K
 GLOBAL| Project name                                                       TEST
 GLOBAL| Preferred FFT library                                             FFTW3
 GLOBAL| Preferred diagonalization lib.                                       SL
 GLOBAL| Run type                                                        GEO_OPT
 GLOBAL| All-to-all communication in single precision                          F
 GLOBAL| FFTs using library dependent lengths                                  F
 GLOBAL| Global print level                                               MEDIUM
 GLOBAL| MPI I/O enabled                                                       T
 GLOBAL| Total number of message passing processes                            80
 GLOBAL| Number of threads for this process                                    1
 GLOBAL| This output is from process                                           0
 GLOBAL| CPU model name :  Intel(R) Xeon(R) Gold 6148 CPU @ 2.40GHz

 MEMORY| system memory details [Kb]
 MEMORY|                        rank 0           min           max       average
 MEMORY| MemTotal            196614300     196614300     196614300     196614300
 MEMORY| MemFree             175037268     175034928     179457672     177207899
 MEMORY| Buffers                    56            56            76            66
 MEMORY| Cached                1430796       1413244       1430796       1422020
 MEMORY| Slab                  4347804       4347804       4711536       4529670
 MEMORY| SReclaimable           793468        508336        793468        650902
 MEMORY| MemLikelyFree       177261588     177259248     181379328     179280887


 *** Fundamental physical constants (SI units) ***

 *** Literature: B. J. Mohr and B. N. Taylor,
 ***             CODATA recommended values of the fundamental physical
 ***             constants: 2006, Web Version 5.1
 ***             http://physics.nist.gov/constants

 Speed of light in vacuum [m/s]                             2.99792458000000E+08
 Magnetic constant or permeability of vacuum [N/A**2]       1.25663706143592E-06
 Electric constant or permittivity of vacuum [F/m]          8.85418781762039E-12
 Planck constant (h) [J*s]                                  6.62606896000000E-34
 Planck constant (h-bar) [J*s]                              1.05457162825177E-34
 Elementary charge [C]                                      1.60217648700000E-19
 Electron mass [kg]                                         9.10938215000000E-31
 Electron g factor [ ]                                     -2.00231930436220E+00
 Proton mass [kg]                                           1.67262163700000E-27
 Fine-structure constant                                    7.29735253760000E-03
 Rydberg constant [1/m]                                     1.09737315685270E+07
 Avogadro constant [1/mol]                                  6.02214179000000E+23
 Boltzmann constant [J/K]                                   1.38065040000000E-23
 Atomic mass unit [kg]                                      1.66053878200000E-27
 Bohr radius [m]                                            5.29177208590000E-11

 *** Conversion factors ***

 [u] -> [a.u.]                                              1.82288848426455E+03
 [Angstrom] -> [Bohr] = [a.u.]                              1.88972613288564E+00
 [a.u.] = [Bohr] -> [Angstrom]                              5.29177208590000E-01
 [a.u.] -> [s]                                              2.41888432650478E-17
 [a.u.] -> [fs]                                             2.41888432650478E-02
 [a.u.] -> [J]                                              4.35974393937059E-18
 [a.u.] -> [N]                                              8.23872205491840E-08
 [a.u.] -> [K]                                              3.15774647902944E+05
 [a.u.] -> [kJ/mol]                                         2.62549961709828E+03
 [a.u.] -> [kcal/mol]                                       6.27509468713739E+02
 [a.u.] -> [Pa]                                             2.94210107994716E+13
 [a.u.] -> [bar]                                            2.94210107994716E+08
 [a.u.] -> [atm]                                            2.90362800883016E+08
 [a.u.] -> [eV]                                             2.72113838565563E+01
 [a.u.] -> [Hz]                                             6.57968392072181E+15
 [a.u.] -> [1/cm] (wave numbers)                            2.19474631370540E+05
 [a.u./Bohr**2] -> [1/cm]                                   5.14048714338585E+03
 
          ----------------------------------------------------------------------
 COLVARS| COLVAR INPUT INDEX:        1
 COLVARS| BOND          >>> ATOMS:                                   127     211
          ----------------------------------------------------------------------

 CELL_TOP| Volume [angstrom^3]:                                         4586.323
 CELL_TOP| Vector a [angstrom    12.864     0.000     0.000    |a| =      12.864
 CELL_TOP| Vector b [angstrom    -6.432    11.141     0.000    |b| =      12.864
 CELL_TOP| Vector c [angstrom     0.000     0.000    32.000    |c| =      32.000
 CELL_TOP| Angle (b,c), alpha [degree]:                                   90.000
 CELL_TOP| Angle (a,c), beta  [degree]:                                   90.000
 CELL_TOP| Angle (a,b), gamma [degree]:                                  120.000
 CELL_TOP| Numerically orthorhombic:                                          NO
 RESTRAINT| Active restraint on COLLECTIVE section Nr.     1. K [a.u.]= 2.000000
 
 GENERATE|  Preliminary Number of Bonds generated:                             0
 GENERATE|  Achieved consistency in connectivity generation.

 CELL| Volume [angstrom^3]:                                             4586.323
 CELL| Vector a [angstrom]:      12.864     0.000     0.000    |a| =      12.864
 CELL| Vector b [angstrom]:      -6.432    11.141     0.000    |b| =      12.864
 CELL| Vector c [angstrom]:       0.000     0.000    32.000    |c| =      32.000
 CELL| Angle (b,c), alpha [degree]:                                       90.000
 CELL| Angle (a,c), beta  [degree]:                                       90.000
 CELL| Angle (a,b), gamma [degree]:                                      120.000
 CELL| Numerically orthorhombic:                                              NO

 CELL_REF| Volume [angstrom^3]:                                         4670.759
 CELL_REF| Vector a [angstrom    12.982     0.000     0.000    |a| =      12.982
 CELL_REF| Vector b [angstrom    -6.491    11.243     0.000    |b| =      12.982
 CELL_REF| Vector c [angstrom     0.000     0.000    32.000    |c| =      32.000
 CELL_REF| Angle (b,c), alpha [degree]:                                   90.000
 CELL_REF| Angle (a,c), beta  [degree]:                                   90.000
 CELL_REF| Angle (a,b), gamma [degree]:                                  120.000
 CELL_REF| Numerically orthorhombic:                                          NO

 *******************************************************************************
 *******************************************************************************
 **                                                                           **
 **     #####                         ##              ##                      **
 **    ##   ##            ##          ##              ##                      **
 **   ##     ##                       ##            ######                    **
 **   ##     ##  ##   ##  ##   #####  ##  ##   ####   ##    #####    #####    **
 **   ##     ##  ##   ##  ##  ##      ## ##   ##      ##   ##   ##  ##   ##   **
 **   ##  ## ##  ##   ##  ##  ##      ####     ###    ##   ######   ######    **
 **    ##  ###   ##   ##  ##  ##      ## ##      ##   ##   ##       ##        **
 **     #######   #####   ##   #####  ##  ##  ####    ##    #####   ##        **
 **           ##                                                    ##        **
 **                                                                           **
 **                                                ... make the atoms dance   **
 **                                                                           **
 **            Copyright (C) by CP2K developers group (2000 - 2018)           **
 **                                                                           **
 *******************************************************************************

 DFT| Spin unrestricted (spin-polarized) Kohn-Sham calculation               UKS
 DFT| Multiplicity                                                             1
 DFT| Number of spin states                                                    2
 DFT| Charge                                                                   0
 DFT| Self-interaction correction (SIC)                                       NO
 DFT| Cutoffs: density                                              1.000000E-10
 DFT|          gradient                                             1.000000E-10
 DFT|          tau                                                  1.000000E-10
 DFT|          cutoff_smoothing_range                               0.000000E+00
 DFT| XC density smoothing                                                  NONE
 DFT| XC derivatives                                                          PW
 FUNCTIONAL| ROUTINE=NEW
 FUNCTIONAL| PBE:
 FUNCTIONAL| J.P.Perdew, K.Burke, M.Ernzerhof, Phys. Rev. Letter, vol. 77, n 18,
 FUNCTIONAL|  pp. 3865-3868, (1996){spin polarized}                             
 vdW POTENTIAL|                                                   Pair Potential
 vdW POTENTIAL|          DFT-D3 (Version 3.1)
 vdW POTENTIAL|          Potential Form: S. Grimme et al, JCP 132: 154104 (2010)
 vdW POTENTIAL|          Zero Damping
 vdW POTENTIAL|          Cutoff Radius [Bohr]:                             18.90
 vdW POTENTIAL|          s6 Scaling Factor:                               1.0000
 vdW POTENTIAL|          sr6 Scaling Factor:                              1.2170
 vdW POTENTIAL|          s8 Scaling Factor:                               0.7220
 vdW POTENTIAL|          Cutoff for CN calculation:                   0.1000E-05

 QS| Method:                                                                 GPW
 QS| Density plane wave grid type                        NON-SPHERICAL FULLSPACE
 QS| Number of grid levels:                                                    5
 QS| Density cutoff [a.u.]:                                                600.0
 QS| Multi grid cutoff [a.u.]: 1) grid level                               600.0
 QS|                           2) grid level                               200.0
 QS|                           3) grid level                                66.7
 QS|                           4) grid level                                22.2
 QS|                           5) grid level                                 7.4
 QS| Grid level progression factor:                                          3.0
 QS| Relative density cutoff [a.u.]:                                        20.0
 QS| Consistent realspace mapping and integration 
 QS| Interaction thresholds: eps_pgf_orb:                                1.0E-07
 QS|                         eps_filter_matrix:                          0.0E+00
 QS|                         eps_core_charge:                            1.0E-16
 QS|                         eps_rho_gspace:                             1.0E-14
 QS|                         eps_rho_rspace:                             1.0E-14
 QS|                         eps_gvg_rspace:                             1.0E-07
 QS|                         eps_ppl:                                    1.0E-02
 QS|                         eps_ppnl:                                   1.0E-09


 ATOMIC KIND INFORMATION

  1. Atomic kind: N                                     Number of atoms:     100

     Orbital Basis Set                                        DZVP-MOLOPT-SR-GTH

       Number of orbital shell sets:                                           1
       Number of orbital shells:                                               5
       Number of primitive Cartesian functions:                                5
       Number of Cartesian basis functions:                                   14
       Number of spherical basis functions:                                   13
       Norm type:                                                              2

       Normalised Cartesian orbitals:

                        Set   Shell   Orbital            Exponent    Coefficient

                          1       1    2s                7.341988       0.360561
                                                         2.542637       0.139177
                                                         0.888575      -0.289383
                                                         0.333802      -0.182244
                                                         0.112012      -0.019197

                          1       2    3s                7.341988       0.282000
                                                         2.542637       0.177875
                                                         0.888575      -0.278381
                                                         0.333802       0.008577
                                                         0.112012       0.154176

                          1       3    3px               7.341988      -1.188719
                                                         2.542637      -0.973969
                                                         0.888575      -0.501079
                                                         0.333802      -0.144894
                                                         0.112012      -0.013986
                          1       3    3py               7.341988      -1.188719
                                                         2.542637      -0.973969
                                                         0.888575      -0.501079
                                                         0.333802      -0.144894
                                                         0.112012      -0.013986
                          1       3    3pz               7.341988      -1.188719
                                                         2.542637      -0.973969
                                                         0.888575      -0.501079
                                                         0.333802      -0.144894
                                                         0.112012      -0.013986

                          1       4    4px               7.341988      -0.094798
                                                         2.542637       0.050069
                                                         0.888575      -0.114797
                                                         0.333802       0.144793
                                                         0.112012       0.066710
                          1       4    4py               7.341988      -0.094798
                                                         2.542637       0.050069
                                                         0.888575      -0.114797
                                                         0.333802       0.144793
                                                         0.112012       0.066710
                          1       4    4pz               7.341988      -0.094798
                                                         2.542637       0.050069
                                                         0.888575      -0.114797
                                                         0.333802       0.144793
                                                         0.112012       0.066710

                          1       5    4dx2              7.341988       1.354688
                                                         2.542637       0.690378
                                                         0.888575       0.855359
                                                         0.333802       0.091746
                                                         0.112012       0.001253
                          1       5    4dxy              7.341988       2.346389
                                                         2.542637       1.195770
                                                         0.888575       1.481524
                                                         0.333802       0.158910
                                                         0.112012       0.002169
                          1       5    4dxz              7.341988       2.346389
                                                         2.542637       1.195770
                                                         0.888575       1.481524
                                                         0.333802       0.158910
                                                         0.112012       0.002169
                          1       5    4dy2              7.341988       1.354688
                                                         2.542637       0.690378
                                                         0.888575       0.855359
                                                         0.333802       0.091746
                                                         0.112012       0.001253
                          1       5    4dyz              7.341988       2.346389
                                                         2.542637       1.195770
                                                         0.888575       1.481524
                                                         0.333802       0.158910
                                                         0.112012       0.002169
                          1       5    4dz2              7.341988       1.354688
                                                         2.542637       0.690378
                                                         0.888575       0.855359
                                                         0.333802       0.091746
                                                         0.112012       0.001253

     GTH Potential information for                                    GTH-PBE-q5

       Description:                       Goedecker-Teter-Hutter pseudopotential
                                           Goedecker et al., PRB 54, 1703 (1996)
                                          Hartwigsen et al., PRB 58, 3641 (1998)
                                                      Krack, TCA 114, 145 (2005)

       Gaussian exponent of the core charge distribution:               6.208322
       Electronic configuration (s p d ...):                               2   3

       Parameters of the local part of the GTH pseudopotential:

                          rloc        C1          C2          C3          C4
                        0.283791  -12.415226    1.868096

       Parameters of the non-local part of the GTH pseudopotential:

                   l      r(l)      h(i,j,l)

                   0    0.255405   13.630263
                   1    0.245495

  2. Atomic kind: Ga                                    Number of atoms:     100

     Orbital Basis Set                                        DZVP-MOLOPT-SR-GTH

       Number of orbital shell sets:                                           1
       Number of orbital shells:                                               7
       Number of primitive Cartesian functions:                                6
       Number of Cartesian basis functions:                                   30
       Number of spherical basis functions:                                   25
       Norm type:                                                              2

       Normalised Cartesian orbitals:

                        Set   Shell   Orbital            Exponent    Coefficient

                          1       1    2s                7.066654       0.013136
                                                         3.428369      -0.094392
                                                         1.430064       0.265435
                                                         0.571611       0.056465
                                                         0.232197      -0.192187
                                                         0.076562      -0.044987

                          1       2    3s                7.066654      -0.098564
                                                         3.428369       0.010390
                                                         1.430064       0.351249
                                                         0.571611       0.182615
                                                         0.232197      -0.425358
                                                         0.076562       0.190349

                          1       3    3px               7.066654       0.002364
                                                         3.428369       0.019222
                                                         1.430064       0.250132
                                                         0.571611      -0.058486
                                                         0.232197      -0.159451
                                                         0.076562      -0.020696
                          1       3    3py               7.066654       0.002364
                                                         3.428369       0.019222
                                                         1.430064       0.250132
                                                         0.571611      -0.058486
                                                         0.232197      -0.159451
                                                         0.076562      -0.020696
                          1       3    3pz               7.066654       0.002364
                                                         3.428369       0.019222
                                                         1.430064       0.250132
                                                         0.571611      -0.058486
                                                         0.232197      -0.159451
                                                         0.076562      -0.020696

                          1       4    4px               7.066654       0.492448
                                                         3.428369      -0.614736
                                                         1.430064      -0.191654
                                                         0.571611       0.037801
                                                         0.232197       0.302315
                                                         0.076562      -0.071336
                          1       4    4py               7.066654       0.492448
                                                         3.428369      -0.614736
                                                         1.430064      -0.191654
                                                         0.571611       0.037801
                                                         0.232197       0.302315
                                                         0.076562      -0.071336
                          1       4    4pz               7.066654       0.492448
                                                         3.428369      -0.614736
                                                         1.430064      -0.191654
                                                         0.571611       0.037801
                                                         0.232197       0.302315
                                                         0.076562      -0.071336

                          1       5    4dx2              7.066654     -15.264855
                                                         3.428369      -5.345726
                                                         1.430064      -1.022732
                                                         0.571611      -0.123148
                                                         0.232197      -0.006983
                                                         0.076562      -0.000022
                          1       5    4dxy              7.066654     -26.439504
                                                         3.428369      -9.259069
                                                         1.430064      -1.771423
                                                         0.571611      -0.213299
                                                         0.232197      -0.012094
                                                         0.076562      -0.000037
                          1       5    4dxz              7.066654     -26.439504
                                                         3.428369      -9.259069
                                                         1.430064      -1.771423
                                                         0.571611      -0.213299
                                                         0.232197      -0.012094
                                                         0.076562      -0.000037
                          1       5    4dy2              7.066654     -15.264855
                                                         3.428369      -5.345726
                                                         1.430064      -1.022732
                                                         0.571611      -0.123148
                                                         0.232197      -0.006983
                                                         0.076562      -0.000022
                          1       5    4dyz              7.066654     -26.439504
                                                         3.428369      -9.259069
                                                         1.430064      -1.771423
                                                         0.571611      -0.213299
                                                         0.232197      -0.012094
                                                         0.076562      -0.000037
                          1       5    4dz2              7.066654     -15.264855
                                                         3.428369      -5.345726
                                                         1.430064      -1.022732
                                                         0.571611      -0.123148
                                                         0.232197      -0.006983
                                                         0.076562      -0.000022

                          1       6    5dx2              7.066654      -5.739265
                                                         3.428369      -2.129289
                                                         1.430064      -0.700423
                                                         0.571611       0.161606
                                                         0.232197       0.043513
                                                         0.076562       0.011205
                          1       6    5dxy              7.066654      -9.940698
                                                         3.428369      -3.688037
                                                         1.430064      -1.213168
                                                         0.571611       0.279909
                                                         0.232197       0.075368
                                                         0.076562       0.019407
                          1       6    5dxz              7.066654      -9.940698
                                                         3.428369      -3.688037
                                                         1.430064      -1.213168
                                                         0.571611       0.279909
                                                         0.232197       0.075368
                                                         0.076562       0.019407
                          1       6    5dy2              7.066654      -5.739265
                                                         3.428369      -2.129289
                                                         1.430064      -0.700423
                                                         0.571611       0.161606
                                                         0.232197       0.043513
                                                         0.076562       0.011205
                          1       6    5dyz              7.066654      -9.940698
                                                         3.428369      -3.688037
                                                         1.430064      -1.213168
                                                         0.571611       0.279909
                                                         0.232197       0.075368
                                                         0.076562       0.019407
                          1       6    5dz2              7.066654      -5.739265
                                                         3.428369      -2.129289
                                                         1.430064      -0.700423
                                                         0.571611       0.161606
                                                         0.232197       0.043513
                                                         0.076562       0.011205

                          1       7    5fx3              7.066654       0.705879
                                                         3.428369      -0.273976
                                                         1.430064       0.113667
                                                         0.571611       0.132480
                                                         0.232197       0.012437
                                                         0.076562       0.003241
                          1       7    5fx2y             7.066654       1.578393
                                                         3.428369      -0.612629
                                                         1.430064       0.254167
                                                         0.571611       0.296234
                                                         0.232197       0.027811
                                                         0.076562       0.007246
                          1       7    5fx2z             7.066654       1.578393
                                                         3.428369      -0.612629
                                                         1.430064       0.254167
                                                         0.571611       0.296234
                                                         0.232197       0.027811
                                                         0.076562       0.007246
                          1       7    5fxy2             7.066654       1.578393
                                                         3.428369      -0.612629
                                                         1.430064       0.254167
                                                         0.571611       0.296234
                                                         0.232197       0.027811
                                                         0.076562       0.007246
                          1       7    5fxyz             7.066654       2.733856
                                                         3.428369      -1.061105
                                                         1.430064       0.440230
                                                         0.571611       0.513092
                                                         0.232197       0.048170
                                                         0.076562       0.012551
                          1       7    5fxz2             7.066654       1.578393
                                                         3.428369      -0.612629
                                                         1.430064       0.254167
                                                         0.571611       0.296234
                                                         0.232197       0.027811
                                                         0.076562       0.007246
                          1       7    5fy3              7.066654       0.705879
                                                         3.428369      -0.273976
                                                         1.430064       0.113667
                                                         0.571611       0.132480
                                                         0.232197       0.012437
                                                         0.076562       0.003241
                          1       7    5fy2z             7.066654       1.578393
                                                         3.428369      -0.612629
                                                         1.430064       0.254167
                                                         0.571611       0.296234
                                                         0.232197       0.027811
                                                         0.076562       0.007246
                          1       7    5fyz2             7.066654       1.578393
                                                         3.428369      -0.612629
                                                         1.430064       0.254167
                                                         0.571611       0.296234
                                                         0.232197       0.027811
                                                         0.076562       0.007246
                          1       7    5fz3              7.066654       0.705879
                                                         3.428369      -0.273976
                                                         1.430064       0.113667
                                                         0.571611       0.132480
                                                         0.232197       0.012437
                                                         0.076562       0.003241

     GTH Potential information for                                   GTH-PBE-q13

       Description:                       Goedecker-Teter-Hutter pseudopotential
                                           Goedecker et al., PRB 54, 1703 (1996)
                                          Hartwigsen et al., PRB 58, 3641 (1998)
                                                      Krack, TCA 114, 145 (2005)

       Gaussian exponent of the core charge distribution:               2.082466
       Electronic configuration (s p d ...):                           2   1  10

       Parameters of the local part of the GTH pseudopotential:

                          rloc        C1          C2          C3          C4
                        0.490000

       Parameters of the non-local part of the GTH pseudopotential:

                   l      r(l)      h(i,j,l)

                   0    0.416777   10.475690   -4.921768    0.870706
                                   -4.921768    7.770178   -2.248152
                                    0.870706   -2.248152    1.784415
                   1    0.569627    1.777985    0.195860
                                    0.195860   -0.231744
                   2    0.238126  -16.248680

  3. Atomic kind: O                                     Number of atoms:       2

     Orbital Basis Set                                     DZVP-MOLOPT-SR-GTH-q6

       Number of orbital shell sets:                                           1
       Number of orbital shells:                                               5
       Number of primitive Cartesian functions:                                5
       Number of Cartesian basis functions:                                   14
       Number of spherical basis functions:                                   13
       Norm type:                                                              2

       Normalised Cartesian orbitals:

                        Set   Shell   Orbital            Exponent    Coefficient

                          1       1    2s               10.389228       0.396646
                                                         3.849621       0.208811
                                                         1.388401      -0.301641
                                                         0.496955      -0.274061
                                                         0.162492      -0.033677

                          1       2    3s               10.389228       0.303673
                                                         3.849621       0.240943
                                                         1.388401      -0.313066
                                                         0.496955      -0.043055
                                                         0.162492       0.213991

                          1       3    3px              10.389228      -1.530415
                                                         3.849621      -1.371928
                                                         1.388401      -0.761951
                                                         0.496955      -0.253695
                                                         0.162492      -0.035541
                          1       3    3py              10.389228      -1.530415
                                                         3.849621      -1.371928
                                                         1.388401      -0.761951
                                                         0.496955      -0.253695
                                                         0.162492      -0.035541
                          1       3    3pz              10.389228      -1.530415
                                                         3.849621      -1.371928
                                                         1.388401      -0.761951
                                                         0.496955      -0.253695
                                                         0.162492      -0.035541

                          1       4    4px              10.389228      -0.565392
                                                         3.849621      -0.038231
                                                         1.388401      -0.382373
                                                         0.496955       0.179070
                                                         0.162492       0.122714
                          1       4    4py              10.389228      -0.565392
                                                         3.849621      -0.038231
                                                         1.388401      -0.382373
                                                         0.496955       0.179070
                                                         0.162492       0.122714
                          1       4    4pz              10.389228      -0.565392
                                                         3.849621      -0.038231
                                                         1.388401      -0.382373
                                                         0.496955       0.179070
                                                         0.162492       0.122714

                          1       5    4dx2             10.389228       1.867377
                                                         3.849621       0.670994
                                                         1.388401       1.353441
                                                         0.496955       0.273538
                                                         0.162492       0.006620
                          1       5    4dxy             10.389228       3.234392
                                                         3.849621       1.162195
                                                         1.388401       2.344229
                                                         0.496955       0.473781
                                                         0.162492       0.011466
                          1       5    4dxz             10.389228       3.234392
                                                         3.849621       1.162195
                                                         1.388401       2.344229
                                                         0.496955       0.473781
                                                         0.162492       0.011466
                          1       5    4dy2             10.389228       1.867377
                                                         3.849621       0.670994
                                                         1.388401       1.353441
                                                         0.496955       0.273538
                                                         0.162492       0.006620
                          1       5    4dyz             10.389228       3.234392
                                                         3.849621       1.162195
                                                         1.388401       2.344229
                                                         0.496955       0.473781
                                                         0.162492       0.011466
                          1       5    4dz2             10.389228       1.867377
                                                         3.849621       0.670994
                                                         1.388401       1.353441
                                                         0.496955       0.273538
                                                         0.162492       0.006620

     GTH Potential information for                                    GTH-PBE-q6

       Description:                       Goedecker-Teter-Hutter pseudopotential
                                           Goedecker et al., PRB 54, 1703 (1996)
                                          Hartwigsen et al., PRB 58, 3641 (1998)
                                                      Krack, TCA 114, 145 (2005)

       Gaussian exponent of the core charge distribution:               8.360253
       Electronic configuration (s p d ...):                               2   4

       Parameters of the local part of the GTH pseudopotential:

                          rloc        C1          C2          C3          C4
                        0.244554  -16.667215    2.487311

       Parameters of the non-local part of the GTH pseudopotential:

                   l      r(l)      h(i,j,l)

                   0    0.220956   18.337458
                   1    0.211332

  4. Atomic kind: H                                     Number of atoms:       8

     Orbital Basis Set                                     DZVP-MOLOPT-SR-GTH-q1

       Number of orbital shell sets:                                           1
       Number of orbital shells:                                               3
       Number of primitive Cartesian functions:                                5
       Number of Cartesian basis functions:                                    5
       Number of spherical basis functions:                                    5
       Norm type:                                                              2

       Normalised Cartesian orbitals:

                        Set   Shell   Orbital            Exponent    Coefficient

                          1       1    2s               10.068468      -0.133023
                                                         2.680223      -0.177618
                                                         0.791502      -0.258419
                                                         0.239116      -0.107525
                                                         0.082193      -0.014019

                          1       2    3s               10.068468       0.344673
                                                         2.680223       1.819821
                                                         0.791502      -0.999069
                                                         0.239116       0.017430
                                                         0.082193       0.082660

                          1       3    3px              10.068468       0.155326
                                                         2.680223       0.367157
                                                         0.791502       0.311480
                                                         0.239116       0.080105
                                                         0.082193       0.033440
                          1       3    3py              10.068468       0.155326
                                                         2.680223       0.367157
                                                         0.791502       0.311480
                                                         0.239116       0.080105
                                                         0.082193       0.033440
                          1       3    3pz              10.068468       0.155326
                                                         2.680223       0.367157
                                                         0.791502       0.311480
                                                         0.239116       0.080105
                                                         0.082193       0.033440

     GTH Potential information for                                    GTH-PBE-q1

       Description:                       Goedecker-Teter-Hutter pseudopotential
                                           Goedecker et al., PRB 54, 1703 (1996)
                                          Hartwigsen et al., PRB 58, 3641 (1998)
                                                      Krack, TCA 114, 145 (2005)

       Gaussian exponent of the core charge distribution:              12.500000
       Electronic configuration (s p d ...):                                   1

       Parameters of the local part of the GTH pseudopotential:

                          rloc        C1          C2          C3          C4
                        0.200000   -4.178900    0.724463

  5. Atomic kind: C                                     Number of atoms:       2

     Orbital Basis Set                                     DZVP-MOLOPT-SR-GTH-q4

       Number of orbital shell sets:                                           1
       Number of orbital shells:                                               5
       Number of primitive Cartesian functions:                                5
       Number of Cartesian basis functions:                                   14
       Number of spherical basis functions:                                   13
       Norm type:                                                              2

       Normalised Cartesian orbitals:

                        Set   Shell   Orbital            Exponent    Coefficient

                          1       1    2s                5.605331       0.322515
                                                         2.113016       0.213043
                                                         0.769911      -0.209686
                                                         0.348157      -0.219794
                                                         0.128212      -0.022789

                          1       2    3s                5.605331       0.552234
                                                         2.113016       0.082072
                                                         0.769911       0.007843
                                                         0.348157       0.136893
                                                         0.128212       0.074283

                          1       3    3px               5.605331      -0.703879
                                                         2.113016      -0.642521
                                                         0.769911      -0.374851
                                                         0.348157      -0.139743
                                                         0.128212      -0.027849
                          1       3    3py               5.605331      -0.703879
                                                         2.113016      -0.642521
                                                         0.769911      -0.374851
                                                         0.348157      -0.139743
                                                         0.128212      -0.027849
                          1       3    3pz               5.605331      -0.703879
                                                         2.113016      -0.642521
                                                         0.769911      -0.374851
                                                         0.348157      -0.139743
                                                         0.128212      -0.027849

                          1       4    4px               5.605331      -0.480376
                                                         2.113016      -0.552894
                                                         0.769911      -0.316145
                                                         0.348157       0.210505
                                                         0.128212       0.076095
                          1       4    4py               5.605331      -0.480376
                                                         2.113016      -0.552894
                                                         0.769911      -0.316145
                                                         0.348157       0.210505
                                                         0.128212       0.076095
                          1       4    4pz               5.605331      -0.480376
                                                         2.113016      -0.552894
                                                         0.769911      -0.316145
                                                         0.348157       0.210505
                                                         0.128212       0.076095

                          1       5    4dx2              5.605331       0.640026
                                                         2.113016       0.274300
                                                         0.769911       0.446711
                                                         0.348157       0.028674
                                                         0.128212       0.029790
                          1       5    4dxy              5.605331       1.108557
                                                         2.113016       0.475102
                                                         0.769911       0.773726
                                                         0.348157       0.049666
                                                         0.128212       0.051599
                          1       5    4dxz              5.605331       1.108557
                                                         2.113016       0.475102
                                                         0.769911       0.773726
                                                         0.348157       0.049666
                                                         0.128212       0.051599
                          1       5    4dy2              5.605331       0.640026
                                                         2.113016       0.274300
                                                         0.769911       0.446711
                                                         0.348157       0.028674
                                                         0.128212       0.029790
                          1       5    4dyz              5.605331       1.108557
                                                         2.113016       0.475102
                                                         0.769911       0.773726
                                                         0.348157       0.049666
                                                         0.128212       0.051599
                          1       5    4dz2              5.605331       0.640026
                                                         2.113016       0.274300
                                                         0.769911       0.446711
                                                         0.348157       0.028674
                                                         0.128212       0.029790

     GTH Potential information for                                    GTH-PBE-q4

       Description:                       Goedecker-Teter-Hutter pseudopotential
                                           Goedecker et al., PRB 54, 1703 (1996)
                                          Hartwigsen et al., PRB 58, 3641 (1998)
                                                      Krack, TCA 114, 145 (2005)

       Gaussian exponent of the core charge distribution:               4.364419
       Electronic configuration (s p d ...):                               2   2

       Parameters of the local part of the GTH pseudopotential:

                          rloc        C1          C2          C3          C4
                        0.338471   -8.803674    1.339211

       Parameters of the non-local part of the GTH pseudopotential:

                   l      r(l)      h(i,j,l)

                   0    0.302576    9.622487
                   1    0.291507


 MOLECULE KIND INFORMATION


 All atoms are their own molecule, skipping detailed information


 TOTAL NUMBERS AND MAXIMUM NUMBERS

  Total number of            - Atomic kinds:                                   5
                             - Atoms:                                        212
                             - Shell sets:                                   212
                             - Shells:                                      1244
                             - Primitive Cartesian functions:               1160
                             - Cartesian basis functions:                   4496
                             - Spherical basis functions:                   3892

  Maximum angular momentum of- Orbital basis functions:                        3
                             - Local part of the GTH pseudopotential:          2
                             - Non-local part of the GTH pseudopotential:      4


 MODULE QUICKSTEP:  ATOMIC COORDINATES IN angstrom

  Atom  Kind  Element       X           Y           Z          Z(eff)       Mass

       1     1 N    7    0.105291    2.091702    2.601959      5.00      14.0067
       2     2 Ga  31    0.118065    0.136360    3.025496     13.00      69.7230
       3     1 N    7    0.103545    0.120751    5.138566      5.00      14.0067
       4     2 Ga  31    0.083314    1.940381    5.888733     13.00      69.7230
       5     1 N    7    0.087247    1.968797    7.877713      5.00      14.0067
       6     2 Ga  31    0.081404    0.113788    8.503538     13.00      69.7230
       7     1 N    7    0.080337    0.124374   10.479466      5.00      14.0067
       8     2 Ga  31    0.077409    1.963154   11.133721     13.00      69.7230
       9     1 N    7    0.074976    1.949843   13.127662      5.00      14.0067
      10     2 Ga  31    0.075732    0.127152   13.925923     13.00      69.7230
      11     1 N    7    0.073121    0.127863   16.124513      5.00      14.0067
      12     2 Ga  31    0.070949    2.162370   16.535852     13.00      69.7230
      13     2 Ga  31    0.110546    3.798720    1.456917     13.00      69.7230
      14     1 N    7   -1.384635    4.675216    2.553767      5.00      14.0067
      15     2 Ga  31   -1.587947    2.823875    3.340627     13.00      69.7230
      16     1 N    7   -1.518410    2.896732    5.316188      5.00      14.0067
      17     2 Ga  31   -1.552217    4.764711    5.866946     13.00      69.7230
      18     1 N    7   -1.531002    4.766657    7.863009      5.00      14.0067
      19     2 Ga  31   -1.517799    2.909614    8.502405     13.00      69.7230
      20     1 N    7   -1.517029    2.917390   10.495754      5.00      14.0067
      21     2 Ga  31   -1.543463    4.777270   11.127721     13.00      69.7230
      22     1 N    7   -1.563440    4.790733   13.121722      5.00      14.0067
      23     2 Ga  31   -1.523248    2.922403   13.678961     13.00      69.7230
      24     1 N    7   -1.554293    2.911450   15.641657      5.00      14.0067
      25     2 Ga  31   -1.374888    4.680358   16.538517     13.00      69.7230
      26     1 N    7    0.077287    3.835614   17.667652      5.00      14.0067
      27     1 N    7   -3.116846    7.643362    2.576498      5.00      14.0067
      28     2 Ga  31   -3.099772    5.676413    2.897992     13.00      69.7230
      29     1 N    7   -3.121989    5.676507    5.076006      5.00      14.0067
      30     2 Ga  31   -3.131197    7.506629    5.847043     13.00      69.7230
      31     1 N    7   -3.128790    7.534704    7.849518      5.00      14.0067
      32     2 Ga  31   -3.131739    5.691241    8.500958     13.00      69.7230
      33     1 N    7   -3.136080    5.696073   10.476626      5.00      14.0067
      34     2 Ga  31   -3.137944    7.535259   11.127436     13.00      69.7230
      35     1 N    7   -3.141516    7.520782   13.121354      5.00      14.0067
      36     2 Ga  31   -3.138581    5.702703   13.921781     13.00      69.7230
      37     1 N    7   -3.142312    5.703486   16.128639      5.00      14.0067
      38     2 Ga  31   -3.146221    7.750796   16.551980     13.00      69.7230
      39     2 Ga  31   -3.167667    9.385670    1.326508     13.00      69.7230
      40     1 N    7   -4.625514   10.279778    2.602995      5.00      14.0067
      41     2 Ga  31   -4.815708    8.427638    3.302582     13.00      69.7230
      42     1 N    7   -4.732992    8.469312    5.293548      5.00      14.0067
      43     2 Ga  31   -4.761360   10.329984    5.877113     13.00      69.7230
      44     1 N    7   -4.743566   10.334820    7.869746      5.00      14.0067
      45     2 Ga  31   -4.733690    8.474312    8.488112     13.00      69.7230
      46     1 N    7   -4.733470    8.484757   10.485729      5.00      14.0067
      47     2 Ga  31   -4.762182   10.342246   11.130284     13.00      69.7230
      48     1 N    7   -4.780927   10.358230   13.123559      5.00      14.0067
      49     2 Ga  31   -4.739797    8.489982   13.681580     13.00      69.7230
      50     1 N    7   -4.770461    8.476088   15.639942      5.00      14.0067
      51     2 Ga  31   -4.585108   10.244621   16.548540     13.00      69.7230
      52     1 N    7   -3.142032    9.410989   17.688852      5.00      14.0067
      53     1 N    7    3.304938    1.956985    2.675582      5.00      14.0067
      54     2 Ga  31    3.310928    0.102284    3.390093     13.00      69.7230
      55     1 N    7    3.306424    0.126273    5.329685      5.00      14.0067
      56     2 Ga  31    3.301117    1.960587    5.991249     13.00      69.7230
      57     1 N    7    3.302300    1.973738    7.945448      5.00      14.0067
      58     2 Ga  31    3.299145    0.101199    8.522365     13.00      69.7230
      59     1 N    7    3.295835    0.112804   10.508546      5.00      14.0067
      60     2 Ga  31    3.295570    1.983039   11.100879     13.00      69.7230
      61     1 N    7    3.290984    1.986952   13.069374      5.00      14.0067
      62     2 Ga  31    3.290643    0.114042   13.683016     13.00      69.7230
      63     1 N    7    3.285257    0.149875   15.642040      5.00      14.0067
      64     2 Ga  31    3.288224    1.985660   15.920414     13.00      69.7230
      65     1 N    7    1.572984    4.674451    2.628710      5.00      14.0067
      66     2 Ga  31    1.710733    2.861346    3.394352     13.00      69.7230
      67     1 N    7    1.717820    2.884014    5.334342      5.00      14.0067
      68     2 Ga  31    1.719928    4.765445    5.887346     13.00      69.7230
      69     1 N    7    1.700573    4.763478    7.871848      5.00      14.0067
      70     2 Ga  31    1.680242    2.910788    8.522205     13.00      69.7230
      71     1 N    7    1.677707    2.917945   10.508660      5.00      14.0067
      72     2 Ga  31    1.703423    4.780618   11.132874     13.00      69.7230
      73     1 N    7    1.715893    4.791916   13.126022      5.00      14.0067
      74     2 Ga  31    1.669762    2.923696   13.682303     13.00      69.7230
      75     1 N    7    1.697817    2.908768   15.646937      5.00      14.0067
      76     2 Ga  31    1.521574    4.683068   16.535316     13.00      69.7230
      77     1 N    7    0.093981    7.536439    2.722676      5.00      14.0067
      78     2 Ga  31    0.087996    5.698422    3.391797     13.00      69.7230
      79     1 N    7    0.087349    5.695679    5.326931      5.00      14.0067
      80     2 Ga  31    0.108707    7.554245    5.931234     13.00      69.7230
      81     1 N    7    0.090956    7.549649    7.903093      5.00      14.0067
      82     2 Ga  31    0.082745    5.682612    8.500424     13.00      69.7230
      83     1 N    7    0.080394    5.684887   10.492756      5.00      14.0067
      84     2 Ga  31    0.082038    7.553850   11.086033     13.00      69.7230
      85     1 N    7    0.076025    7.556784   13.057777      5.00      14.0067
      86     2 Ga  31    0.074576    5.688671   13.679237     13.00      69.7230
      87     1 N    7    0.070017    5.719335   15.641407      5.00      14.0067
      88     2 Ga  31    0.072866    7.560535   15.917956     13.00      69.7230
      89     1 N    7   -1.621491   10.275171    2.587080      5.00      14.0067
      90     2 Ga  31   -1.510638    8.470449    3.353050     13.00      69.7230
      91     1 N    7   -1.505420    8.465046    5.302331      5.00      14.0067
      92     2 Ga  31   -1.490039   10.340849    5.887563     13.00      69.7230
      93     1 N    7   -1.518982   10.333461    7.874979      5.00      14.0067
      94     2 Ga  31   -1.532640    8.475355    8.500859     13.00      69.7230
      95     1 N    7   -1.538290    8.485324   10.493370      5.00      14.0067
      96     2 Ga  31   -1.510605   10.345042   11.132412     13.00      69.7230
      97     1 N    7   -1.500012   10.359711   13.125851      5.00      14.0067
      98     2 Ga  31   -1.544778    8.490895   13.681231     13.00      69.7230
      99     1 N    7   -1.519854    8.474523   15.642919      5.00      14.0067
     100     2 Ga  31   -1.706164   10.244743   16.549798     13.00      69.7230
     101     1 N    7    6.507062    2.092504    2.591688      5.00      14.0067
     102     2 Ga  31    6.529019    0.086413    2.968540     13.00      69.7230
     103     1 N    7    6.500724    0.125158    5.142282      5.00      14.0067
     104     2 Ga  31    6.532016    1.935989    5.889823     13.00      69.7230
     105     1 N    7    6.518570    1.971104    7.876862      5.00      14.0067
     106     2 Ga  31    6.521505    0.114740    8.502848     13.00      69.7230
     107     1 N    7    6.513154    0.125115   10.478613      5.00      14.0067
     108     2 Ga  31    6.515142    1.964022   11.130332     13.00      69.7230
     109     1 N    7    6.507523    1.949099   13.125891      5.00      14.0067
     110     2 Ga  31    6.509831    0.125617   13.924513     13.00      69.7230
     111     1 N    7    6.504736    0.126219   16.127589      5.00      14.0067
     112     2 Ga  31    6.503953    2.153898   16.526647     13.00      69.7230
     113     2 Ga  31    6.514201    3.839914    1.602982     13.00      69.7230
     114     1 N    7    5.028653    4.677256    2.650191      5.00      14.0067
     115     2 Ga  31    4.876634    2.849183    3.417319     13.00      69.7230
     116     1 N    7    4.897752    2.883885    5.339999      5.00      14.0067
     117     2 Ga  31    4.895805    4.771427    5.883930     13.00      69.7230
     118     1 N    7    4.901693    4.762851    7.868702      5.00      14.0067
     119     2 Ga  31    4.922506    2.911874    8.520481     13.00      69.7230
     120     1 N    7    4.915311    2.917551   10.506310      5.00      14.0067
     121     2 Ga  31    4.891603    4.781625   11.125678     13.00      69.7230
     122     1 N    7    4.868581    4.791294   13.120801      5.00      14.0067
     123     2 Ga  31    4.911459    2.923233   13.678706     13.00      69.7230
     124     1 N    7    4.881158    2.912419   15.644819      5.00      14.0067
     125     2 Ga  31    5.047466    4.687336   16.524891     13.00      69.7230
     126     1 N    7    6.512083    3.840095   17.654331      5.00      14.0067
     127     1 N    7    3.304543    7.507930    2.627960      5.00      14.0067
     128     1 N    7    3.306058    5.657500    5.123909      5.00      14.0067
     129     2 Ga  31    3.309152    7.527283    5.821552     13.00      69.7230
     130     1 N    7    3.301884    7.537993    7.830890      5.00      14.0067
     131     2 Ga  31    3.301592    5.697983    8.499722     13.00      69.7230
     132     1 N    7    3.296794    5.698138   10.474991      5.00      14.0067
     133     2 Ga  31    3.297851    7.537942   11.124667     13.00      69.7230
     134     1 N    7    3.291774    7.522121   13.117995      5.00      14.0067
     135     2 Ga  31    3.292142    5.704422   13.920527     13.00      69.7230
     136     1 N    7    3.288185    5.704115   16.124966      5.00      14.0067
     137     2 Ga  31    3.289555    7.747510   16.539648     13.00      69.7230
     138     2 Ga  31    4.126997   10.844981    0.702285     13.00      69.7230
     139     1 N    7    1.735722   10.332845    2.588418      5.00      14.0067
     140     2 Ga  31    1.714218    8.549377    3.228408     13.00      69.7230
     141     1 N    7    1.692965    8.455120    5.226267      5.00      14.0067
     142     2 Ga  31    1.669351   10.328773    5.834038     13.00      69.7230
     143     1 N    7    1.681941   10.328826    7.845388      5.00      14.0067
     144     2 Ga  31    1.708594    8.481558    8.492183     13.00      69.7230
     145     1 N    7    1.701207    8.486358   10.486722      5.00      14.0067
     146     2 Ga  31    1.675880   10.347001   11.120834     13.00      69.7230
     147     1 N    7    1.652347   10.359826   13.116070      5.00      14.0067
     148     2 Ga  31    1.694749    8.493213   13.676825     13.00      69.7230
     149     1 N    7    1.665352    8.480040   15.637360      5.00      14.0067
     150     2 Ga  31    1.847869   10.247670   16.541703     13.00      69.7230
     151     1 N    7    3.299114    9.414362   17.677853      5.00      14.0067
     152     1 N    7    9.766029    1.920665    2.670074      5.00      14.0067
     153     2 Ga  31    9.689379    0.128338    3.321646     13.00      69.7230
     154     1 N    7    9.734141    0.109130    5.311134      5.00      14.0067
     155     2 Ga  31    9.741310    1.957454    5.925692     13.00      69.7230
     156     1 N    7    9.732900    1.975431    7.907337      5.00      14.0067
     157     2 Ga  31    9.732830    0.103580    8.480281     13.00      69.7230
     158     1 N    7    9.728772    0.113448   10.481609      5.00      14.0067
     159     2 Ga  31    9.728536    1.981020   11.084054     13.00      69.7230
     160     1 N    7    9.722643    1.986402   13.058615      5.00      14.0067
     161     2 Ga  31    9.722756    0.115573   13.675689     13.00      69.7230
     162     1 N    7    9.716889    0.149629   15.636910      5.00      14.0067
     163     2 Ga  31    9.719347    1.986060   15.918178     13.00      69.7230
     164     1 N    7    8.025077    4.686706    2.590582      5.00      14.0067
     165     2 Ga  31    8.251361    2.809661    3.330541     13.00      69.7230
     166     1 N    7    8.130634    2.892532    5.299104      5.00      14.0067
     167     2 Ga  31    8.158874    4.767812    5.849648     13.00      69.7230
     168     1 N    7    8.136673    4.765915    7.850997      5.00      14.0067
     169     2 Ga  31    8.121452    2.913619    8.501627     13.00      69.7230
     170     1 N    7    8.110798    2.918909   10.494933      5.00      14.0067
     171     2 Ga  31    8.134249    4.778992   11.126315     13.00      69.7230
     172     1 N    7    8.147100    4.791469   13.123205      5.00      14.0067
     173     2 Ga  31    8.103401    2.922794   13.676320     13.00      69.7230
     174     1 N    7    8.126618    2.909589   15.645903      5.00      14.0067
     175     2 Ga  31    7.966724    4.691155   16.525620     13.00      69.7230
     176     1 N    7    6.519747    7.555370    2.645806      5.00      14.0067
     177     2 Ga  31    6.520567    5.829320    3.357911     13.00      69.7230
     178     1 N    7    6.521239    5.686893    5.315387      5.00      14.0067
     179     2 Ga  31    6.499912    7.565253    5.889416     13.00      69.7230
     180     1 N    7    6.511834    7.551455    7.881171      5.00      14.0067
     181     2 Ga  31    6.521854    5.688145    8.484145     13.00      69.7230
     182     1 N    7    6.514118    5.686098   10.482156      5.00      14.0067
     183     2 Ga  31    6.511292    7.553628   11.082173     13.00      69.7230
     184     1 N    7    6.506221    7.555904   13.054797      5.00      14.0067
     185     2 Ga  31    6.507133    5.688785   13.675934     13.00      69.7230
     186     1 N    7    6.500892    5.716674   15.641584      5.00      14.0067
     187     2 Ga  31    6.502423    7.559025   15.919262     13.00      69.7230
     188     1 N    7    4.880548   10.363745    2.554226      5.00      14.0067
     189     2 Ga  31    4.974427    8.496744    3.171058     13.00      69.7230
     190     1 N    7    4.900575    8.475568    5.211893      5.00      14.0067
     191     2 Ga  31    4.930110   10.327507    5.837180     13.00      69.7230
     192     1 N    7    4.919960   10.332194    7.846572      5.00      14.0067
     193     2 Ga  31    4.899437    8.480656    8.484798     13.00      69.7230
     194     1 N    7    4.893808    8.486302   10.482946      5.00      14.0067
     195     2 Ga  31    4.916714   10.345752   11.122450     13.00      69.7230
     196     1 N    7    4.930737   10.360192   13.118971      5.00      14.0067
     197     2 Ga  31    4.887306    8.493116   13.676085     13.00      69.7230
     198     1 N    7    4.912083    8.475349   15.638871      5.00      14.0067
     199     2 Ga  31    4.737907   10.252113   16.537333     13.00      69.7230
     200     3 O    8    0.600126    3.622557   -0.307543      6.00      15.9994
     201     4 H    1    2.325631    3.170842    0.122448      1.00       1.0079
     202     5 C    6   -0.330668    2.973698   -1.193807      4.00      12.0107
     203     4 H    1   -0.403495    1.890488   -0.997212      1.00       1.0079
     204     4 H    1   -1.344213    3.399213   -1.114118      1.00       1.0079
     205     4 H    1    0.024002    3.125750   -2.224582      1.00       1.0079
     206     2 Ga  31    3.282848    5.575282    3.037388     13.00      69.7230
     207     3 O    8    3.244073    3.051953    0.475033      6.00      15.9994
     208     4 H    1    0.037510    7.496185    1.698116      1.00       1.0079
     209     5 C    6    3.355917    1.830806    1.177847      4.00      12.0107
     210     4 H    1    4.334828    1.392230    0.920639      1.00       1.0079
     211     4 H    1    3.297849    7.593951    1.441492      1.00       1.0079
     212     4 H    1    2.566586    1.125384    0.867270      1.00       1.0079




 SCF PARAMETERS         Density guess:                                    ATOMIC
                        --------------------------------------------------------
                        max_scf:                                              80
                        max_scf_history:                                       0
                        max_diis:                                              4
                        --------------------------------------------------------
                        eps_scf:                                        5.00E-06
                        eps_scf_history:                                0.00E+00
                        eps_diis:                                       1.00E-01
                        eps_eigval:                                     1.00E-05
                        --------------------------------------------------------
                        level_shift [a.u.]:                                 0.00
                        --------------------------------------------------------
                        Outer loop SCF in use 
                        No variables optimised in outer loop
                        eps_scf                                         5.00E-06
                        max_scf                                                4
                        No outer loop optimization
                        step_size                                       5.00E-01

 PW_GRID| Information for grid number                                          1
 PW_GRID| Grid distributed over                                    80 processors
 PW_GRID| Real space group dimensions                                    80    1
 PW_GRID| the grid is blocked:                                                NO
 PW_GRID| Cutoff [a.u.]                                                    600.0
 PW_GRID| spherical cutoff:                                                   NO
 PW_GRID|   Bounds   1           -144     143                Points:         288
 PW_GRID|   Bounds   2           -144     143                Points:         288
 PW_GRID|   Bounds   3           -337     337                Points:         675
 PW_GRID| Volume element (a.u.^3)  0.5630E-03     Volume (a.u.^3)     31519.8467
 PW_GRID| Grid span                                                    FULLSPACE
 PW_GRID|   Distribution                         Average         Max         Min
 PW_GRID|   G-Vectors                           699840.0      699840      699840
 PW_GRID|   G-Rays                                2430.0        2430        2430
 PW_GRID|   Real Space Points                   699840.0      777600      583200

 PW_GRID| Information for grid number                                          2
 PW_GRID| Grid distributed over                                    80 processors
 PW_GRID| Real space group dimensions                                    80    1
 PW_GRID| the grid is blocked:                                                NO
 PW_GRID| Cutoff [a.u.]                                                    200.0
 PW_GRID| spherical cutoff:                                                   NO
 PW_GRID|   Bounds   1            -80      79                Points:         160
 PW_GRID|   Bounds   2            -80      79                Points:         160
 PW_GRID|   Bounds   3           -200     199                Points:         400
 PW_GRID| Volume element (a.u.^3)  0.3078E-02     Volume (a.u.^3)     31519.8467
 PW_GRID| Grid span                                                    FULLSPACE
 PW_GRID|   Distribution                         Average         Max         Min
 PW_GRID|   G-Vectors                           128000.0      128160      127840
 PW_GRID|   G-Rays                                 800.0         801         799
 PW_GRID|   Real Space Points                   128000.0      128000      128000

 PW_GRID| Information for grid number                                          3
 PW_GRID| Grid distributed over                                    80 processors
 PW_GRID| Real space group dimensions                                    80    1
 PW_GRID| the grid is blocked:                                                NO
 PW_GRID| Cutoff [a.u.]                                                     66.7
 PW_GRID| spherical cutoff:                                                   NO
 PW_GRID|   Bounds   1            -48      47                Points:          96
 PW_GRID|   Bounds   2            -48      47                Points:          96
 PW_GRID|   Bounds   3           -112     112                Points:         225
 PW_GRID| Volume element (a.u.^3)  0.1520E-01     Volume (a.u.^3)     31519.8467
 PW_GRID| Grid span                                                    FULLSPACE
 PW_GRID|   Distribution                         Average         Max         Min
[...]
 flops    13 x    25 x    50         577461820000     100.0%      0.0%      0.0%
 flops    25 x    13 x    50         578318520000     100.0%      0.0%      0.0%
 flops   242 x    64 x   178         731164442624     100.0%      0.0%      0.0%
 flops   242 x    64 x   183         751702769664     100.0%      0.0%      0.0%
 flops   973 x    32 x    50         766643046400     100.0%      0.0%      0.0%
 flops   973 x    50 x    32         766643046400     100.0%      0.0%      0.0%
 flops   242 x    32 x    32         790278545408     100.0%      0.0%      0.0%
 flops   242 x    64 x   195         800994754560     100.0%      0.0%      0.0%
 flops    25 x    18 x    13         840452979600     100.0%      0.0%      0.0%
 flops    13 x    18 x    25         840452979600     100.0%      0.0%      0.0%
 flops   955 x    32 x   178         892281589760     100.0%      0.0%      0.0%
 flops   955 x    32 x   183         917345679360     100.0%      0.0%      0.0%
 flops   991 x    32 x   178         925917335552     100.0%      0.0%      0.0%
 flops   991 x    32 x   183         951926249472     100.0%      0.0%      0.0%
 flops   955 x    32 x   195         977499494400     100.0%      0.0%      0.0%
 flops   991 x    32 x   195        1014347642880     100.0%      0.0%      0.0%
 flops    25 x    25 x    50        1107843750000     100.0%      0.0%      0.0%
 flops   973 x    64 x    50        1115117158400     100.0%      0.0%      0.0%
 flops   973 x    50 x    64        1115117158400     100.0%      0.0%      0.0%
 flops   242 x    64 x    32        1149496066048     100.0%      0.0%      0.0%
 flops   242 x    32 x    64        1149496066048     100.0%      0.0%      0.0%
 flops     5 x    32 x    25        1170128064000     100.0%      0.0%      0.0%
 flops    25 x    32 x     5        1170128064000     100.0%      0.0%      0.0%
 flops   955 x    64 x   178        1297864130560     100.0%      0.0%      0.0%
 flops   955 x    64 x   183        1334320988160     100.0%      0.0%      0.0%
 flops   991 x    64 x   178        1346788851712     100.0%      0.0%      0.0%
 flops   991 x    64 x   183        1384619999232     100.0%      0.0%      0.0%
 flops   224 x    32 x   178        1395859390464     100.0%      0.0%      0.0%
 flops   955 x    64 x   195        1421817446400     100.0%      0.0%      0.0%
 flops   224 x    32 x   183        1435068923904     100.0%      0.0%      0.0%
 flops   991 x    64 x   195        1475414753280     100.0%      0.0%      0.0%
 flops   224 x    32 x   195        1529171804160     100.0%      0.0%      0.0%
 flops    25 x    18 x    25        1595250000000     100.0%      0.0%      0.0%
 flops   242 x    64 x    64        1671994277888     100.0%      0.0%      0.0%
 flops   973 x    32 x   178        1818198925312     100.0%      0.0%      0.0%
 flops   973 x    32 x   183        1869271928832     100.0%      0.0%      0.0%
 flops   973 x    32 x   195        1991847137280     100.0%      0.0%      0.0%
 flops   224 x    64 x   178        2030340931584     100.0%      0.0%      0.0%
 flops    13 x    13 x    32        2058546071296     100.0%      0.0%      0.0%
 flops   224 x    64 x   183        2087372980224     100.0%      0.0%      0.0%
 flops   224 x    32 x    32        2194492489728     100.0%      0.0%      0.0%
 flops   224 x    64 x   195        2224249896960     100.0%      0.0%      0.0%
 flops   973 x    64 x   178        2644652982272     100.0%      0.0%      0.0%
 flops   955 x    32 x    32        2648661114880     100.0%      0.0%      0.0%
 flops   973 x    64 x   183        2718940987392     100.0%      0.0%      0.0%
 flops   991 x    32 x    32        2748505931776     100.0%      0.0%      0.0%
 flops   973 x    64 x   195        2897232199680     100.0%      0.0%      0.0%
 flops    13 x    13 x    64        2994248830976     100.0%      0.0%      0.0%
 flops   224 x    32 x    64        3191989075968     100.0%      0.0%      0.0%
 flops   224 x    64 x    32        3191989075968     100.0%      0.0%      0.0%
 flops   955 x    32 x    64        3852597985280     100.0%      0.0%      0.0%
 flops   955 x    64 x    32        3852597985280     100.0%      0.0%      0.0%
 flops   991 x    32 x    64        3997826809856     100.0%      0.0%      0.0%
 flops   991 x    64 x    32        3997826809856     100.0%      0.0%      0.0%
 flops    13 x    25 x    32        4065331212800     100.0%      0.0%      0.0%
 flops    25 x    13 x    32        4071362380800     100.0%      0.0%      0.0%
 flops   224 x    64 x    64        4642893201408     100.0%      0.0%      0.0%
 flops   973 x    32 x    32        5397167046656     100.0%      0.0%      0.0%
 flops   955 x    64 x    64        5603778887680     100.0%      0.0%      0.0%
 flops   991 x    64 x    64        5815020814336     100.0%      0.0%      0.0%
 flops    13 x    25 x    64        5913209036800     100.0%      0.0%      0.0%
 flops    25 x    13 x    64        5921981644800     100.0%      0.0%      0.0%
 flops    25 x    25 x    32        7799220000000     100.0%      0.0%      0.0%
 flops   973 x    64 x    32        7850424795136     100.0%      0.0%      0.0%
 flops   973 x    32 x    64        7850424795136     100.0%      0.0%      0.0%
 flops    25 x    25 x    64       11344320000000     100.0%      0.0%      0.0%
 flops   973 x    64 x    64       11418799702016     100.0%      0.0%      0.0%
 flops    13 x    32 x    13       20946163929600     100.0%      0.0%      0.0%
 flops    25 x    32 x    13       41835881651200     100.0%      0.0%      0.0%
 flops    13 x    32 x    25       41835881651200     100.0%      0.0%      0.0%
 flops    25 x    32 x    25       79408000000000     100.0%      0.0%      0.0%
 flops inhomo. stacks             135080239816704     100.0%      0.0%      0.0%
 flops total                       511.656776E+12     100.0%      0.0%      0.0%
 flops max/rank                      8.881899E+12     100.0%      0.0%      0.0%
 matmuls inhomo. stacks                  13457920     100.0%      0.0%      0.0%
 matmuls total                        10363677716     100.0%      0.0%      0.0%
 number of processed stacks             183736896     100.0%      0.0%      0.0%
 average stack size                                    56.4       0.0       0.0
 marketing flops                   546.123782E+12
 -------------------------------------------------------------------------------
 # multiplications                          47402
 max memory usage/rank               1.575051E+09
 # max total images/rank                        5
 # max 3D layers                                1
 # MPI messages exchanged               432306240
 MPI messages size (bytes):
  total size                        54.065807E+12
  min size                           0.000000E+00
  max size                           1.894792E+06
  average size                     125.063680E+03
 MPI breakdown and total messages size (bytes):
             size <=      128             3398720                        0
       128 < size <=     8192            56070102             459326275584
      8192 < size <=    32768           129220938            2636097740992
     32768 < size <=   131072           191912160           13901992032192
    131072 < size <=  4194304            51704320           37021910478432
   4194304 < size <= 16777216                   0                        0
  16777216 < size                               0                        0
 -------------------------------------------------------------------------------

 *** WARNING in dbcsr/mm/dbcsr_mm.F:268 :: Using a non-square number of ***
 *** MPI ranks might lead to poor performance.                          ***
 *** Used ranks: 80                                                     ***
 *** Suggested: 81 169                                                  ***

 -------------------------------------------------------------------------------
 
 MEMORY| Estimated peak process memory [MiB]                                1524

 -------------------------------------------------------------------------------
 ----                             MULTIGRID INFO                            ----
 -------------------------------------------------------------------------------
 count for grid        1:        1282567          cutoff [a.u.]          600.00
 count for grid        2:       11106842          cutoff [a.u.]          200.00
 count for grid        3:       10307748          cutoff [a.u.]           66.67
 count for grid        4:       15714387          cutoff [a.u.]           22.22
 count for grid        5:       14538513          cutoff [a.u.]            7.41
 total gridlevel count  :       52950057

 -------------------------------------------------------------------------------
 -                                                                             -
 -                         MESSAGE PASSING PERFORMANCE                         -
 -                                                                             -
 -------------------------------------------------------------------------------

 ROUTINE             CALLS      AVE VOLUME [Bytes]
 MP_Group             4864
 MP_Bcast            62970                   7409.
 MP_Allreduce       417034                    267.
 MP_Sync              2024
 MP_Alltoall        269452                5338032.
 MP_SendRecv         31284                   5919.
 MP_ISendRecv      1224342                 133520.
 MP_Wait          10574377
 MP_comm_split        2019
 MP_ISend         12158792                 118097.
 MP_IRecv         12162520                 118007.
 MP_Recv              1862                 162816.
 MP_Memory         5265884
 -------------------------------------------------------------------------------


 -------------------------------------------------------------------------------
 -                                                                             -
 -                           R E F E R E N C E S                               -
 -                                                                             -
 -------------------------------------------------------------------------------
 
 CP2K version 7.0 (Development Version), the CP2K developers group (2018).
 CP2K is freely available from https://www.cp2k.org/ .

 Schuett, Ole; Messmer, Peter; Hutter, Juerg; VandeVondele, Joost. 
 Electronic Structure Calculations on Graphics Processing Units, John Wiley & Sons, Ltd, 173-190 (2016). 
 GPU-Accelerated Sparse Matrix-Matrix Multiplication for Linear Scaling Density Functional Theory.
 http://dx.doi.org/10.1002/9781118670712.ch8


 Borstnik, U; VandeVondele, J; Weber, V; Hutter, J. 
 PARALLEL COMPUTING, 40 (5-6), 47-58 (2014). 
 Sparse matrix multiplication: The distributed block-compressed sparse
 row library.
 http://dx.doi.org/10.1016/j.parco.2014.03.012


 Hutter, J; Iannuzzi, M; Schiffmann, F; VandeVondele, J. 
 WILEY INTERDISCIPLINARY REVIEWS-COMPUTATIONAL MOLECULAR SCIENCE, 4 (1), 15-25 (2014). 
 CP2K: atomistic simulations of condensed matter systems.
 http://dx.doi.org/10.1002/wcms.1159


 Grimme, S; Ehrlich, S; Goerigk, L. 
 JOURNAL OF COMPUTATIONAL CHEMISTRY, 32, 1456 (2011). 
 Effect of the damping function in dispersion corrected density functional theory.
 http://dx.doi.org/10.1002/jcc.21759


 Grimme, S; Antony, J; Ehrlich, S; Krieg, H. 
 JOURNAL OF CHEMICAL PHYSICS, 132 (15), 154104 (2010). 
 A consistent and accurate ab initio parametrization of density
 functional dispersion correction (DFT-D) for the 94 elements H-Pu.
 http://dx.doi.org/10.1063/1.3382344


 VandeVondele, J; Hutter, J. 
 JOURNAL OF CHEMICAL PHYSICS, 127 (11), 114105 (2007). 
 Gaussian basis sets for accurate calculations on molecular systems in
 gas and condensed phases.
 http://dx.doi.org/10.1063/1.2770708


 Krack, M. 
 THEORETICAL CHEMISTRY ACCOUNTS, 114 (1-3), 145-152 (2005). 
 Pseudopotentials for H to Kr optimized for gradient-corrected
 exchange-correlation functionals.
 http://dx.doi.org/10.1007/s00214-005-0655-y


 VandeVondele, J; Krack, M; Mohamed, F; Parrinello, M; Chassaing, T;
 Hutter, J. COMPUTER PHYSICS COMMUNICATIONS, 167 (2), 103-128 (2005). 
 QUICKSTEP: Fast and accurate density functional calculations using a
 mixed Gaussian and plane waves approach.
 http://dx.doi.org/10.1016/j.cpc.2004.12.014


 Frigo, M; Johnson, SG. 
 PROCEEDINGS OF THE IEEE, 93 (2), 216-231 (2005). 
 The design and implementation of FFTW3.
 http://dx.doi.org/10.1109/JPROC.2004.840301


 Kolafa, J. 
 JOURNAL OF COMPUTATIONAL CHEMISTRY, 25 (3), 335-342 (2004). 
 Time-reversible always stable predictor-corrector method for molecular dynamics of polarizable molecules.
 http://dx.doi.org/10.1002/jcc.10385


 VandeVondele, J; Hutter, J. 
 JOURNAL OF CHEMICAL PHYSICS, 118 (10), 4365-4369 (2003). 
 An efficient orbital transformation method for electronic structure
 calculations.
 http://dx.doi.org/10.1063/1.1543154


 Hartwigsen, C; Goedecker, S; Hutter, J. 
 PHYSICAL REVIEW B, 58 (7), 3641-3662 (1998). 
 Relativistic separable dual-space Gaussian pseudopotentials from H to Rn.
 http://dx.doi.org/10.1103/PhysRevB.58.3641


 Lippert, G; Hutter, J; Parrinello, M. 
 MOLECULAR PHYSICS, 92 (3), 477-487 (1997). 
 A hybrid Gaussian and plane wave density functional scheme.
 http://dx.doi.org/10.1080/002689797170220


 Perdew, JP; Burke, K; Ernzerhof, M. 
 PHYSICAL REVIEW LETTERS, 77 (18), 3865-3868 (1996). 
 Generalized gradient approximation made simple.
 http://dx.doi.org/10.1103/PhysRevLett.77.3865


 Goedecker, S; Teter, M; Hutter, J. 
 PHYSICAL REVIEW B, 54 (3), 1703-1710 (1996). 
 Separable dual-space Gaussian pseudopotentials.
 http://dx.doi.org/10.1103/PhysRevB.54.1703


 -------------------------------------------------------------------------------
 -                                                                             -
 -                                T I M I N G                                  -
 -                                                                             -
 -------------------------------------------------------------------------------
 SUBROUTINE                       CALLS  ASD         SELF TIME        TOTAL TIME
                                MAXIMUM       AVERAGE  MAXIMUM  AVERAGE  MAXIMUM
 CP2K                                 1  1.0     0.23     0.24 24541.22 24541.26
 cp_geo_opt                           1  2.0     0.04     0.04 24539.87 24539.87
 geoopt_bfgs                          1  3.0     0.19     0.27 24539.83 24539.84
 cp_eval_at                         100  4.0     0.10     0.13 24495.48 24495.52
 qs_forces                           99  5.0     0.07     0.11 24400.80 24400.81
 qs_energies                        100  6.0     0.22     0.27 22483.75 22483.91
 scf_env_do_scf                     100  7.0     0.09     0.26 21177.02 21177.10
 scf_env_do_scf_inner_loop         1556  8.0     0.25     0.33 18913.75 18913.88
 rebuild_ks_matrix                 1655  9.8     0.01     0.01 10708.29 10710.35
 qs_ks_build_kohn_sham_matrix      1655 10.8     0.72     1.06 10708.28 10710.34
 qs_ks_update_qs_env               1660  9.0     0.02     0.03  8924.51  8926.36
 qs_rho_update_rho                 1656  9.1     0.04     0.06  8585.29  8590.23
 calculate_rho_elec                3312 10.1  4303.33  4370.76  8585.25  8590.20
 sum_up_and_integrate               927 11.7    13.84    15.50  5879.21  5881.35
 integrate_v_rspace                1854 12.7  3305.31  3406.00  5865.37  5869.15
 pw_transfer                      52480 13.3     5.67     6.57  5343.86  5364.99
 fft_wrap_pw1pw2                  49170 14.4     0.58     0.72  5317.68  5338.64
 fft_wrap_pw1pw2_600              28506 15.6   316.15   355.45  4933.62  4955.41
 fft3d_ps                         49170 16.4  1467.25  1637.54  4579.60  4624.74
 rs_pw_transfer                   26329 13.0     0.37     0.46  4232.73  4286.00
 density_rs2pw                     3312 11.1     0.28     0.33  3836.70  3914.46
 qs_vxc_create                     1655 11.8     0.06     0.12  3755.75  3756.59
 dbcsr_multiply_generic           47402 13.7     3.19     4.08  3351.91  3359.45
 mp_waitall_1                   9621249 16.7  2966.94  3067.70  2966.94  3067.70
 mp_alltoall_z22v                 49170 18.4  2698.66  3002.06  2698.66  3002.06
 qs_scf_new_mos                    1556  9.0     0.01     0.02  2905.45  2908.02
 qs_scf_loop_do_ot                 1556 10.0     0.09     0.19  2905.44  2908.00
 xc_vxc_pw_create                   927 12.7   192.91   218.21  2811.79  2812.25
 ot_scf_mini                       1556 11.0     0.29     0.62  2669.69  2671.16
 multiply_cannon                  47402 14.7    15.14    15.96  2599.91  2654.63
 init_scf_loop                      104  8.0     0.05     0.09  2260.14  2260.20
 xc_rho_set_and_dset_create        1655 13.8    28.94    31.10  2023.15  2056.85
 potential_pw2rs                   1854 13.7     1.46     1.64  2010.46  2014.59
 mp_waitany                      953128 14.9  1863.72  1998.08  1863.72  1998.08
 x_to_yz                          21386 18.0   230.02   261.17  1754.03  1862.80
 rs_pw_transfer_RS2PW_600          3512 13.0   696.32   779.36  1763.22  1817.03
 qs_ks_update_qs_env_forces          99  6.0     0.00     0.00  1800.14  1800.35
 multiply_cannon_metrocomm3      948040 15.7     2.54     2.72  1527.47  1692.07
 yz_to_x                          17452 16.8   144.55   151.33  1316.75  1467.08
 ot_mini                           1556 12.0     0.02     0.04  1402.07  1403.98
 rs_pw_transfer_PW2RS_600          2153 15.1   481.69   526.79  1212.84  1243.50
 prepare_preconditioner             104  9.0     0.01     0.03  1228.66  1228.98
 make_preconditioner                208 10.0     0.06     0.14  1131.38  1131.51
 make_full_all                      208 11.0     0.09     0.23  1034.12  1034.58
 xc_exc_calc                        728 13.0     3.54     3.99   943.90   944.36
 qs_ot_get_derivative              1656 13.0     0.03     0.04   888.71   890.30
 mp_alltoall_d11v                 55948 15.0   705.88   825.84   705.88   825.84
 init_scf_run                       100  7.0     0.01     0.02   817.55   817.57
 scf_env_initial_rho_setup          100  8.0     0.02     0.04   817.54   817.57
 multiply_cannon_metrocomm1      948040 15.7     2.91     3.13   619.25   814.95
 wfi_extrapolate                    100  9.0     0.07     0.16   808.80   808.84
 cp_fm_syevd                       2019 13.6     0.02     0.03   776.45   778.16
 rs_distribute_matrix              5364 12.0     6.56    13.84   654.59   771.57
 cp_fm_redistribute_end            2019 14.6   238.54   751.77   243.14   755.43
 cp_fm_syevd_base                  2019 14.3   508.64   725.97   508.64   725.97
 apply_preconditioner_dbcsr        1864 14.0     0.00     0.01   556.76   557.86
 apply_all                         1864 15.0     0.22     0.32   556.75   557.85
 qs_ot_get_p                       3320 11.9     0.03     0.09   530.69   538.45
 mp_sum_d                         62362 14.7   404.88   521.36   404.88   521.36
 ot_new_cg_direction                828 13.0     0.03     0.07   502.15   502.24
 -------------------------------------------------------------------------------

 The number of warnings for this run is : 1
 
 -------------------------------------------------------------------------------
  **** **** ******  **  PROGRAM ENDED AT                 2019-07-13 15:54:31.504
 ***** ** ***  *** **   PROGRAM RAN ON            blg7528.int.ets1.calculquebec.
 **    ****   ******    PROGRAM RAN BY                                       rzk
 ***** **    ** ** **   PROGRAM PROCESS ID                                434076
  **** **  *******  **  PROGRAM STOPPED IN /lustre04/scratch/rzk/rzk/GaN-carbene
                                           /443-adatoms-both-2x2/09-BondBreaking
                                           -CH/02-0401-CH-to-NTop-PES
