     212
 i =        1, E =     -8503.0795578086
  N         0.0771015364        1.9757735777        2.4882386101
 Ga         0.0631420363        0.0061479992        2.8233555585
  N         0.0802295347       -0.0275674350        5.0132498787
 Ga         0.0808270354        1.7982241568        5.7983498981
  N         0.0799206074        1.8142670395        7.7998562859
 Ga         0.0768084414       -0.0308196874        8.4444906697
  N         0.0791261568       -0.0308982474       10.4191706660
 Ga         0.0792226864        1.8083815248       11.0727517176
  N         0.0797219206        1.7903313660       13.0664522060
 Ga         0.0791008698       -0.0300321735       13.8787772610
  N         0.0790751274       -0.0304527332       16.0709228167
 Ga         0.0805103535        2.0142341547       16.4918845528
 Ga         0.0441385605        3.6840452913        1.3662077572
  N        -1.4085723950        4.5482232144        2.5285256485
 Ga        -1.6021693284        2.7033387266        3.2801404381
  N        -1.5300713811        2.7528563166        5.2574850807
 Ga        -1.5583488209        4.6187391078        5.8081375386
  N        -1.5391548219        4.6180547240        7.8028077593
 Ga        -1.5196668791        2.7568161954        8.4363206577
  N        -1.5177453919        2.7605362959       10.4313254055
 Ga        -1.5431764308        4.6187345240       11.0707709627
  N        -1.5589881477        4.6300744779       13.0622601416
 Ga        -1.5175813269        2.7618181904       13.6244531696
  N        -1.5480676928        2.7477950770       15.5838181618
 Ga        -1.3555108254        4.5128696411       16.4927317532
  N         0.0777337138        3.6744900139       17.6284767341
  N        -3.1324626916        7.5189283680        2.5324445149
 Ga        -3.1110280354        5.5148577508        2.8537319779
  N        -3.1370194983        5.5410041155        5.0227231196
 Ga        -3.1444656985        7.3618416419        5.8082150691
  N        -3.1363699665        7.3864234996        7.7988523123
 Ga        -3.1371837436        5.5392333627        8.4503231316
  N        -3.1371943995        5.5406430147       10.4220111288
 Ga        -3.1381341539        7.3808020911       11.0720465244
  N        -3.1362130072        7.3619794496       13.0629046597
 Ga        -3.1293944822        5.5442240096       13.8634507395
  N        -3.1356840244        5.5410629921       16.0671387699
 Ga        -3.1357751563        7.5970811093       16.4940567237
 Ga        -3.1501537544        9.2537021351        1.4993516133
  N        -4.6404104624       10.1213887319        2.5160577432
 Ga        -4.8555746699        8.2719832979        3.2906704619
  N        -4.7453247943        8.3256841705        5.2506514802
 Ga        -4.7767425335       10.2004441139        5.7987837438
  N        -4.7548785880       10.1875947389        7.7959072914
 Ga        -4.7386067802        8.3321439635        8.4375272980
  N        -4.7342477036        8.3324565103       10.4304535079
 Ga        -4.7608322586       10.1916040198       11.0736583034
  N        -4.7758752762       10.2008628567       13.0668959441
 Ga        -4.7333031481        8.3319613188       13.6256404621
  N        -4.7609076887        8.3124547329       15.5846176056
 Ga        -4.5811963501       10.0894320301       16.4931874776
  N        -3.1451322598        9.2571786617       17.6298932089
  N         3.2847237599        1.8311767763        2.6157834788
 Ga         3.2864170252        0.0915601937        3.2878380085
  N         3.2961957618       -0.0339891561        5.2503883731
 Ga         3.2873319706        1.8286589679        5.8741357612
  N         3.2958426933        1.8251847641        7.8505633714
 Ga         3.2928216397       -0.0409455086        8.4406538622
  N         3.2949811880       -0.0427742099       10.4326406696
 Ga         3.2953033446        1.8266483499       11.0281848878
  N         3.2965950755        1.8271068175       12.9987994431
 Ga         3.2964927906       -0.0426835392       13.6252676380
  N         3.3000698173       -0.0083881569       15.5834784239
 Ga         3.2935283485        1.8258874357       15.8637419881
  N         1.5677388210        4.5501491315        2.5159740230
 Ga         1.7552944692        2.7167602267        3.2653948450
  N         1.6880774753        2.7541935948        5.2500462345
 Ga         1.7201338180        4.6187973284        5.8086689325
  N         1.6975781201        4.6171326856        7.8040159411
 Ga         1.6768407695        2.7581010080        8.4403190539
  N         1.6768761041        2.7603392523       10.4335831493
 Ga         1.7024953648        4.6193247236       11.0704879561
  N         1.7186057627        4.6302386750       13.0621392154
 Ga         1.6768501409        2.7622409137       13.6244447975
  N         1.7082859874        2.7483196212       15.5828401850
 Ga         1.5142853744        4.5112463752       16.4937058688
  N         0.0797063270        7.3787378627        2.6952438006
 Ga         0.0877044447        5.5388494646        3.3381769835
  N         0.0801419252        5.5535772921        5.2744579714
 Ga         0.0886127827        7.3950377199        5.9054734096
  N         0.0806526664        7.3986081866        7.8628472958
 Ga         0.0797355019        5.5251998945        8.4452277286
  N         0.0793056354        5.5273729822       10.4341841548
 Ga         0.0800522282        7.3970214214       11.0292882131
  N         0.0796287905        7.3973960678       12.9983819584
 Ga         0.0799439648        5.5275150245       13.6243488174
  N         0.0806840372        5.5597970085       15.5833400255
 Ga         0.0807532976        7.3978577970       15.8615469089
  N        -1.6313213653       10.1090624334        2.5235118325
 Ga        -1.4880303583        8.2962731790        3.3360486257
  N        -1.5161150748        8.3174564012        5.2623271405
 Ga        -1.5032920949       10.2036129166        5.8105625477
  N        -1.5195368208       10.1860407037        7.8006257722
 Ga        -1.5403730191        8.3316561486        8.4474718807
  N        -1.5402530614        8.3320800872       10.4344447252
 Ga        -1.5147459334       10.1916863339       11.0716960604
  N        -1.4972487351       10.2003246494       13.0625565511
 Ga        -1.5393052592        8.3324859224       13.6248621017
  N        -1.5111149374        8.3169784118       15.5836584122
 Ga        -1.7028075981       10.0824982838       16.4949373863
  N         6.5102450146        1.9495274712        2.5374117779
 Ga         6.5258174367       -0.0301168073        2.8642460156
  N         6.5091822603       -0.0318374366        5.0245864169
 Ga         6.5099997859        1.7989727332        5.8054106603
  N         6.5109444875        1.8144000325        7.8013487664
 Ga         6.5138952710       -0.0313021408        8.4475909088
  N         6.5119640731       -0.0305396680       10.4201151640
 Ga         6.5122960736        1.8093587301       11.0693340485
  N         6.5120179512        1.7884471468       13.0657484692
 Ga         6.5126753589       -0.0382925020       13.8636585411
  N         6.5110108953       -0.0318144824       16.0670890315
 Ga         6.5142370264        1.9811526581       16.4460964184
 Ga         6.5151421265        3.6815100497        1.5326406543
  N         5.0093628558        4.5488608248        2.5303044116
 Ga         4.7917129080        2.6974961968        3.2975654027
  N         4.9009280946        2.7544724136        5.2583290182
 Ga         4.8765568003        4.6276067569        5.8049357622
  N         4.8942796840        4.6173878124        7.8013982403
 Ga         4.9120794060        2.7599250001        8.4405727412
  N         4.9148817934        2.7614552089       10.4344544717
 Ga         4.8888421331        4.6212229081       11.0693732129
  N         4.8709042566        4.6312591976       13.0660128090
 Ga         4.9138485439        2.7608592767       13.6127050480
  N         4.8916888357        2.7483175799       15.5829226410
 Ga         5.0385844982        4.5369652514       16.4461302731
  N         6.5086502859        3.6817784598       17.5907930611
  N         3.3634891180        7.5453139865        2.7163951506
  N         3.2954449565        5.5403383694        5.0289420809
 Ga         3.2989419071        7.3651729471        5.7972639255
  N         3.2939152507        7.3878363307        7.7924748942
 Ga         3.2958515890        5.5422924179        8.4472549486
  N         3.2960647542        5.5410849995       10.4204545960
 Ga         3.2977085471        7.3812846247       11.0704129168
  N         3.2957001941        7.3624200455       13.0617885323
 Ga         3.2886875112        5.5452101984       13.8632554767
  N         3.2938141009        5.5407924339       16.0675007815
 Ga         3.2983901638        7.5976951819       16.4951410510
 Ga         3.3309934720        9.2443822662        1.3570678422
  N         1.7838577332       10.1197297983        2.5059691247
 Ga         1.6615761118        8.3220143993        3.2984142080
  N         1.6760303244        8.3170321251        5.2385528567
 Ga         1.6649291758       10.1968341887        5.7972302275
  N         1.6774837176       10.1844789002        7.7925386835
 Ga         1.7015722122        8.3328151189        8.4453864110
  N         1.6994031865        8.3324752073       10.4332444948
 Ga         1.6748649332       10.1919413747       11.0705767279
  N         1.6572592764       10.2001278063       13.0617616281
 Ga         1.6989484582        8.3323558500       13.6251740302
  N         1.6731124023        8.3173278889       15.5848955738
 Ga         1.8626228510       10.0846910732       16.4950915643
  N         3.2998205861        9.2565798800       17.6382732980
  N         9.7369475429        1.8240907832        2.6279451275
 Ga         9.7311842425        0.0632224145        3.2594453304
  N         9.7247446786       -0.0369335592        5.2388323144
 Ga         9.7331151457        1.8185095549        5.8675002276
  N         9.7265383287        1.8237776530        7.8466051321
 Ga         9.7302736300       -0.0431311088        8.4326345438
  N         9.7283464987       -0.0432627513       10.4278636237
 Ga         9.7283318589        1.8258376203       11.0252382832
  N         9.7274120776        1.8270626283       12.9968961997
 Ga         9.7280218683       -0.0424529493       13.6244089274
  N         9.7268171993       -0.0094634406       15.5819502480
 Ga         9.7309190713        1.8250368232       15.8619768889
  N         8.0132784122        4.5496678357        2.5392371741
 Ga         8.2310217955        2.6902800807        3.3005273880
  N         8.1197686776        2.7533556316        5.2603874444
 Ga         8.1423904685        4.6262061042        5.8027109929
  N         8.1292940859        4.6181684608        7.7993342131
 Ga         8.1118859882        2.7592636851        8.4371122168
  N         8.1085631432        2.7616811186       10.4321930588
 Ga         8.1343522932        4.6203095453       11.0697164664
  N         8.1529752190        4.6311476419       13.0656934987
 Ga         8.1105968694        2.7608322280       13.6114282711
  N         8.1343897634        2.7491710191       15.5798958579
 Ga         7.9846609532        4.5339802447       16.4462387258
  N         6.5173602415        7.3918064453        2.6033911613
 Ga         6.5055130483        5.6602605398        3.2973237322
  N         6.5099907930        5.5436233343        5.2566139014
 Ga         6.5033873722        7.4022025022        5.8693761333
  N         6.5102404649        7.3978268183        7.8434798994
 Ga         6.5115506593        5.5310843842        8.4379617627
  N         6.5119811281        5.5279812954       10.4322576809
 Ga         6.5111074765        7.3981968786       11.0260509316
  N         6.5119833111        7.3969920100       12.9974041727
 Ga         6.5122250257        5.5296195866       13.6118976820
  N         6.5137266985        5.5563424247       15.5803247293
 Ga         6.5115300222        7.4010032918       15.8627037829
  N         4.8039804242       10.1309410221        2.5085079769
 Ga         5.0485500618        8.3186869924        3.2867630333
  N         4.8988630864        8.3254306986        5.2476432772
 Ga         4.9294181200       10.1973019780        5.7855469438
  N         4.9136401042       10.1871927503        7.7875361205
 Ga         4.8937684251        8.3339461300        8.4329971652
  N         4.8931891419        8.3326121596       10.4275777734
 Ga         4.9185719201       10.1911295242       11.0719067326
  N         4.9350759381       10.2007272693       13.0653347206
 Ga         4.8927920017        8.3322948581       13.6247487071
  N         4.9208871074        8.3145877167       15.5821676801
 Ga         4.7384743613       10.0872925607       16.4947042517
  O         0.0106273539        4.0899031521       -0.4301529838
  H        -0.1872346395        5.8726155761       -0.3430157411
  C         1.1252426320        3.6356386490       -1.2207374619
  H         2.0935292671        3.9399915624       -0.7898161339
  H         1.1201212328        2.5396063680       -1.3267646180
  H         1.0302386722        4.0812370739       -2.2215452639
 Ga         3.2666126071        5.5306331825        2.8544438063
  O        -0.2082249302        6.8558419071       -0.1864936156
  H         0.0309143778        7.3090486957        1.6586144771
  C         0.8785920513        7.4186494722       -0.9293821568
  H         0.9556848641        8.4954594548       -0.7275059624
  H         1.8372890292        6.8868005329       -0.7883461596
  H         0.8662892477        7.2150472140       -2.0045612396
     212
 i =        2, E =     -8504.7314501716
  N         0.0773524743        1.9771968419        2.4880989115
 Ga         0.0653572992        0.0078463664        2.8237060773
  N         0.0814433258       -0.0263500800        5.0128654726
 Ga         0.0811235024        1.7989910885        5.7986919334
  N         0.0799245104        1.8144497337        7.7995220552
 Ga         0.0775478355       -0.0302385214        8.4447540903
  N         0.0788825765       -0.0311657778       10.4190393068
 Ga         0.0791507841        1.8082163920       11.0727414607
  N         0.0796294968        1.7901854583       13.0664624173
 Ga         0.0787705271       -0.0303514582       13.8789034641
  N         0.0789444119       -0.0306060034       16.0711492035
 Ga         0.0805822243        2.0138196807       16.4917336743
 Ga         0.0445089327        3.6846551384        1.3661548033
  N        -1.4086851502        4.5478287477        2.5280028982
 Ga        -1.6019795025        2.7034651080        3.2806423048
  N        -1.5295777110        2.7530861627        5.2575789020
 Ga        -1.5586506770        4.6185489208        5.8085211637
  N        -1.5391749755        4.6179889862        7.8025862321
 Ga        -1.5195142479        2.7569015422        8.4361251974
  N        -1.5178732000        2.7604371549       10.4308468909
 Ga        -1.5432459089        4.6187393683       11.0707570431
  N        -1.5591224412        4.6301464556       13.0622758898
 Ga        -1.5177858929        2.7617482178       13.6248069928
  N        -1.5477518749        2.7474873691       15.5842275173
 Ga        -1.3564851951        4.5131886747       16.4924379304
  N         0.0774489772        3.6747503742       17.6269969089
  N        -3.1315085365        7.5181254006        2.5302181547
 Ga        -3.1109034212        5.5142914279        2.8544523612
  N        -3.1366470947        5.5407363160        5.0225069903
 Ga        -3.1439745682        7.3609504797        5.8088875755
  N        -3.1362018677        7.3863393077        7.7989843247
 Ga        -3.1370129307        5.5391949427        8.4501902016
  N        -3.1373025817        5.5407001727       10.4215935130
 Ga        -3.1382039322        7.3808418115       11.0720867993
  N        -3.1363233018        7.3619359616       13.0628624286
 Ga        -3.1298870428        5.5440644832       13.8639783186
  N        -3.1370897296        5.5403021641       16.0671220913
 Ga        -3.1360527679        7.5961803726       16.4937302022
 Ga        -3.1497929052        9.2535128612        1.4981711513
  N        -4.6393275196       10.1213651550        2.5155294897
 Ga        -4.8564209464        8.2712789105        3.2903400644
  N        -4.7439750633        8.3265005808        5.2511183887
 Ga        -4.7761715244       10.2013899160        5.7993911164
  N        -4.7546901172       10.1877559658        7.7959668843
 Ga        -4.7378653345        8.3325562498        8.4378400537
  N        -4.7344357573        8.3323775910       10.4303475314
 Ga        -4.7609395258       10.1915375864       11.0737087527
  N        -4.7760075110       10.2007031336       13.0668540469
 Ga        -4.7335562563        8.3317643427       13.6259353678
  N        -4.7610307566        8.3128875728       15.5848724713
 Ga        -4.5814497385       10.0896032873       16.4930122821
  N        -3.1450172112        9.2568146313       17.6284035860
  N         3.2845656005        1.8313633403        2.6157916059
 Ga         3.2865640310        0.0920176223        3.2883541388
  N         3.2964706759       -0.0334726781        5.2505466461
 Ga         3.2871322927        1.8287341719        5.8742939411
  N         3.2958028855        1.8251364610        7.8501242568
 Ga         3.2929733473       -0.0408127178        8.4403959791
  N         3.2949302302       -0.0429878266       10.4320873975
 Ga         3.2953362171        1.8266011610       11.0280198922
  N         3.2964489006        1.8269742616       12.9984532601
 Ga         3.2964803297       -0.0427738186       13.6255098382
  N         3.2997078288       -0.0085312952       15.5836607835
 Ga         3.2935134639        1.8258510567       15.8639112961
  N         1.5678804598        4.5496276012        2.5155625694
 Ga         1.7555210632        2.7168272331        3.2658964647
  N         1.6882754935        2.7538533811        5.2499049487
 Ga         1.7197063067        4.6178350153        5.8091350415
  N         1.6974062773        4.6169506202        7.8038665325
 Ga         1.6768999590        2.7579751675        8.4399792264
  N         1.6767607528        2.7604086769       10.4330050787
 Ga         1.7026303224        4.6194538316       11.0704845643
  N         1.7188409739        4.6304741174       13.0621188196
 Ga         1.6768616466        2.7623120367       13.6247175063
  N         1.7080093230        2.7480924827       15.5830942929
 Ga         1.5151004960        4.5113988337       16.4935160613
  N         0.0813228781        7.3794527524        2.6953694588
 Ga         0.0877612492        5.5380336068        3.3383899258
  N         0.0800059432        5.5525185435        5.2746317890
 Ga         0.0870998087        7.3939498014        5.9063907862
  N         0.0803855720        7.3984895665        7.8637464410
 Ga         0.0796576345        5.5248342079        8.4451722990
  N         0.0793253678        5.5274945494       10.4338142642
 Ga         0.0801616639        7.3971499600       11.0293085625
  N         0.0798432937        7.3975605956       12.9983555152
 Ga         0.0799694379        5.5275186593       13.6246653750
  N         0.0807604380        5.5597616676       15.5838466668
 Ga         0.0808925974        7.3979562633       15.8617716754
  N        -1.6318894294       10.1095283888        2.5230065755
 Ga        -1.4882208768        8.2968959214        3.3365376872
  N        -1.5167175272        8.3181527870        5.2629614150
 Ga        -1.5036056849       10.2041255962        5.8110662680
  N        -1.5195780139       10.1860959218        7.8004840378
 Ga        -1.5406187582        8.3319579255        8.4474866023
  N        -1.5402295773        8.3320286856       10.4340931924
 Ga        -1.5146070821       10.1917134726       11.0716445494
  N        -1.4970400012       10.2003392687       13.0624810710
 Ga        -1.5393738904        8.3324619775       13.6251645152
  N        -1.5111223586        8.3170568550       15.5841276364
 Ga        -1.7023396732       10.0831054563       16.4947470772
  N         6.5100236205        1.9499744702        2.5373057649
 Ga         6.5247499827       -0.0294362129        2.8646642906
  N         6.5080892461       -0.0311373425        5.0242134711
 Ga         6.5097382417        1.7991814693        5.8057761096
  N         6.5109493164        1.8143749004        7.8011318147
 Ga         6.5133768099       -0.0310327231        8.4476627964
  N         6.5122159160       -0.0306778568       10.4197512229
 Ga         6.5123712255        1.8092811341       11.0692680267
  N         6.5121137668        1.7884075524       13.0652574445
 Ga         6.5129852863       -0.0380590559       13.8640378919
  N         6.5109756379       -0.0304152221       16.0669944154
 Ga         6.5145185097        1.9841933179       16.4479386054
 Ga         6.5149916896        3.6816663041        1.5321844034
  N         5.0092831364        4.5485451527        2.5299297478
 Ga         4.7915332516        2.6973362512        3.2978540506
  N         4.9006620779        2.7537747961        5.2583080682
 Ga         4.8762902583        4.6265463887        5.8054909955
  N         4.8942389548        4.6171315357        7.8015699151
 Ga         4.9120077032        2.7596073284        8.4403804599
  N         4.9149990932        2.7615850337       10.4339377570
 Ga         4.8888842191        4.6213378238       11.0694155112
  N         4.8709532723        4.6314629362       13.0655217171
 Ga         4.9138820473        2.7609658978       13.6126556388
  N         4.8909326342        2.7479110426       15.5818377092
 Ga         5.0414118356        4.5357259788       16.4479648364
  N         6.5082920831        3.6815439822       17.5953383836
  N         3.2973332831        7.5077014369        2.5044128430
  N         3.2950214933        5.5384725044        5.0284243877
 Ga         3.2995218253        7.3643463487        5.7979091345
  N         3.2936589708        7.3875890348        7.7940560129
 Ga         3.2956805697        5.5414769687        8.4476054166
  N         3.2961777604        5.5414093037       10.4203923233
 Ga         3.2977697176        7.3814017545       11.0706486544
  N         3.2958096812        7.3625351741       13.0616021989
 Ga         3.2891554409        5.5454148328       13.8636211812
  N         3.2950774750        5.5400743138       16.0672428555
 Ga         3.2990031989        7.5968872695       16.4946509326
 Ga         3.3304366772        9.2735147938        1.3370462526
  N         1.7826473527       10.1181072189        2.5046405848
 Ga         1.6801129104        8.3106492543        3.2891810783
  N         1.6749476303        8.3175294966        5.2365204398
 Ga         1.6637212287       10.1982991035        5.7986354713
  N         1.6772763637       10.1847219856        7.7938388552
 Ga         1.7010857494        8.3329628236        8.4460882832
  N         1.6996057285        8.3325489331       10.4334190038
 Ga         1.6749580617       10.1919392088       11.0707098444
  N         1.6573820781       10.2000639266       13.0615655757
 Ga         1.6992882108        8.3324694723       13.6254909155
  N         1.6734283228        8.3174977244       15.5853871507
 Ga         1.8621858853       10.0856003070       16.4946385743
  N         3.2991191954        9.2561882526       17.6376824618
  N         9.7370202564        1.8254292006        2.6266983191
 Ga         9.7310319665        0.0641126916        3.2586668291
  N         9.7243818939       -0.0359050174        5.2390572632
 Ga         9.7333055646        1.8199913046        5.8680928447
  N         9.7265658076        1.8239939897        7.8467802117
 Ga         9.7299053002       -0.0425573813        8.4333176067
  N         9.7283969579       -0.0434948705       10.4279094612
 Ga         9.7282563492        1.8256208799       11.0252174028
  N         9.7275895844        1.8266890202       12.9965087877
 Ga         9.7280805804       -0.0425660955       13.6245516398
  N         9.7275296014       -0.0097919005       15.5818122050
 Ga         9.7309615012        1.8248377132       15.8617215977
  N         8.0133793659        4.5494617411        2.5385851700
 Ga         8.2307702661        2.6902798672        3.3008231480
  N         8.1193763512        2.7532030563        5.2604955536
 Ga         8.1433681456        4.6258318558        5.8032198363
  N         8.1295334924        4.6180237162        7.7994366107
 Ga         8.1117417645        2.7591677380        8.4370536224
  N         8.1086526274        2.7616688027       10.4317329910
 Ga         8.1342499675        4.6202985181       11.0697256484
  N         8.1528442144        4.6311940721       13.0651724277
 Ga         8.1108224635        2.7608168351       13.6112830855
  N         8.1354148527        2.7488813900       15.5784621780
 Ga         7.9817809253        4.5323897792       16.4480649961
  N         6.5072336077        7.3982650217        2.6080311465
 Ga         6.5055585971        5.6620259065        3.2963289606
  N         6.5101582440        5.5421355973        5.2564534521
 Ga         6.5042273225        7.4016947904        5.8701071130
  N         6.5105774356        7.3977128674        7.8453797345
 Ga         6.5116355520        5.5303326086        8.4383250442
  N         6.5119614579        5.5281856338       10.4321386447
 Ga         6.5109690942        7.3982524579       11.0261498835
  N         6.5117941696        7.3973506811       12.9969402405
 Ga         6.5122493943        5.5299803933       13.6117122196
  N         6.5139553352        5.5573905019       15.5787887803
 Ga         6.5114064218        7.4011401342       15.8623305107
  N         4.8060678632       10.1264839946        2.5094350974
 Ga         4.9845057427        8.2808743515        3.2565350648
  N         4.8998703584        8.3257290900        5.2364436554
 Ga         4.9302966967       10.1982018382        5.7865972082
  N         4.9137033958       10.1876522209        7.7895133206
 Ga         4.8937273062        8.3339729433        8.4340013254
  N         4.8931141963        8.3326753411       10.4279968399
 Ga         4.9184513346       10.1910477464       11.0721352003
  N         4.9349026130       10.2005028316       13.0651171596
 Ga         4.8928344457        8.3322496304       13.6248623006
  N         4.9209756513        8.3153379436       15.5819576078
 Ga         4.7384637959       10.0872333222       16.4943966950
  O         0.0106317556        4.0898541990       -0.4301845493
  H        -0.1882859926        5.8750817855       -0.3418993053
  C         1.1253024987        3.6356452502       -1.2206958232
  H         2.0936276333        3.9400299567       -0.7897597284
  H         1.1201745478        2.5395708860       -1.3267737636
  H         1.0301902418        4.0812844669       -2.2215223597
 Ga         3.2662426143        5.5291658578        2.8538971267
  O        -0.1911799392        6.8608372450       -0.1993967313
  H         0.0306965252        7.3090301112        1.6581064109
  C         0.9362722211        7.3937718142       -0.9058410114
  H         0.9539091885        8.4787165601       -0.7302357139
  H         1.8850163958        6.9688366297       -0.5414210555
  H         0.8637204107        7.2184930359       -1.9903154405
     212
 i =        3, E =     -8504.7325035784
  N         0.0772801178        1.9770676195        2.4874003283
 Ga         0.0672267125        0.0087962025        2.8243140746
  N         0.0811131228       -0.0265290156        5.0116845202
 Ga         0.0809315644        1.7995255235        5.7988155279
  N         0.0799079021        1.8142264385        7.7985611064
 Ga         0.0777373904       -0.0300674324        8.4459959578
  N         0.0790963904       -0.0310267076       10.4190528039
 Ga         0.0791356657        1.8083276624       11.0736275528
  N         0.0798024323        1.7896867890       13.0660231105
 Ga         0.0788862367       -0.0303634736       13.8790631858
  N         0.0798875105       -0.0298818748       16.0713536661
 Ga         0.0807654002        2.0143640846       16.4905905827
 Ga         0.0440710516        3.6847562366        1.3666256244
  N        -1.4089009686        4.5479426653        2.5274285252
 Ga        -1.6020357074        2.7037844987        3.2803707122
  N        -1.5299474931        2.7530015763        5.2564777978
 Ga        -1.5586331445        4.6184852897        5.8088069041
  N        -1.5391390813        4.6179337514        7.8017978331
 Ga        -1.5194596066        2.7568556153        8.4367834150
  N        -1.5174028929        2.7606796241       10.4300296458
 Ga        -1.5433375622        4.6186851680       11.0722655483
  N        -1.5599035749        4.6308135386       13.0631136059
 Ga        -1.5174273637        2.7617609425       13.6247022425
  N        -1.5470031279        2.7453731252       15.5838283376
 Ga        -1.3597676899        4.5137984525       16.4905090308
  N         0.0767493267        3.6769070897       17.6223015499
  N        -3.1310543611        7.5178286691        2.5295902251
 Ga        -3.1109558507        5.5144108441        2.8550814904
  N        -3.1367074111        5.5406387024        5.0218268580
 Ga        -3.1438945724        7.3608918013        5.8091200600
  N        -3.1362104003        7.3863703859        7.7982069918
 Ga        -3.1370266760        5.5391569843        8.4507167843
  N        -3.1365999264        5.5411125624       10.4207684983
 Ga        -3.1382762590        7.3807707234       11.0735841289
  N        -3.1361032885        7.3609656751       13.0636260475