 DBCSR| Multiplication driver                                               BLAS
 DBCSR| Multrec recursion limit                                              512
 DBCSR| Multiplication stack size                                           1000
 DBCSR| Maximum elements for images                                    UNLIMITED
 DBCSR| Multiplicative factor virtual images                                   1
 DBCSR| Multiplication size stacks                                             3
 DBCSR| Number of 3D layers                                               SINGLE
 DBCSR| Use MPI memory allocation                                              T
 DBCSR| Use RMA algorithm                                                      F
 DBCSR| Use Communication thread                                               T
 DBCSR| Communication thread load                                             87


  **** **** ******  **  PROGRAM STARTED AT               2019-06-10 21:57:30.450
 ***** ** ***  *** **   PROGRAM STARTED ON        blg8112.int.ets1.calculquebec.
 **    ****   ******    PROGRAM STARTED BY                                   rzk
 ***** **    ** ** **   PROGRAM PROCESS ID                                112698
  **** **  *******  **  PROGRAM STARTED IN /lustre03/project/6037349/rzk/GaN-car
                                           bene/444-addat/00-Surface/RKS

 CP2K| version string:                    CP2K version 7.0 (Development Version)
 CP2K| source code revision number:                                    svn:18619
 CP2K| cp2kflags: libint fftw3 libxc parallel mpi3 scalapack mkl                
 CP2K| is freely available from                            https://www.cp2k.org/
 CP2K| Program compiled at                          Sun Apr  7 00:48:11 EDT 2019
 CP2K| Program compiled on                      beluga2.int.ets1.calculquebec.ca
 CP2K| Program compiled for                    Beluga-Linux-x86-64-intel-openmpi
 CP2K| Data directory path    /home/rzk/projects/def-rzk/group/cp2k/cp2k-mcgill/
 CP2K| Input file name                                             restart-1.inp
 
 GLOBAL| Force Environment number                                              1
 GLOBAL| Basis set file name                                        BASIS_MOLOPT
 GLOBAL| Potential file name                                      GTH_POTENTIALS
 GLOBAL| MM Potential file name                                     MM_POTENTIAL
 GLOBAL| Coordinate file name                                      __STD_INPUT__
 GLOBAL| Method name                                                        CP2K
 GLOBAL| Project name                                                       TEST
 GLOBAL| Preferred FFT library                                             FFTW3
 GLOBAL| Preferred diagonalization lib.                                       SL
 GLOBAL| Run type                                                       CELL_OPT
 GLOBAL| All-to-all communication in single precision                          F
 GLOBAL| FFTs using library dependent lengths                                  F
 GLOBAL| Global print level                                               MEDIUM
 GLOBAL| MPI I/O enabled                                                       T
 GLOBAL| Total number of message passing processes                            80
 GLOBAL| Number of threads for this process                                    1
 GLOBAL| This output is from process                                           0
 GLOBAL| CPU model name :  Intel(R) Xeon(R) Gold 6148 CPU @ 2.40GHz

 MEMORY| system memory details [Kb]
 MEMORY|                        rank 0           min           max       average
 MEMORY| MemTotal            196614300     196614300     196614300     196614300
 MEMORY| MemFree             183752848     167723820     183762064     175774386
 MEMORY| Buffers                    76            76            76            76
 MEMORY| Cached                1596676       1596676       1654388       1625532
 MEMORY| Slab                  1126124       1126124       2683588       1904856
 MEMORY| SReclaimable           160096        160096        572272        366184
 MEMORY| MemLikelyFree       185509696     169950556     185518912     177766178


 *** Fundamental physical constants (SI units) ***

 *** Literature: B. J. Mohr and B. N. Taylor,
 ***             CODATA recommended values of the fundamental physical
 ***             constants: 2006, Web Version 5.1
 ***             http://physics.nist.gov/constants

 Speed of light in vacuum [m/s]                             2.99792458000000E+08
 Magnetic constant or permeability of vacuum [N/A**2]       1.25663706143592E-06
 Electric constant or permittivity of vacuum [F/m]          8.85418781762039E-12
 Planck constant (h) [J*s]                                  6.62606896000000E-34
 Planck constant (h-bar) [J*s]                              1.05457162825177E-34
 Elementary charge [C]                                      1.60217648700000E-19
 Electron mass [kg]                                         9.10938215000000E-31
 Electron g factor [ ]                                     -2.00231930436220E+00
 Proton mass [kg]                                           1.67262163700000E-27
 Fine-structure constant                                    7.29735253760000E-03
 Rydberg constant [1/m]                                     1.09737315685270E+07
 Avogadro constant [1/mol]                                  6.02214179000000E+23
 Boltzmann constant [J/K]                                   1.38065040000000E-23
 Atomic mass unit [kg]                                      1.66053878200000E-27
 Bohr radius [m]                                            5.29177208590000E-11

 *** Conversion factors ***

 [u] -> [a.u.]                                              1.82288848426455E+03
 [Angstrom] -> [Bohr] = [a.u.]                              1.88972613288564E+00
 [a.u.] = [Bohr] -> [Angstrom]                              5.29177208590000E-01
 [a.u.] -> [s]                                              2.41888432650478E-17
 [a.u.] -> [fs]                                             2.41888432650478E-02
 [a.u.] -> [J]                                              4.35974393937059E-18
 [a.u.] -> [N]                                              8.23872205491840E-08
 [a.u.] -> [K]                                              3.15774647902944E+05
 [a.u.] -> [kJ/mol]                                         2.62549961709828E+03
 [a.u.] -> [kcal/mol]                                       6.27509468713739E+02
 [a.u.] -> [Pa]                                             2.94210107994716E+13
 [a.u.] -> [bar]                                            2.94210107994716E+08
 [a.u.] -> [atm]                                            2.90362800883016E+08
 [a.u.] -> [eV]                                             2.72113838565563E+01
 [a.u.] -> [Hz]                                             6.57968392072181E+15
 [a.u.] -> [1/cm] (wave numbers)                            2.19474631370540E+05
 [a.u./Bohr**2] -> [1/cm]                                   5.14048714338585E+03
 

 CELL_TOP| Volume [angstrom^3]:                                         4656.618
 CELL_TOP| Vector a [angstrom    13.016     0.000     0.000    |a| =      13.016
 CELL_TOP| Vector b [angstrom    -6.455    11.180     0.000    |b| =      12.909
 CELL_TOP| Vector c [angstrom     0.000     0.000    32.000    |c| =      32.000
 CELL_TOP| Angle (b,c), alpha [degree]:                                   90.000
 CELL_TOP| Angle (a,c), beta  [degree]:                                   90.000
 CELL_TOP| Angle (a,b), gamma [degree]:                                  120.000
 CELL_TOP| Numerically orthorhombic:                                          NO
 
 GENERATE|  Preliminary Number of Bonds generated:                             0
 GENERATE|  Achieved consistency in connectivity generation.

 CELL| Volume [angstrom^3]:                                             4656.618
 CELL| Vector a [angstrom]:      13.016     0.000     0.000    |a| =      13.016
 CELL| Vector b [angstrom]:      -6.455    11.180     0.000    |b| =      12.909
 CELL| Vector c [angstrom]:       0.000     0.000    32.000    |c| =      32.000
 CELL| Angle (b,c), alpha [degree]:                                       90.000
 CELL| Angle (a,c), beta  [degree]:                                       90.000
 CELL| Angle (a,b), gamma [degree]:                                      120.000
 CELL| Numerically orthorhombic:                                              NO

 CELL_REF| Volume [angstrom^3]:                                         4670.759
 CELL_REF| Vector a [angstrom    12.982     0.000     0.000    |a| =      12.982
 CELL_REF| Vector b [angstrom    -6.491    11.243     0.000    |b| =      12.982
 CELL_REF| Vector c [angstrom     0.000     0.000    32.000    |c| =      32.000
 CELL_REF| Angle (b,c), alpha [degree]:                                   90.000
 CELL_REF| Angle (a,c), beta  [degree]:                                   90.000
 CELL_REF| Angle (a,b), gamma [degree]:                                  120.000
 CELL_REF| Numerically orthorhombic:                                          NO

 *******************************************************************************
 *******************************************************************************
 **                                                                           **
 **     #####                         ##              ##                      **
 **    ##   ##            ##          ##              ##                      **
 **   ##     ##                       ##            ######                    **
 **   ##     ##  ##   ##  ##   #####  ##  ##   ####   ##    #####    #####    **
 **   ##     ##  ##   ##  ##  ##      ## ##   ##      ##   ##   ##  ##   ##   **
 **   ##  ## ##  ##   ##  ##  ##      ####     ###    ##   ######   ######    **
 **    ##  ###   ##   ##  ##  ##      ## ##      ##   ##   ##       ##        **
 **     #######   #####   ##   #####  ##  ##  ####    ##    #####   ##        **
 **           ##                                                    ##        **
 **                                                                           **
 **                                                ... make the atoms dance   **
 **                                                                           **
 **            Copyright (C) by CP2K developers group (2000 - 2018)           **
 **                                                                           **
 *******************************************************************************

 DFT| Spin restricted Kohn-Sham (RKS) calculation                            RKS
 DFT| Multiplicity                                                             1
 DFT| Number of spin states                                                    1
 DFT| Charge                                                                   0
 DFT| Self-interaction correction (SIC)                                       NO
 DFT| Cutoffs: density                                              1.000000E-10
 DFT|          gradient                                             1.000000E-10
 DFT|          tau                                                  1.000000E-10
 DFT|          cutoff_smoothing_range                               0.000000E+00
 DFT| XC density smoothing                                                  NONE
 DFT| XC derivatives                                                          PW
 FUNCTIONAL| ROUTINE=NEW
 FUNCTIONAL| PBE:
 FUNCTIONAL| J.P.Perdew, K.Burke, M.Ernzerhof, Phys. Rev. Letter, vol. 77, n 18,
 FUNCTIONAL|  pp. 3865-3868, (1996){spin unpolarized}                           
 vdW POTENTIAL|                                                   Pair Potential
 vdW POTENTIAL|          DFT-D3 (Version 3.1)
 vdW POTENTIAL|          Potential Form: S. Grimme et al, JCP 132: 154104 (2010)
 vdW POTENTIAL|          Zero Damping
 vdW POTENTIAL|          Cutoff Radius [Bohr]:                             18.90
 vdW POTENTIAL|          s6 Scaling Factor:                               1.0000
 vdW POTENTIAL|          sr6 Scaling Factor:                              1.2170
 vdW POTENTIAL|          s8 Scaling Factor:                               0.7220
 vdW POTENTIAL|          Cutoff for CN calculation:                   0.1000E-05

 QS| Method:                                                                 GPW
 QS| Density plane wave grid type                        NON-SPHERICAL FULLSPACE
 QS| Number of grid levels:                                                    5
 QS| Density cutoff [a.u.]:                                                600.0
 QS| Multi grid cutoff [a.u.]: 1) grid level                               600.0
 QS|                           2) grid level                               200.0
 QS|                           3) grid level                                66.7
 QS|                           4) grid level                                22.2
 QS|                           5) grid level                                 7.4
 QS| Grid level progression factor:                                          3.0
 QS| Relative density cutoff [a.u.]:                                        20.0
 QS| Consistent realspace mapping and integration 
 QS| Interaction thresholds: eps_pgf_orb:                                1.0E-07
 QS|                         eps_filter_matrix:                          0.0E+00
 QS|                         eps_core_charge:                            1.0E-16
 QS|                         eps_rho_gspace:                             1.0E-14
 QS|                         eps_rho_rspace:                             1.0E-14
 QS|                         eps_gvg_rspace:                             1.0E-07
 QS|                         eps_ppl:                                    1.0E-02
 QS|                         eps_ppnl:                                   1.0E-09


 ATOMIC KIND INFORMATION

  1. Atomic kind: N                                     Number of atoms:     128

     Orbital Basis Set                                        DZVP-MOLOPT-SR-GTH

       Number of orbital shell sets:                                           1
       Number of orbital shells:                                               5
       Number of primitive Cartesian functions:                                5
       Number of Cartesian basis functions:                                   14
       Number of spherical basis functions:                                   13
       Norm type:                                                              2

       Normalised Cartesian orbitals:

                        Set   Shell   Orbital            Exponent    Coefficient

                          1       1    2s                7.341988       0.360561
                                                         2.542637       0.139177
                                                         0.888575      -0.289383
                                                         0.333802      -0.182244
                                                         0.112012      -0.019197

                          1       2    3s                7.341988       0.282000
                                                         2.542637       0.177875
                                                         0.888575      -0.278381
                                                         0.333802       0.008577
                                                         0.112012       0.154176

                          1       3    3px               7.341988      -1.188719
                                                         2.542637      -0.973969
                                                         0.888575      -0.501079
                                                         0.333802      -0.144894
                                                         0.112012      -0.013986
                          1       3    3py               7.341988      -1.188719
                                                         2.542637      -0.973969
                                                         0.888575      -0.501079
                                                         0.333802      -0.144894
                                                         0.112012      -0.013986
                          1       3    3pz               7.341988      -1.188719
                                                         2.542637      -0.973969
                                                         0.888575      -0.501079
                                                         0.333802      -0.144894
                                                         0.112012      -0.013986

                          1       4    4px               7.341988      -0.094798
                                                         2.542637       0.050069
                                                         0.888575      -0.114797
                                                         0.333802       0.144793
                                                         0.112012       0.066710
                          1       4    4py               7.341988      -0.094798
                                                         2.542637       0.050069
                                                         0.888575      -0.114797
                                                         0.333802       0.144793
                                                         0.112012       0.066710
                          1       4    4pz               7.341988      -0.094798
                                                         2.542637       0.050069
                                                         0.888575      -0.114797
                                                         0.333802       0.144793
                                                         0.112012       0.066710

                          1       5    4dx2              7.341988       1.354688
                                                         2.542637       0.690378
                                                         0.888575       0.855359
                                                         0.333802       0.091746
                                                         0.112012       0.001253
                          1       5    4dxy              7.341988       2.346389
                                                         2.542637       1.195770
                                                         0.888575       1.481524
                                                         0.333802       0.158910
                                                         0.112012       0.002169
                          1       5    4dxz              7.341988       2.346389
                                                         2.542637       1.195770
                                                         0.888575       1.481524
                                                         0.333802       0.158910
                                                         0.112012       0.002169
                          1       5    4dy2              7.341988       1.354688
                                                         2.542637       0.690378
                                                         0.888575       0.855359
                                                         0.333802       0.091746
                                                         0.112012       0.001253
                          1       5    4dyz              7.341988       2.346389
                                                         2.542637       1.195770
                                                         0.888575       1.481524
                                                         0.333802       0.158910
                                                         0.112012       0.002169
                          1       5    4dz2              7.341988       1.354688
                                                         2.542637       0.690378
                                                         0.888575       0.855359
                                                         0.333802       0.091746
                                                         0.112012       0.001253

     GTH Potential information for                                    GTH-PBE-q5

       Description:                       Goedecker-Teter-Hutter pseudopotential
                                           Goedecker et al., PRB 54, 1703 (1996)
                                          Hartwigsen et al., PRB 58, 3641 (1998)
                                                      Krack, TCA 114, 145 (2005)

       Gaussian exponent of the core charge distribution:               6.208322
       Electronic configuration (s p d ...):                               2   3

       Parameters of the local part of the GTH pseudopotential:

                          rloc        C1          C2          C3          C4
                        0.283791  -12.415226    1.868096

       Parameters of the non-local part of the GTH pseudopotential:

                   l      r(l)      h(i,j,l)

                   0    0.255405   13.630263
                   1    0.245495

  2. Atomic kind: Ga                                    Number of atoms:     112

     Orbital Basis Set                                        DZVP-MOLOPT-SR-GTH

       Number of orbital shell sets:                                           1
       Number of orbital shells:                                               7
       Number of primitive Cartesian functions:                                6
       Number of Cartesian basis functions:                                   30
       Number of spherical basis functions:                                   25
       Norm type:                                                              2

       Normalised Cartesian orbitals:

                        Set   Shell   Orbital            Exponent    Coefficient

                          1       1    2s                7.066654       0.013136
                                                         3.428369      -0.094392
                                                         1.430064       0.265435
                                                         0.571611       0.056465
                                                         0.232197      -0.192187
                                                         0.076562      -0.044987

                          1       2    3s                7.066654      -0.098564
                                                         3.428369       0.010390
                                                         1.430064       0.351249
                                                         0.571611       0.182615
                                                         0.232197      -0.425358
                                                         0.076562       0.190349

                          1       3    3px               7.066654       0.002364
                                                         3.428369       0.019222
                                                         1.430064       0.250132
                                                         0.571611      -0.058486
                                                         0.232197      -0.159451
                                                         0.076562      -0.020696
                          1       3    3py               7.066654       0.002364
                                                         3.428369       0.019222
                                                         1.430064       0.250132
                                                         0.571611      -0.058486
                                                         0.232197      -0.159451
                                                         0.076562      -0.020696
                          1       3    3pz               7.066654       0.002364
                                                         3.428369       0.019222
                                                         1.430064       0.250132
                                                         0.571611      -0.058486
                                                         0.232197      -0.159451
                                                         0.076562      -0.020696

                          1       4    4px               7.066654       0.492448
                                                         3.428369      -0.614736
                                                         1.430064      -0.191654
                                                         0.571611       0.037801
                                                         0.232197       0.302315
                                                         0.076562      -0.071336
                          1       4    4py               7.066654       0.492448
                                                         3.428369      -0.614736
                                                         1.430064      -0.191654
                                                         0.571611       0.037801
                                                         0.232197       0.302315
                                                         0.076562      -0.071336
                          1       4    4pz               7.066654       0.492448
                                                         3.428369      -0.614736
                                                         1.430064      -0.191654
                                                         0.571611       0.037801
                                                         0.232197       0.302315
                                                         0.076562      -0.071336

                          1       5    4dx2              7.066654     -15.264855
                                                         3.428369      -5.345726
                                                         1.430064      -1.022732
                                                         0.571611      -0.123148
                                                         0.232197      -0.006983
                                                         0.076562      -0.000022
                          1       5    4dxy              7.066654     -26.439504
                                                         3.428369      -9.259069
                                                         1.430064      -1.771423
                                                         0.571611      -0.213299
                                                         0.232197      -0.012094
                                                         0.076562      -0.000037
                          1       5    4dxz              7.066654     -26.439504
                                                         3.428369      -9.259069
                                                         1.430064      -1.771423
                                                         0.571611      -0.213299
                                                         0.232197      -0.012094
                                                         0.076562      -0.000037
                          1       5    4dy2              7.066654     -15.264855
                                                         3.428369      -5.345726
                                                         1.430064      -1.022732
                                                         0.571611      -0.123148
                                                         0.232197      -0.006983
                                                         0.076562      -0.000022
                          1       5    4dyz              7.066654     -26.439504
                                                         3.428369      -9.259069
                                                         1.430064      -1.771423
                                                         0.571611      -0.213299
                                                         0.232197      -0.012094
                                                         0.076562      -0.000037
                          1       5    4dz2              7.066654     -15.264855
                                                         3.428369      -5.345726
                                                         1.430064      -1.022732
                                                         0.571611      -0.123148
                                                         0.232197      -0.006983
                                                         0.076562      -0.000022

                          1       6    5dx2              7.066654      -5.739265
                                                         3.428369      -2.129289
                                                         1.430064      -0.700423
                                                         0.571611       0.161606
                                                         0.232197       0.043513
                                                         0.076562       0.011205
                          1       6    5dxy              7.066654      -9.940698
                                                         3.428369      -3.688037
                                                         1.430064      -1.213168
                                                         0.571611       0.279909
                                                         0.232197       0.075368
                                                         0.076562       0.019407
                          1       6    5dxz              7.066654      -9.940698
                                                         3.428369      -3.688037
                                                         1.430064      -1.213168
                                                         0.571611       0.279909
                                                         0.232197       0.075368
                                                         0.076562       0.019407
                          1       6    5dy2              7.066654      -5.739265
                                                         3.428369      -2.129289
                                                         1.430064      -0.700423
                                                         0.571611       0.161606
                                                         0.232197       0.043513
                                                         0.076562       0.011205
                          1       6    5dyz              7.066654      -9.940698
                                                         3.428369      -3.688037
                                                         1.430064      -1.213168
                                                         0.571611       0.279909
                                                         0.232197       0.075368
                                                         0.076562       0.019407
                          1       6    5dz2              7.066654      -5.739265
                                                         3.428369      -2.129289
                                                         1.430064      -0.700423
                                                         0.571611       0.161606
                                                         0.232197       0.043513
                                                         0.076562       0.011205

                          1       7    5fx3              7.066654       0.705879
                                                         3.428369      -0.273976
                                                         1.430064       0.113667
                                                         0.571611       0.132480
                                                         0.232197       0.012437
                                                         0.076562       0.003241
                          1       7    5fx2y             7.066654       1.578393
                                                         3.428369      -0.612629
                                                         1.430064       0.254167
                                                         0.571611       0.296234
                                                         0.232197       0.027811
                                                         0.076562       0.007246
                          1       7    5fx2z             7.066654       1.578393
                                                         3.428369      -0.612629
                                                         1.430064       0.254167
                                                         0.571611       0.296234
                                                         0.232197       0.027811
                                                         0.076562       0.007246
                          1       7    5fxy2             7.066654       1.578393
                                                         3.428369      -0.612629
                                                         1.430064       0.254167
                                                         0.571611       0.296234
                                                         0.232197       0.027811
                                                         0.076562       0.007246
                          1       7    5fxyz             7.066654       2.733856
                                                         3.428369      -1.061105
                                                         1.430064       0.440230
                                                         0.571611       0.513092
                                                         0.232197       0.048170
                                                         0.076562       0.012551
                          1       7    5fxz2             7.066654       1.578393
                                                         3.428369      -0.612629
                                                         1.430064       0.254167
                                                         0.571611       0.296234
                                                         0.232197       0.027811
                                                         0.076562       0.007246
                          1       7    5fy3              7.066654       0.705879
                                                         3.428369      -0.273976
                                                         1.430064       0.113667
                                                         0.571611       0.132480
                                                         0.232197       0.012437
                                                         0.076562       0.003241
                          1       7    5fy2z             7.066654       1.578393
                                                         3.428369      -0.612629
                                                         1.430064       0.254167
                                                         0.571611       0.296234
                                                         0.232197       0.027811
                                                         0.076562       0.007246
                          1       7    5fyz2             7.066654       1.578393
                                                         3.428369      -0.612629
                                                         1.430064       0.254167
                                                         0.571611       0.296234
                                                         0.232197       0.027811
                                                         0.076562       0.007246
                          1       7    5fz3              7.066654       0.705879
                                                         3.428369      -0.273976
                                                         1.430064       0.113667
                                                         0.571611       0.132480
                                                         0.232197       0.012437
                                                         0.076562       0.003241

     GTH Potential information for                                   GTH-PBE-q13

       Description:                       Goedecker-Teter-Hutter pseudopotential
                                           Goedecker et al., PRB 54, 1703 (1996)
                                          Hartwigsen et al., PRB 58, 3641 (1998)
                                                      Krack, TCA 114, 145 (2005)

       Gaussian exponent of the core charge distribution:               2.082466
       Electronic configuration (s p d ...):                           2   1  10

       Parameters of the local part of the GTH pseudopotential:

                          rloc        C1          C2          C3          C4
                        0.490000

       Parameters of the non-local part of the GTH pseudopotential:

                   l      r(l)      h(i,j,l)

                   0    0.416777   10.475690   -4.921768    0.870706
                                   -4.921768    7.770178   -2.248152
                                    0.870706   -2.248152    1.784415
                   1    0.569627    1.777985    0.195860
                                    0.195860   -0.231744
                   2    0.238126  -16.248680

  3. Atomic kind: H                                     Number of atoms:      16

     Orbital Basis Set                                     DZVP-MOLOPT-SR-GTH-q1

       Number of orbital shell sets:                                           1
       Number of orbital shells:                                               3
       Number of primitive Cartesian functions:                                5
       Number of Cartesian basis functions:                                    5
       Number of spherical basis functions:                                    5
       Norm type:                                                              2

       Normalised Cartesian orbitals:

                        Set   Shell   Orbital            Exponent    Coefficient

                          1       1    2s               10.068468      -0.133023
                                                         2.680223      -0.177618
                                                         0.791502      -0.258419
                                                         0.239116      -0.107525
                                                         0.082193      -0.014019

                          1       2    3s               10.068468       0.344673
                                                         2.680223       1.819821
                                                         0.791502      -0.999069
                                                         0.239116       0.017430
                                                         0.082193       0.082660

                          1       3    3px              10.068468       0.155326
                                                         2.680223       0.367157
                                                         0.791502       0.311480
                                                         0.239116       0.080105
                                                         0.082193       0.033440
                          1       3    3py              10.068468       0.155326
                                                         2.680223       0.367157
                                                         0.791502       0.311480
                                                         0.239116       0.080105
                                                         0.082193       0.033440
                          1       3    3pz              10.068468       0.155326
                                                         2.680223       0.367157
                                                         0.791502       0.311480
                                                         0.239116       0.080105
                                                         0.082193       0.033440

     GTH Potential information for                                    GTH-PBE-q1

       Description:                       Goedecker-Teter-Hutter pseudopotential
                                           Goedecker et al., PRB 54, 1703 (1996)
                                          Hartwigsen et al., PRB 58, 3641 (1998)
                                                      Krack, TCA 114, 145 (2005)

       Gaussian exponent of the core charge distribution:              12.500000
       Electronic configuration (s p d ...):                                   1

       Parameters of the local part of the GTH pseudopotential:

                          rloc        C1          C2          C3          C4
                        0.200000   -4.178900    0.724463


 MOLECULE KIND INFORMATION


 All atoms are their own molecule, skipping detailed information


 TOTAL NUMBERS AND MAXIMUM NUMBERS

  Total number of            - Atomic kinds:                                   3
                             - Atoms:                                        256
                             - Shell sets:                                   256
                             - Shells:                                      1472
                             - Primitive Cartesian functions:               1392
                             - Cartesian basis functions:                   5232
                             - Spherical basis functions:                   4544

  Maximum angular momentum of- Orbital basis functions:                        3
                             - Local part of the GTH pseudopotential:          2
                             - Non-local part of the GTH pseudopotential:      4


 MODULE QUICKSTEP:  ATOMIC COORDINATES IN angstrom

  Atom  Kind  Element       X           Y           Z          Z(eff)       Mass

       1     1 N    7    0.017839   -0.003280   -0.145180      5.00      14.0067
       2     2 Ga  31    0.032300    1.865756    0.525269     13.00      69.7230
       3     1 N    7    0.056930    1.878133    2.447496      5.00      14.0067
       4     2 Ga  31    0.051165    0.015779    3.156668     13.00      69.7230
       5     1 N    7    0.094935    0.038355    5.084910      5.00      14.0067
       6     2 Ga  31    0.113839    1.912474    5.778362     13.00      69.7230
       7     1 N    7    0.205677    1.980267    7.712988      5.00      14.0067
       8     2 Ga  31    0.206835    0.120090    8.383421     13.00      69.7230
       9     1 N    7    0.331645    0.194244   10.315733      5.00      14.0067
      10     2 Ga  31    0.350310    2.064236   11.007664     13.00      69.7230
      11     1 N    7    0.441482    2.118842   12.943449      5.00      14.0067
      12     2 Ga  31    0.424842    0.270800   13.607811     13.00      69.7230
      13     1 N    7   -0.142088   -0.067204   15.342488      5.00      14.0067
      14     2 Ga  31   -0.877808    1.089551   16.700235     13.00      69.7230
      15     1 N    7    0.523689    0.303401   17.866957      5.00      14.0067
      16     1 N    7   -1.595764    2.791621   -0.144320      5.00      14.0067
      17     2 Ga  31   -1.581995    4.661515    0.524259     13.00      69.7230
      18     1 N    7   -1.558028    4.675078    2.446185      5.00      14.0067
      19     2 Ga  31   -1.562066    2.812096    3.151890     13.00      69.7230
      20     1 N    7   -1.517611    2.835076    5.078872      5.00      14.0067
      21     2 Ga  31   -1.498908    4.705914    5.780158     13.00      69.7230
      22     1 N    7   -1.408358    4.772774    7.711753      5.00      14.0067
      23     2 Ga  31   -1.407732    2.916689    8.395871     13.00      69.7230
      24     1 N    7   -1.281938    2.999447   10.332735      5.00      14.0067
      25     2 Ga  31   -1.274903    4.868202   11.042450     13.00      69.7230
      26     1 N    7   -1.188293    4.927192   12.981720      5.00      14.0067
      27     2 Ga  31   -1.163792    3.056127   13.625882     13.00      69.7230
      28     1 N    7   -1.621251    2.623579   15.454222      5.00      14.0067
      29     2 Ga  31   -2.656624    4.396941   16.774187     13.00      69.7230
      30     1 N    7   -1.183072    3.079557   16.753854      5.00      14.0067
      31     1 N    7   -3.209510    5.586502   -0.145963      5.00      14.0067
      32     2 Ga  31   -3.194994    7.455635    0.524397     13.00      69.7230
      33     1 N    7   -3.170499    7.468548    2.446839      5.00      14.0067
      34     2 Ga  31   -3.176521    5.606007    3.155982     13.00      69.7230
      35     1 N    7   -3.133255    5.628343    5.083507      5.00      14.0067
      36     2 Ga  31   -3.113590    7.503314    5.774315     13.00      69.7230
      37     1 N    7   -3.022007    7.568894    7.708792      5.00      14.0067
      38     2 Ga  31   -3.020521    5.709987    8.386490     13.00      69.7230
      39     1 N    7   -2.893728    5.786235   10.322285      5.00      14.0067
      40     2 Ga  31   -2.880046    7.647452   11.038084     13.00      69.7230
      41     1 N    7   -2.798508    7.712973   12.977769      5.00      14.0067
      42     2 Ga  31   -2.813695    5.851552   13.674646     13.00      69.7230
      43     1 N    7   -3.368098    5.507457   15.406515      5.00      14.0067
      44     2 Ga  31   -3.983773    6.677912   16.782360     13.00      69.7230
      45     1 N    7   -2.687882    5.893080   18.078818      5.00      14.0067
      46     1 N    7   -4.823112    8.381645   -0.144400      5.00      14.0067
      47     2 Ga  31   -4.809091   10.251545    0.524555     13.00      69.7230
      48     1 N    7   -4.784989   10.265451    2.446439      5.00      14.0067
      49     2 Ga  31   -4.789026    8.403074    3.151829     13.00      69.7230
      50     1 N    7   -4.745581    8.427631    5.079120      5.00      14.0067
      51     2 Ga  31   -4.726802   10.296966    5.785042     13.00      69.7230
      52     1 N    7   -4.634661   10.363545    7.716034      5.00      14.0067
      53     2 Ga  31   -4.633692    8.503552    8.393679     13.00      69.7230
      54     1 N    7   -4.503003    8.582791   10.331938      5.00      14.0067
      55     2 Ga  31   -4.494088   10.457059   11.018593     13.00      69.7230
      56     1 N    7   -4.411954   10.531940   12.952338      5.00      14.0067
      57     2 Ga  31   -4.406455    8.668495   13.625723     13.00      69.7230
      58     1 N    7   -5.007737    8.487646   15.458650      5.00      14.0067
      59     2 Ga  31   -5.975831    9.886906   16.689969     13.00      69.7230
      60     1 N    7   -4.389610    8.615694   16.753006      5.00      14.0067
      61     1 N    7    3.271974   -0.003094   -0.145522      5.00      14.0067
      62     2 Ga  31    3.285457    1.865861    0.525246     13.00      69.7230
      63     1 N    7    3.309413    1.878588    2.447979      5.00      14.0067
      64     2 Ga  31    3.304665    0.016701    3.157399     13.00      69.7230
      65     1 N    7    3.349954    0.040150    5.086652      5.00      14.0067
      66     2 Ga  31    3.364594    1.910350    5.787552     13.00      69.7230
      67     1 N    7    3.451981    1.974971    7.724480      5.00      14.0067
      68     2 Ga  31    3.464062    0.119430    8.416156     13.00      69.7230
      69     1 N    7    3.589166    0.193891   10.354494      5.00      14.0067
      70     2 Ga  31    3.606100    2.061891   11.052569     13.00      69.7230
      71     1 N    7    3.696519    2.135729   12.998454      5.00      14.0067
      72     2 Ga  31    3.671527    0.284336   13.698438     13.00      69.7230
      73     1 N    7    3.105443   -0.000475   15.559791      5.00      14.0067
      74     2 Ga  31    2.040632    1.166352   17.266292     13.00      69.7230
      75     1 N    7    3.753007    0.340847   16.933701      5.00      14.0067
      76     1 N    7    1.658348    2.791727   -0.145480      5.00      14.0067
      77     2 Ga  31    1.671689    4.660625    0.525303     13.00      69.7230
      78     1 N    7    1.695443    4.673607    2.447488      5.00      14.0067
      79     2 Ga  31    1.691946    2.811865    3.156730     13.00      69.7230
      80     1 N    7    1.737365    2.836196    5.085289      5.00      14.0067
      81     2 Ga  31    1.751334    4.705164    5.789584     13.00      69.7230
      82     1 N    7    1.839098    4.768177    7.725804      5.00      14.0067
      83     2 Ga  31    1.849950    2.916232    8.424351     13.00      69.7230
      84     1 N    7    1.980654    2.993381   10.361403      5.00      14.0067
      85     2 Ga  31    1.975492    4.858787   11.067880     13.00      69.7230
      86     1 N    7    2.055427    4.914547   13.009902      5.00      14.0067
      87     2 Ga  31    2.077397    3.042311   13.687657     13.00      69.7230
      88     1 N    7    1.575540    2.683772   15.553627      5.00      14.0067
      89     2 Ga  31    0.459393    3.960829   16.520275     13.00      69.7230
      90     1 N    7    2.185292    3.057320   16.930211      5.00      14.0067
      91     1 N    7    0.044708    5.586705   -0.145390      5.00      14.0067
      92     2 Ga  31    0.058122    7.455931    0.525061     13.00      69.7230
      93     1 N    7    0.081958    7.468980    2.447429      5.00      14.0067
      94     2 Ga  31    0.077654    5.606903    3.155660     13.00      69.7230
      95     1 N    7    0.123815    5.630826    5.084877      5.00      14.0067
      96     2 Ga  31    0.137531    7.500102    5.790508     13.00      69.7230
      97     1 N    7    0.225805    7.564644    7.728202      5.00      14.0067
      98     2 Ga  31    0.231771    5.707222    8.419510     13.00      69.7230
      99     1 N    7    0.351268    5.783805   10.360563      5.00      14.0067
     100     2 Ga  31    0.376676    7.653194   11.046549     13.00      69.7230
     101     1 N    7    0.468399    7.726193   12.990370      5.00      14.0067
     102     2 Ga  31    0.440583    5.875192   13.690285     13.00      69.7230
     103     1 N    7   -0.093778    5.566239   15.563992      5.00      14.0067
     104     2 Ga  31   -1.143842    6.779314   17.687080     13.00      69.7230
     105     1 N    7    0.450290    5.962874   16.850254      5.00      14.0067
     106     1 N    7   -1.568920    8.381650   -0.145988      5.00      14.0067
     107     2 Ga  31   -1.555657   10.250608    0.525242     13.00      69.7230
     108     1 N    7   -1.532059   10.263912    2.447823      5.00      14.0067
     109     2 Ga  31   -1.535189    8.401926    3.156596     13.00      69.7230
     110     1 N    7   -1.488575    8.426096    5.084693      5.00      14.0067
     111     2 Ga  31   -1.475543   10.294310    5.788164     13.00      69.7230
     112     1 N    7   -1.387371   10.355567    7.724990      5.00      14.0067
     113     2 Ga  31   -1.380981    8.502622    8.429113     13.00      69.7230
     114     1 N    7   -1.253933    8.576240   10.369497      5.00      14.0067
     115     2 Ga  31   -1.249619   10.443233   11.066670     13.00      69.7230
     116     1 N    7   -1.171661   10.502053   13.010489      5.00      14.0067
     117     2 Ga  31   -1.148973    8.626452   13.683512     13.00      69.7230
     118     1 N    7   -1.660943    8.296221   15.554685      5.00      14.0067
     119     2 Ga  31   -2.785568    9.585716   16.519764     13.00      69.7230
     120     1 N    7   -1.056908    8.573424   16.850026      5.00      14.0067
     121     1 N    7    6.525722   -0.003520   -0.145178      5.00      14.0067
     122     2 Ga  31    6.539551    1.865689    0.523616     13.00      69.7230
     123     1 N    7    6.561947    1.877729    2.446298      5.00      14.0067
     124     2 Ga  31    6.557613    0.015888    3.155963     13.00      69.7230
     125     1 N    7    6.600098    0.038463    5.085585      5.00      14.0067
     126     2 Ga  31    6.614519    1.906786    5.786354     13.00      69.7230
     127     1 N    7    6.698663    1.968451    7.722042      5.00      14.0067
     128     2 Ga  31    6.702347    0.114125    8.422318     13.00      69.7230
     129     1 N    7    6.824742    0.188536   10.368433      5.00      14.0067
     130     2 Ga  31    6.862231    2.068719   11.035328     13.00      69.7230
     131     1 N    7    6.962224    2.133524   12.987039      5.00      14.0067
     132     2 Ga  31    6.944499    0.275380   13.671679     13.00      69.7230
     133     1 N    7    6.386897   -0.053479   15.491513      5.00      14.0067
     134     2 Ga  31    5.393278    1.242594   16.600663     13.00      69.7230
     135     1 N    7    7.041441    0.314988   17.080918      5.00      14.0067
     136     1 N    7    4.912182    2.791435   -0.145677      5.00      14.0067
     137     2 Ga  31    4.925935    4.660582    0.523441     13.00      69.7230
     138     1 N    7    4.948198    4.672661    2.445710      5.00      14.0067
     139     2 Ga  31    4.944272    2.811177    3.156944     13.00      69.7230
     140     1 N    7    4.987020    2.834971    5.087973      5.00      14.0067
     141     2 Ga  31    4.999085    4.704201    5.791713     13.00      69.7230
     142     1 N    7    5.081446    4.768674    7.725421      5.00      14.0067
     143     2 Ga  31    5.093683    2.912140    8.418005     13.00      69.7230
     144     1 N    7    5.224887    2.990311   10.363852      5.00      14.0067
     145     2 Ga  31    5.241816    4.865828   11.038374     13.00      69.7230
     146     1 N    7    5.331558    4.941837   12.986975      5.00      14.0067
     147     2 Ga  31    5.364450    3.084558   13.654817     13.00      69.7230
     148     1 N    7    4.819415    2.758344   15.478320      5.00      14.0067
     149     2 Ga  31    3.787707    4.009370   16.605302     13.00      69.7230
     150     1 N    7    5.473259    3.138391   17.075479      5.00      14.0067
     151     1 N    7    3.298476    5.586288   -0.144830      5.00      14.0067
     152     2 Ga  31    3.312275    7.455669    0.524296     13.00      69.7230
     153     1 N    7    3.334912    7.467783    2.446997      5.00      14.0067
     154     2 Ga  31    3.330610    5.605053    3.155392     13.00      69.7230
     155     1 N    7    3.372966    5.627224    5.085412      5.00      14.0067
     156     2 Ga  31    3.387221    7.495514    5.784283     13.00      69.7230
     157     1 N    7    3.470888    7.555845    7.718955      5.00      14.0067
     158     2 Ga  31    3.474148    5.703848    8.421758     13.00      69.7230
     159     1 N    7    3.598161    5.777956   10.367070      5.00      14.0067
     160     2 Ga  31    3.635014    7.653503   11.032734     13.00      69.7230
     161     1 N    7    3.729650    7.718305   12.980445      5.00      14.0067
     162     2 Ga  31    3.718578    5.866703   13.677699     13.00      69.7230
     163     1 N    7    3.158923    5.531340   15.503244      5.00      14.0067
     164     2 Ga  31    2.137048    6.815716   16.556871     13.00      69.7230
     165     1 N    7    3.818844    5.917865   17.080060      5.00      14.0067
     166     1 N    7    1.684925    8.381309   -0.145103      5.00      14.0067
     167     2 Ga  31    1.698599   10.250539    0.523955     13.00      69.7230
     168     1 N    7    1.721003   10.263060    2.446531      5.00      14.0067
     169     2 Ga  31    1.716623    8.401006    3.157479     13.00      69.7230
     170     1 N    7    1.759660    8.423797    5.087850      5.00      14.0067
     171     2 Ga  31    1.772046   10.293338    5.787354     13.00      69.7230
     172     1 N    7    1.854028   10.356563    7.720906      5.00      14.0067
     173     2 Ga  31    1.869497    8.501393    8.417313     13.00      69.7230
     174     1 N    7    1.997078    8.579345   10.362723      5.00      14.0067
     175     2 Ga  31    2.014325   10.457680   11.034547     13.00      69.7230
     176     1 N    7    2.103840   10.532424   12.980962      5.00      14.0067
     177     2 Ga  31    2.141262    8.678644   13.635356     13.00      69.7230
     178     1 N    7    1.581954    8.339442   15.448230      5.00      14.0067
     179     2 Ga  31    0.535433    9.595369   16.556725     13.00      69.7230
     180     1 N    7    2.179302    8.698155   17.078193      5.00      14.0067
     181     1 N    7    9.780094   -0.003240   -0.144684      5.00      14.0067
     182     2 Ga  31    9.793889    1.866071    0.525092     13.00      69.7230
     183     1 N    7    9.817169    1.878424    2.447461      5.00      14.0067
     184     2 Ga  31    9.810410    0.014249    3.152899     13.00      69.7230
     185     1 N    7    9.850912    0.034847    5.081947      5.00      14.0067
     186     2 Ga  31    9.873330    1.910605    5.767444     13.00      69.7230
     187     1 N    7    9.961836    1.977546    7.698856      5.00      14.0067
     188     2 Ga  31    9.955649    0.118034    8.375927     13.00      69.7230
     189     1 N    7   10.074116    0.194317   10.310590      5.00      14.0067
     190     2 Ga  31   10.113010    2.064773   10.994433     13.00      69.7230
     191     1 N    7   10.202112    2.127871   12.933660      5.00      14.0067
     192     2 Ga  31   10.238698    0.287154   13.643571     13.00      69.7230
     193     1 N    7    9.740688   -0.018080   15.518476      5.00      14.0067
     194     2 Ga  31    8.642350    1.230891   16.725398     13.00      69.7230
     195     1 N    7   10.366683    0.333005   16.892559      5.00      14.0067
     196     1 N    7    8.166413    2.791578   -0.145368      5.00      14.0067
     197     2 Ga  31    8.180743    4.661056    0.524691     13.00      69.7230
     198     1 N    7    8.204264    4.673523    2.447175      5.00      14.0067
     199     2 Ga  31    8.196046    2.809791    3.153058     13.00      69.7230
     200     1 N    7    8.236565    2.830270    5.081412      5.00      14.0067
     201     2 Ga  31    8.256884    4.703133    5.773312     13.00      69.7230
     202     1 N    7    8.344273    4.767269    7.705636      5.00      14.0067
     203     2 Ga  31    8.348593    2.907160    8.391808     13.00      69.7230
     204     1 N    7    8.474946    2.982985   10.324247      5.00      14.0067
     205     2 Ga  31    8.492279    4.861640   10.977601     13.00      69.7230
     206     1 N    7    8.561895    4.915484   12.892733      5.00      14.0067
     207     2 Ga  31    8.626178    3.103006   13.637729     13.00      69.7230
     208     1 N    7    8.189832    2.790904   15.522834      5.00      14.0067
     209     2 Ga  31    7.057040    4.030237   16.686672     13.00      69.7230
     210     1 N    7    8.808238    3.182161   16.891168      5.00      14.0067
     211     1 N    7    6.552743    5.586591   -0.145072      5.00      14.0067
     212     2 Ga  31    6.566709    7.455876    0.525387     13.00      69.7230
     213     1 N    7    6.590254    7.468381    2.447855      5.00      14.0067
     214     2 Ga  31    6.582513    5.603353    3.152011     13.00      69.7230
     215     1 N    7    6.621828    5.623815    5.081012      5.00      14.0067
     216     2 Ga  31    6.646777    7.498682    5.766201     13.00      69.7230
     217     1 N    7    6.735493    7.563179    7.697827      5.00      14.0067
     218     2 Ga  31    6.731212    5.706465    8.385603     13.00      69.7230
     219     1 N    7    6.852318    5.781870   10.319812      5.00      14.0067
     220     2 Ga  31    6.886556    7.657534   10.993484     13.00      69.7230
     221     1 N    7    6.967873    7.724903   12.932579      5.00      14.0067
     222     2 Ga  31    7.016722    5.877389   13.633163     13.00      69.7230
     223     1 N    7    6.546178    5.626177   15.512443      5.00      14.0067
     224     2 Ga  31    5.431332    6.805082   16.723339     13.00      69.7230
     225     1 N    7    7.191296    5.976068   16.879362      5.00      14.0067
     226     1 N    7    4.939178    8.381437   -0.144874      5.00      14.0067
     227     2 Ga  31    4.953441   10.250992    0.525040     13.00      69.7230
     228     1 N    7    4.977092   10.263794    2.447487      5.00      14.0067
     229     2 Ga  31    4.969121    8.400346    3.152828     13.00      69.7230
     230     1 N    7    5.009545    8.421161    5.081592      5.00      14.0067
     231     2 Ga  31    5.031152   10.293621    5.775745     13.00      69.7230
     232     1 N    7    5.118656   10.356968    7.706388      5.00      14.0067
     233     2 Ga  31    5.120356    8.492644    8.381566     13.00      69.7230
     234     1 N    7    5.244575    8.568536   10.316471      5.00      14.0067
     235     2 Ga  31    5.257661   10.449273   10.964386     13.00      69.7230
     236     1 N    7    5.331044   10.501414   12.888600      5.00      14.0067
     237     2 Ga  31    5.393985    8.688073   13.631767     13.00      69.7230
     238     1 N    7    4.893578    8.361490   15.513928      5.00      14.0067
     239     2 Ga  31    3.767630    9.576786   16.716114     13.00      69.7230
     240     1 N    7    5.510703    8.745078   16.898604      5.00      14.0067
     241     3 H    1    0.014991   -0.004664   -1.172849      1.00       1.0079
     242     3 H    1   -1.598705    2.790441   -1.172045      1.00       1.0079
     243     3 H    1   -3.211810    5.585252   -1.173634      1.00       1.0079
     244     3 H    1   -4.826286    8.380714   -1.172122      1.00       1.0079
     245     3 H    1    3.269178   -0.004253   -1.173228      1.00       1.0079
     246     3 H    1    1.655708    2.791019   -1.173224      1.00       1.0079
     247     3 H    1    0.042336    5.585509   -1.173086      1.00       1.0079
     248     3 H    1   -1.571262    8.380529   -1.173735      1.00       1.0079
     249     3 H    1    6.523310   -0.005003   -1.172803      1.00       1.0079
     250     3 H    1    4.909262    2.790590   -1.173327      1.00       1.0079
     251     3 H    1    3.295656    5.585018   -1.172431      1.00       1.0079
     252     3 H    1    1.682236    8.380200   -1.172759      1.00       1.0079
     253     3 H    1    9.777749   -0.004064   -1.172379      1.00       1.0079
     254     3 H    1    8.164398    2.790177   -1.173079      1.00       1.0079
     255     3 H    1    6.549852    5.585991   -1.172770      1.00       1.0079
     256     3 H    1    4.936837    8.380571   -1.172611      1.00       1.0079




 SCF PARAMETERS         Density guess:                                    ATOMIC
                        --------------------------------------------------------
                        max_scf:                                             100
                        max_scf_history:                                       0
                        max_diis:                                              4
                        --------------------------------------------------------
                        eps_scf:                                        5.00E-06
                        eps_scf_history:                                0.00E+00
                        eps_diis:                                       1.00E-01
                        eps_eigval:                                     1.00E-05
                        --------------------------------------------------------
                        level_shift [a.u.]:                                 0.00
                        --------------------------------------------------------
                        Outer loop SCF in use 
                        No variables optimised in outer loop
                        eps_scf                                         5.00E-06
                        max_scf                                                4
                        No outer loop optimization
                        step_size                                       5.00E-01

 PW_GRID| Information for grid number                                          1
 PW_GRID| Grid distributed over                                    80 processors
 PW_GRID| Real space group dimensions                                    80    1
 PW_GRID| the grid is blocked:                                                NO
 PW_GRID| Cutoff [a.u.]                                                    600.0
 PW_GRID| spherical cutoff:                                                   NO
 PW_GRID|   Bounds   1           -144     143                Points:         288
 PW_GRID|   Bounds   2           -144     143                Points:         288
 PW_GRID|   Bounds   3           -337     337                Points:         675
 PW_GRID| Volume element (a.u.^3)  0.5630E-03     Volume (a.u.^3)     31519.8467
 PW_GRID| Grid span                                                    FULLSPACE
 PW_GRID|   Distribution                         Average         Max         Min
 PW_GRID|   G-Vectors                           699840.0      699840      699840
 PW_GRID|   G-Rays                                2430.0        2430        2430
 PW_GRID|   Real Space Points                   699840.0      777600      583200

 PW_GRID| Information for grid number                                          2
 PW_GRID| Grid distributed over                                    80 processors
 PW_GRID| Real space group dimensions                                    80    1
 PW_GRID| the grid is blocked:                                                NO
 PW_GRID| Cutoff [a.u.]                                                    200.0
 PW_GRID| spherical cutoff:                                                   NO
 PW_GRID|   Bounds   1            -80      79                Points:         160
 PW_GRID|   Bounds   2            -80      79                Points:         160
 PW_GRID|   Bounds   3           -200     199                Points:         400
 PW_GRID| Volume element (a.u.^3)  0.3078E-02     Volume (a.u.^3)     31519.8467
 PW_GRID| Grid span                                                    FULLSPACE
 PW_GRID|   Distribution                         Average         Max         Min
 PW_GRID|   G-Vectors                           128000.0      128160      127840
 PW_GRID|   G-Rays                                 800.0         801         799
 PW_GRID|   Real Space Points                   128000.0      128000      128000

 PW_GRID| Information for grid number                                          3
 PW_GRID| Grid distributed over                                    80 processors
 PW_GRID| Real space group dimensions                                    80    1
 PW_GRID| the grid is blocked:                                                NO
 PW_GRID| Cutoff [a.u.]                                                     66.7
 PW_GRID| spherical cutoff:                                                   NO
 PW_GRID|   Bounds   1            -48      47                Points:          96
 PW_GRID|   Bounds   2            -48      47                Points:          96
 PW_GRID|   Bounds   3           -112     112                Points:         225
 PW_GRID| Volume element (a.u.^3)  0.1520E-01     Volume (a.u.^3)     31519.8467
 PW_GRID| Grid span                                                    FULLSPACE
 PW_GRID|   Distribution                         Average         Max         Min
 PW_GRID|   G-Vectors                            25920.0       26688       24864
 PW_GRID|   G-Rays                                 270.0         278         259
 PW_GRID|   Real Space Points                    25920.0       43200       21600

 PW_GRID| Information for grid number                                          4
 PW_GRID| Grid distributed over                                    80 processors
 PW_GRID| Real space group dimensions                                     8   10
 PW_GRID| the grid is blocked:                                                NO
 PW_GRID| Cutoff [a.u.]                                                     22.2
 PW_GRID| spherical cutoff:                                                   NO
 PW_GRID|   Bounds   1            -27      26                Points:          54
 PW_GRID|   Bounds   2            -27      26                Points:          54
 PW_GRID|   Bounds   3            -67      67                Points:         135
 PW_GRID| Volume element (a.u.^3)  0.8007E-01     Volume (a.u.^3)     31519.8467
 PW_GRID| Grid span                                                    FULLSPACE
 PW_GRID|   Distribution                         Average         Max         Min
 PW_GRID|   G-Vectors                             4920.8        5238        4482
 PW_GRID|   G-Rays                                  91.1          97          83
 PW_GRID|   Real Space Points                     4920.8        5670        4050

 PW_GRID| Information for grid number                                          5
 PW_GRID| Grid distributed over                                    80 processors
 PW_GRID| Real space group dimensions                                     8   10
 PW_GRID| the grid is blocked:                                                NO
 PW_GRID| Cutoff [a.u.]                                                      7.4
 PW_GRID| spherical cutoff:                                                   NO
 PW_GRID|   Bounds   1            -16      15                Points:          32
 PW_GRID|   Bounds   2            -16      15                Points:          32
 PW_GRID|   Bounds   3            -37      37                Points:          75
 PW_GRID| Volume element (a.u.^3)  0.4104         Volume (a.u.^3)     31519.8467
 PW_GRID| Grid span                                                    FULLSPACE
 PW_GRID|   Distribution                         Average         Max         Min
 PW_GRID|   G-Vectors                              960.0        1120         576
 PW_GRID|   G-Rays                                  30.0          35          18
 PW_GRID|   Real Space Points                      960.0        1200         900

 POISSON| Solver                                                        PERIODIC
 POISSON| Periodicity                                                        XYZ

 RS_GRID| Information for grid number                                          1
 RS_GRID|   Bounds   1           -144     143                Points:         288
 RS_GRID|   Bounds   2           -144     143                Points:         288
 RS_GRID|   Bounds   3           -337     337                Points:         675
 RS_GRID| Real space distribution over                                  5 groups
 RS_GRID| Real space distribution along direction                              2
 RS_GRID| Border size                                                         79
 RS_GRID| Real space distribution over                                 16 groups
 RS_GRID| Real space distribution along direction                              3
 RS_GRID| Border size                                                         79
 RS_GRID|   Distribution                         Average         Max         Min
 RS_GRID|   Planes                                 215.6         216         215
 RS_GRID|   Distribution                         Average         Max         Min
 RS_GRID|   Planes                                 200.2         201         200

 RS_GRID| Information for grid number                                          2
 RS_GRID|   Bounds   1            -80      79                Points:         160
 RS_GRID|   Bounds   2            -80      79                Points:         160
 RS_GRID|   Bounds   3           -200     199                Points:         400
 RS_GRID| Real space distribution over                                  5 groups
 RS_GRID| Real space distribution along direction                              2
 RS_GRID| Border size                                                         45
 RS_GRID| Real space distribution over                                 16 groups
 RS_GRID| Real space distribution along direction                              3
 RS_GRID| Border size                                                         45
 RS_GRID|   Distribution                         Average         Max         Min
 RS_GRID|   Planes                                 122.0         122         122
 RS_GRID|   Distribution                         Average         Max         Min
 RS_GRID|   Planes                                 115.0         115         115

 RS_GRID| Information for grid number                                          3
 RS_GRID|   Bounds   1            -48      47                Points:          96
 RS_GRID|   Bounds   2            -48      47                Points:          96
 RS_GRID|   Bounds   3           -112     112                Points:         225
 RS_GRID| Real space fully replicated
 RS_GRID| Group size                                                           1

 RS_GRID| Information for grid number                                          4
 RS_GRID|   Bounds   1            -27      26                Points:          54
 RS_GRID|   Bounds   2            -27      26                Points:          54
 RS_GRID|   Bounds   3            -67      67                Points:         135
 RS_GRID| Real space fully replicated
 RS_GRID| Group size                                                           1

 RS_GRID| Information for grid number                                          5
 RS_GRID|   Bounds   1            -16      15                Points:          32
 RS_GRID|   Bounds   2            -16      15                Points:          32
 RS_GRID|   Bounds   3            -37      37                Points:          75
 RS_GRID| Real space fully replicated
 RS_GRID| Group size                                                           1

 CELL_OPT| Pressure tolerance [bar]:                                       500.0
 CELL_OPT| Keep angles between the cell vectors:                             YES
 CELL_OPT| Keep cell symmetry:                                               YES
 CELL_OPT| Constraint:                                                         Z

 BFGS| Use rational function optimization for step estimation:                NO
 BFGS| Use model Hessian for initial guess:                                   NO
 BFGS| Restart Hessian:                                                       NO
 BFGS| Trust radius:                                                       0.472

 *******************************************************************************
 ***                     STARTING   CELL   OPTIMIZATION                      ***
 ***                                   BFGS                                  ***
 *******************************************************************************

 CELL| Volume [angstrom^3]:                                             4656.618
 CELL| Vector a [angstrom]:      13.016     0.000     0.000    |a| =      13.016
 CELL| Vector b [angstrom]:      -6.455    11.180     0.000    |b| =      12.909
 CELL| Vector c [angstrom]:       0.000     0.000    32.000    |c| =      32.000
 CELL| Angle (b,c), alpha [degree]:                                       90.000
 CELL| Angle (a,c), beta  [degree]:                                       90.000
 CELL| Angle (a,b), gamma [degree]:                                      120.000
 CELL| Numerically orthorhombic:                                              NO

 -------------------------------------------------------------------------------
 ----                             MULTIGRID INFO                            ----
 -------------------------------------------------------------------------------
 count for grid        1:         331200          cutoff [a.u.]          600.00
 count for grid        2:        1048800          cutoff [a.u.]          200.00
 count for grid        3:         676400          cutoff [a.u.]           66.67
 count for grid        4:         444000          cutoff [a.u.]           22.22
 count for grid        5:         222000          cutoff [a.u.]            7.41
 total gridlevel count  :        2722400

 PW_GRID| Information for grid number                                          6
 PW_GRID| Grid distributed over                                    80 processors
 PW_GRID| Real space group dimensions                                    80    1
 PW_GRID| the grid is blocked:                                                NO
 PW_GRID| Cutoff [a.u.]                                                    600.0
 PW_GRID| spherical cutoff:                                                   NO
 PW_GRID|   Bounds   1           -144     143                Points:         288
 PW_GRID|   Bounds   2           -144     143                Points:         288
 PW_GRID|   Bounds   3           -337     337                Points:         675
 PW_GRID| Volume element (a.u.^3)  0.5630E-03     Volume (a.u.^3)     31519.8467
 PW_GRID| Grid span                                                    FULLSPACE
 PW_GRID|   Distribution                         Average         Max         Min
 PW_GRID|   G-Vectors                           699840.0      699840      699840
 PW_GRID|   G-Rays                                2430.0        2430        2430
 PW_GRID|   Real Space Points                   699840.0      777600      583200

 PW_GRID| Information for grid number                                          7
 PW_GRID| Grid distributed over                                    80 processors
 PW_GRID| Real space group dimensions                                    80    1
 PW_GRID| the grid is blocked:                                                NO
 PW_GRID| Cutoff [a.u.]                                                    200.0
 PW_GRID| spherical cutoff:                                                   NO
 PW_GRID|   Bounds   1            -80      79                Points:         160
 PW_GRID|   Bounds   2            -80      79                Points:         160
 PW_GRID|   Bounds   3           -200     199                Points:         400
 PW_GRID| Volume element (a.u.^3)  0.3078E-02     Volume (a.u.^3)     31519.8467
 PW_GRID| Grid span                                                    FULLSPACE
 PW_GRID|   Distribution                         Average         Max         Min
 PW_GRID|   G-Vectors                           128000.0      128160      127840
 PW_GRID|   G-Rays                                 800.0         801         799
 PW_GRID|   Real Space Points                   128000.0      128000      128000

 PW_GRID| Information for grid number                                          8
 PW_GRID| Grid distributed over                                    80 processors
 PW_GRID| Real space group dimensions                                    80    1
 PW_GRID| the grid is blocked:                                                NO
 PW_GRID| Cutoff [a.u.]                                                     66.7
 PW_GRID| spherical cutoff:                                                   NO
[...]
 flops    25 x     5 x    64         208531648000     100.0%      0.0%      0.0%
 flops  1134 x    32 x   197         239797200384     100.0%      0.0%      0.0%
 flops  1138 x    32 x   197         240643045888     100.0%      0.0%      0.0%
 flops  1134 x    32 x   209         254404136448     100.0%      0.0%      0.0%
 flops  1138 x    32 x   209         255301505536     100.0%      0.0%      0.0%
 flops   256 x    32 x    32         310747594752     100.0%      0.0%      0.0%
 flops   288 x    32 x   233         325758246912     100.0%      0.0%      0.0%
 flops   256 x    32 x   197         367235334144     100.0%      0.0%      0.0%
 flops     5 x    32 x    13         386314019520     100.0%      0.0%      0.0%
 flops    13 x    32 x     5         386314019520     100.0%      0.0%      0.0%
 flops   256 x    32 x   209         389604999168     100.0%      0.0%      0.0%
 flops  1134 x    32 x    32         418667139072     100.0%      0.0%      0.0%
 flops  1138 x    32 x    32         420143919104     100.0%      0.0%      0.0%
 flops   288 x    64 x    32         432827006976     100.0%      0.0%      0.0%
 flops   288 x    32 x    64         432827006976     100.0%      0.0%      0.0%
 flops  1136 x    32 x   197         480440246272     100.0%      0.0%      0.0%
 flops  1136 x    32 x   209         509705641984     100.0%      0.0%      0.0%
 flops   288 x    64 x   197         511506358272     100.0%      0.0%      0.0%
 flops   288 x    64 x   209         542664105984     100.0%      0.0%      0.0%
 flops  1134 x    32 x   233         567236017152     100.0%      0.0%      0.0%
 flops  1138 x    32 x   233         569236849664     100.0%      0.0%      0.0%
 flops    13 x    13 x    32         585869147136     100.0%      0.0%      0.0%
 flops  1136 x    32 x    32         838811058176     100.0%      0.0%      0.0%
 flops   256 x    32 x   233         868688658432     100.0%      0.0%      0.0%
 flops  1134 x    64 x   197         890675315712     100.0%      0.0%      0.0%
 flops  1138 x    64 x   197         893817027584     100.0%      0.0%      0.0%
 flops  1134 x    64 x   209         944929649664     100.0%      0.0%      0.0%
 flops  1138 x    64 x   209         948262734848     100.0%      0.0%      0.0%
 flops     5 x    32 x    25         997653624000     100.0%      0.0%      0.0%
 flops    25 x    32 x     5         997653624000     100.0%      0.0%      0.0%
 flops    13 x    25 x    32        1100506825600     100.0%      0.0%      0.0%
 flops    25 x    13 x    32        1102112211200     100.0%      0.0%      0.0%
 flops  1136 x    32 x   233        1136472866816     100.0%      0.0%      0.0%
 flops   256 x    32 x    64        1154205351936     100.0%      0.0%      0.0%
 flops   256 x    64 x    32        1154205351936     100.0%      0.0%      0.0%
 flops   288 x    64 x   233        1209959202816     100.0%      0.0%      0.0%
 flops   256 x    64 x   197        1364016955392     100.0%      0.0%      0.0%
 flops   256 x    64 x   209        1447104282624     100.0%      0.0%      0.0%
 flops  1134 x    32 x    64        1555049373696     100.0%      0.0%      0.0%
 flops  1134 x    64 x    32        1555049373696     100.0%      0.0%      0.0%
 flops  1138 x    32 x    64        1560534556672     100.0%      0.0%      0.0%
 flops  1138 x    64 x    32        1560534556672     100.0%      0.0%      0.0%
 flops   288 x    64 x    64        1607643168768     100.0%      0.0%      0.0%
 flops  1136 x    64 x   197        1784492343296     100.0%      0.0%      0.0%
 flops  1136 x    64 x   209        1893192384512     100.0%      0.0%      0.0%
 flops    25 x    25 x    32        2008507200000     100.0%      0.0%      0.0%
 flops  1134 x    64 x   233        2106876635136     100.0%      0.0%      0.0%
 flops  1138 x    64 x   233        2114308298752     100.0%      0.0%      0.0%
 flops    13 x    13 x    64        2176085403648     100.0%      0.0%      0.0%
 flops  1136 x    64 x    32        3115583930368     100.0%      0.0%      0.0%
 flops  1136 x    32 x    64        3115583930368     100.0%      0.0%      0.0%
 flops   256 x    64 x   233        3226557874176     100.0%      0.0%      0.0%
 flops    13 x    25 x    64        4087596780800     100.0%      0.0%      0.0%
 flops    25 x    13 x    64        4093559641600     100.0%      0.0%      0.0%
 flops  1136 x    64 x   233        4221184933888     100.0%      0.0%      0.0%
 flops   256 x    64 x    64        4287048450048     100.0%      0.0%      0.0%
 flops  1134 x    64 x    64        5775897673728     100.0%      0.0%      0.0%
 flops  1138 x    64 x    64        5796271210496     100.0%      0.0%      0.0%
 flops    25 x    25 x    64        7460169600000     100.0%      0.0%      0.0%
 flops    13 x    32 x    13       10481222129664     100.0%      0.0%      0.0%
 flops  1136 x    64 x    64       11572168884224     100.0%      0.0%      0.0%
 flops    25 x    32 x    13       19889897227200     100.0%      0.0%      0.0%
 flops    13 x    32 x    25       19889897227200     100.0%      0.0%      0.0%
 flops    25 x    32 x    25       35950128720000     100.0%      0.0%      0.0%
 flops inhomo. stacks              56615655038976     100.0%      0.0%      0.0%
 flops total                       246.355352E+12     100.0%      0.0%      0.0%
 flops max/rank                      3.749043E+12     100.0%      0.0%      0.0%
 matmuls inhomo. stacks                   3750720     100.0%      0.0%      0.0%
 matmuls total                         4925599836     100.0%      0.0%      0.0%
 number of processed stacks              60352020     100.0%      0.0%      0.0%
 average stack size                                    81.6       0.0       0.0
 marketing flops                   271.918607E+12
 -------------------------------------------------------------------------------
 # multiplications                          15043
 max memory usage/rank               1.385816E+09
 # max total images/rank                        5
 # max 3D layers                                1
 # MPI messages exchanged               137192160
 MPI messages size (bytes):
  total size                        22.958437E+12
  min size                           0.000000E+00
  max size                           2.448976E+06
  average size                     167.345109E+03
 MPI breakdown and total messages size (bytes):
             size <=      128              947720                        0
       128 < size <=     8192             7186655              58873077760
      8192 < size <=    32768            51438985            1248444514304
     32768 < size <=   131072            56970322            5395175046144
    131072 < size <=  4194304            20648478           16246507066016
   4194304 < size <= 16777216                   0                        0
  16777216 < size                               0                        0
 -------------------------------------------------------------------------------

 *** WARNING in dbcsr/mm/dbcsr_mm.F:268 :: Using a non-square number of ***
 *** MPI ranks might lead to poor performance.                          ***
 *** Used ranks: 80                                                     ***
 *** Suggested: 81 169                                                  ***

 -------------------------------------------------------------------------------
 
 MEMORY| Estimated peak process memory [MiB]                                1353

 -------------------------------------------------------------------------------
 ----                             MULTIGRID INFO                            ----
 -------------------------------------------------------------------------------
 count for grid        1:         338244          cutoff [a.u.]          600.00
 count for grid        2:        1254850          cutoff [a.u.]          200.00
 count for grid        3:         890440          cutoff [a.u.]           66.67
 count for grid        4:         811336          cutoff [a.u.]           22.22
 count for grid        5:         584516          cutoff [a.u.]            7.41
 total gridlevel count  :        3879386

 -------------------------------------------------------------------------------
 -                                                                             -
 -                         MESSAGE PASSING PERFORMANCE                         -
 -                                                                             -
 -------------------------------------------------------------------------------

 ROUTINE             CALLS      AVE VOLUME [Bytes]
 MP_Group             1648
 MP_Bcast            29717                   8969.
 MP_Allreduce       161908                   1541.
 MP_Sync               924
 MP_Alltoall         84316                6042356.
 MP_SendRecv         16748                   6895.
 MP_ISendRecv       397212                 133520.
 MP_Wait           3376511
 MP_comm_split         654
 MP_ISend          3873208                 137927.
 MP_IRecv          3872010                 137327.
 MP_Recv              1248                 198144.
 MP_Memory         1687178
 -------------------------------------------------------------------------------


 -------------------------------------------------------------------------------
 -                                                                             -
 -                           R E F E R E N C E S                               -
 -                                                                             -
 -------------------------------------------------------------------------------
 
 CP2K version 7.0 (Development Version), the CP2K developers group (2018).
 CP2K is freely available from https://www.cp2k.org/ .

 Schuett, Ole; Messmer, Peter; Hutter, Juerg; VandeVondele, Joost. 
 Electronic Structure Calculations on Graphics Processing Units, John Wiley & Sons, Ltd, 173-190 (2016). 
 GPU-Accelerated Sparse Matrix-Matrix Multiplication for Linear Scaling Density Functional Theory.
 http://dx.doi.org/10.1002/9781118670712.ch8


 Borstnik, U; VandeVondele, J; Weber, V; Hutter, J. 
 PARALLEL COMPUTING, 40 (5-6), 47-58 (2014). 
 Sparse matrix multiplication: The distributed block-compressed sparse
 row library.
 http://dx.doi.org/10.1016/j.parco.2014.03.012


 Hutter, J; Iannuzzi, M; Schiffmann, F; VandeVondele, J. 
 WILEY INTERDISCIPLINARY REVIEWS-COMPUTATIONAL MOLECULAR SCIENCE, 4 (1), 15-25 (2014). 
 CP2K: atomistic simulations of condensed matter systems.
 http://dx.doi.org/10.1002/wcms.1159


 Grimme, S; Ehrlich, S; Goerigk, L. 
 JOURNAL OF COMPUTATIONAL CHEMISTRY, 32, 1456 (2011). 
 Effect of the damping function in dispersion corrected density functional theory.
 http://dx.doi.org/10.1002/jcc.21759


 Grimme, S; Antony, J; Ehrlich, S; Krieg, H. 
 JOURNAL OF CHEMICAL PHYSICS, 132 (15), 154104 (2010). 
 A consistent and accurate ab initio parametrization of density
 functional dispersion correction (DFT-D) for the 94 elements H-Pu.
 http://dx.doi.org/10.1063/1.3382344


 VandeVondele, J; Hutter, J. 
 JOURNAL OF CHEMICAL PHYSICS, 127 (11), 114105 (2007). 
 Gaussian basis sets for accurate calculations on molecular systems in
 gas and condensed phases.
 http://dx.doi.org/10.1063/1.2770708


 Krack, M. 
 THEORETICAL CHEMISTRY ACCOUNTS, 114 (1-3), 145-152 (2005). 
 Pseudopotentials for H to Kr optimized for gradient-corrected
 exchange-correlation functionals.
 http://dx.doi.org/10.1007/s00214-005-0655-y


 VandeVondele, J; Krack, M; Mohamed, F; Parrinello, M; Chassaing, T;
 Hutter, J. COMPUTER PHYSICS COMMUNICATIONS, 167 (2), 103-128 (2005). 
 QUICKSTEP: Fast and accurate density functional calculations using a
 mixed Gaussian and plane waves approach.
 http://dx.doi.org/10.1016/j.cpc.2004.12.014


 Frigo, M; Johnson, SG. 
 PROCEEDINGS OF THE IEEE, 93 (2), 216-231 (2005). 
 The design and implementation of FFTW3.
 http://dx.doi.org/10.1109/JPROC.2004.840301


 Kolafa, J. 
 JOURNAL OF COMPUTATIONAL CHEMISTRY, 25 (3), 335-342 (2004). 
 Time-reversible always stable predictor-corrector method for molecular dynamics of polarizable molecules.
 http://dx.doi.org/10.1002/jcc.10385


 VandeVondele, J; Hutter, J. 
 JOURNAL OF CHEMICAL PHYSICS, 118 (10), 4365-4369 (2003). 
 An efficient orbital transformation method for electronic structure
 calculations.
 http://dx.doi.org/10.1063/1.1543154


 Hartwigsen, C; Goedecker, S; Hutter, J. 
 PHYSICAL REVIEW B, 58 (7), 3641-3662 (1998). 
 Relativistic separable dual-space Gaussian pseudopotentials from H to Rn.
 http://dx.doi.org/10.1103/PhysRevB.58.3641


 Lippert, G; Hutter, J; Parrinello, M. 
 MOLECULAR PHYSICS, 92 (3), 477-487 (1997). 
 A hybrid Gaussian and plane wave density functional scheme.
 http://dx.doi.org/10.1080/002689797170220


 Perdew, JP; Burke, K; Ernzerhof, M. 
 PHYSICAL REVIEW LETTERS, 77 (18), 3865-3868 (1996). 
 Generalized gradient approximation made simple.
 http://dx.doi.org/10.1103/PhysRevLett.77.3865


 Goedecker, S; Teter, M; Hutter, J. 
 PHYSICAL REVIEW B, 54 (3), 1703-1710 (1996). 
 Separable dual-space Gaussian pseudopotentials.
 http://dx.doi.org/10.1103/PhysRevB.54.1703


 -------------------------------------------------------------------------------
 -                                                                             -
 -                                T I M I N G                                  -
 -                                                                             -
 -------------------------------------------------------------------------------
 SUBROUTINE                       CALLS  ASD         SELF TIME        TOTAL TIME
                                MAXIMUM       AVERAGE  MAXIMUM  AVERAGE  MAXIMUM
 CP2K                                 1  1.0    0.048    0.081 9636.327 9636.350
 cp_cell_opt                          1  2.0    0.030    0.042 9635.354 9635.367
 geoopt_bfgs                          1  3.0    0.022    0.097 9635.325 9635.335
 cp_eval_at                          54  4.0    0.056    0.112 9592.787 9592.803
 qs_forces                           53  5.0    0.081    0.167 9524.707 9524.729
 qs_energies                         54  6.0    0.092    0.189 8793.097 8793.204
 scf_env_do_scf                      54  7.0    0.017    0.056 8247.024 8247.069
 scf_env_do_scf_inner_loop         1028  8.0    0.052    0.112 7422.864 7422.897
 rebuild_ks_matrix                 1081  9.8    0.005    0.010 4015.147 4016.590
 qs_ks_build_kohn_sham_matrix      1081 10.8    0.239    0.591 4015.142 4016.586
 qs_ks_update_qs_env               1086  9.0    0.009    0.020 3393.517 3394.828
 qs_rho_update_rho                 1082  9.0    0.007    0.009 3276.315 3280.470
 calculate_rho_elec                1082 10.0 1709.617 1746.932 3276.308 3280.461
 sum_up_and_integrate               594 11.7    4.562    5.226 2176.947 2178.821
 integrate_v_rspace                 594 12.7 1235.045 1268.900 2172.384 2174.765
 pw_transfer                      18972 13.3    2.043    2.285 1865.232 1883.413
 fft_wrap_pw1pw2                  16810 14.3    0.196    0.220 1849.159 1867.343
 fft_wrap_pw1pw2_600              10106 15.6  108.939  121.586 1726.033 1743.950
 rs_pw_transfer                    8595 12.9    0.120    0.144 1692.502 1718.162
 fft3d_ps                         16810 16.3  517.119  573.210 1588.722 1602.503
 density_rs2pw                     1082 11.0    0.078    0.095 1421.963 1461.375
 dbcsr_multiply_generic           15043 13.7    1.113    1.723 1444.055 1449.380
 mp_waitall_1                   3062615 16.7 1295.486 1400.277 1295.486 1400.277
 qs_scf_new_mos                    1028  9.0    0.008    0.011 1261.656 1264.096
 qs_scf_loop_do_ot                 1028 10.0    0.029    0.070 1261.648 1264.088
 qs_vxc_create                     1081 11.8    0.030    0.044 1214.332 1214.913
 ot_scf_mini                       1028 11.0    0.073    0.116 1154.864 1156.459
 multiply_cannon                  15043 14.7    5.067    5.385 1105.024 1133.110
 mp_alltoall_z22v                 16810 18.3  926.787 1018.489  926.787 1018.489
 xc_vxc_pw_create                   594 12.7   28.149   32.404  877.025  877.372
 mp_waitany                      313896 14.8  773.855  868.710  773.855  868.710
 init_scf_loop                       58  8.0    0.005    0.014  823.050  823.067
 potential_pw2rs                    594 13.7    0.466    0.536  744.266  746.091
 multiply_cannon_metrocomm3      300860 15.7    0.866    0.953  634.858  729.021
 xc_rho_set_and_dset_create        1081 13.8    5.117    5.508  675.136  692.520
 x_to_yz                           7782 17.8   86.658   97.969  637.190  666.431
 rs_pw_transfer_RS2PW_600          1190 12.9  222.389  245.935  638.353  664.451
 qs_ks_update_qs_env_forces          53  6.0    0.000    0.001  629.028  629.288
 ot_mini                           1028 12.0    0.006    0.019  607.635  609.674
 prepare_preconditioner              58  9.0    0.001    0.001  475.539  475.932
 yz_to_x                           5676 16.8   46.364   49.232  421.845  466.638
 make_preconditioner                 58 10.0    0.003    0.014  436.706  436.813
 rs_pw_transfer_PW2RS_600           701 15.1  152.228  161.353  426.211  432.542
 make_full_all                       58 11.0    0.028    0.069  406.246  406.332
 qs_ot_get_derivative               541 13.0    0.007    0.020  382.397  384.215
 xc_exc_calc                        487 13.0    2.368    2.689  337.277  337.563
 cp_fm_syevd                        654 13.4    0.006    0.016  330.684  332.890
 cp_fm_redistribute_end             654 14.4   77.981  317.483   79.467  318.551
 cp_fm_syevd_base                   654 14.2  238.305  311.196  238.305  311.196
 init_scf_run                        54  7.0    0.002    0.006  307.608  307.626
 scf_env_initial_rho_setup           54  8.0    0.003    0.015  307.606  307.625
 wfi_extrapolate                     54  9.0    0.017    0.042  303.323  303.352
 multiply_cannon_metrocomm1      300860 15.7    1.003    1.093  223.802  282.398
 mp_alltoall_d11v                 16426 15.1  245.035  277.524  245.035  277.524
 calc_dipsurf_potential            1081 11.8   20.668   22.772  257.012  266.677
 rs_distribute_matrix              1729 12.0    2.657    4.970  229.669  260.016
 apply_preconditioner_dbcsr         599 14.0    0.002    0.003  250.439  251.242
 apply_all                          599 15.0    0.088    0.121  250.438  251.241
 mp_sum_d                         27119 14.6  191.198  248.242  191.198  248.242
 rs_pw_transfer_RS2PW_200          1082 13.0   34.475   37.256  186.933  240.408
 qs_ot_get_p                       1086 11.9    0.019    0.092  228.041  232.285
 ot_new_cg_direction                541 13.0    0.010    0.032  221.417  221.496
 make_m2s                         30086 14.7    0.933    1.014  211.185  220.883
 rs_pw_transfer_RS2PW_70           1082 13.0   14.600   15.402  159.379  220.014
 make_images                      30086 15.7    1.477    1.603  203.572  212.916
 -------------------------------------------------------------------------------

 The number of warnings for this run is : 1
 
 -------------------------------------------------------------------------------
  **** **** ******  **  PROGRAM ENDED AT                 2019-06-11 00:38:37.326
 ***** ** ***  *** **   PROGRAM RAN ON            blg8112.int.ets1.calculquebec.
 **    ****   ******    PROGRAM RAN BY                                       rzk
 ***** **    ** ** **   PROGRAM PROCESS ID                                112698
  **** **  *******  **  PROGRAM STOPPED IN /lustre03/project/6037349/rzk/GaN-car
                                           bene/444-addat/00-Surface/RKS
[1560227918.037129] [blg8112:112710:0]          mpool.c:38   UCX  WARN  object 0x6415ec0 was not returned to mpool ucp_requests
[1560227918.059412] [blg8133:229688:0]          mpool.c:38   UCX  WARN  object 0x6c8a580 was not returned to mpool ucp_requests
