 DBCSR| Multiplication driver                                               BLAS
 DBCSR| Multrec recursion limit                                              512
 DBCSR| Multiplication stack size                                           1000
 DBCSR| Maximum elements for images                                    UNLIMITED
 DBCSR| Multiplicative factor virtual images                                   1
 DBCSR| Multiplication size stacks                                             3
 DBCSR| Number of 3D layers                                               SINGLE
 DBCSR| Use MPI memory allocation                                              T
 DBCSR| Use RMA algorithm                                                      F
 DBCSR| Use Communication thread                                               T
 DBCSR| Communication thread load                                             87


  **** **** ******  **  PROGRAM STARTED AT               2019-06-10 08:18:29.125
 ***** ** ***  *** **   PROGRAM STARTED ON        blg8230.int.ets1.calculquebec.
 **    ****   ******    PROGRAM STARTED BY                                   rzk
 ***** **    ** ** **   PROGRAM PROCESS ID                                390501
  **** **  *******  **  PROGRAM STARTED IN /lustre03/project/6037349/rzk/GaN-car
                                           bene/444-addat/00-Surface/RKS

 CP2K| version string:                    CP2K version 7.0 (Development Version)
 CP2K| source code revision number:                                    svn:18619
 CP2K| cp2kflags: libint fftw3 libxc parallel mpi3 scalapack mkl                
 CP2K| is freely available from                            https://www.cp2k.org/
 CP2K| Program compiled at                          Sun Apr  7 00:48:11 EDT 2019
 CP2K| Program compiled on                      beluga2.int.ets1.calculquebec.ca
 CP2K| Program compiled for                    Beluga-Linux-x86-64-intel-openmpi
 CP2K| Data directory path    /home/rzk/projects/def-rzk/group/cp2k/cp2k-mcgill/
 CP2K| Input file name                                                 start.inp
 
 GLOBAL| Force Environment number                                              1
 GLOBAL| Basis set file name                                        BASIS_MOLOPT
 GLOBAL| Potential file name                                      GTH_POTENTIALS
 GLOBAL| MM Potential file name                                     MM_POTENTIAL
 GLOBAL| Coordinate file name                                      __STD_INPUT__
 GLOBAL| Method name                                                        CP2K
 GLOBAL| Project name                                                       TEST
 GLOBAL| Preferred FFT library                                             FFTW3
 GLOBAL| Preferred diagonalization lib.                                       SL
 GLOBAL| Run type                                                       CELL_OPT
 GLOBAL| All-to-all communication in single precision                          F
 GLOBAL| FFTs using library dependent lengths                                  F
 GLOBAL| Global print level                                               MEDIUM
 GLOBAL| MPI I/O enabled                                                       T
 GLOBAL| Total number of message passing processes                            80
 GLOBAL| Number of threads for this process                                    1
 GLOBAL| This output is from process                                           0
 GLOBAL| CPU model name :  Intel(R) Xeon(R) Gold 6148 CPU @ 2.40GHz

 MEMORY| system memory details [Kb]
 MEMORY|                        rank 0           min           max       average
 MEMORY| MemTotal            196614300      97523924     196614300     147069112
 MEMORY| MemFree             178263992      85590000     178263992     131951140
 MEMORY| Buffers                    76            76            76            76
 MEMORY| Cached                1444088       1444088       1554572       1499330
 MEMORY| Slab                  1140916        918364       1140916       1029640
 MEMORY| SReclaimable           109056        109056        153152        131104
 MEMORY| MemLikelyFree       179817212      87297800     179817212     133581650


 *** Fundamental physical constants (SI units) ***

 *** Literature: B. J. Mohr and B. N. Taylor,
 ***             CODATA recommended values of the fundamental physical
 ***             constants: 2006, Web Version 5.1
 ***             http://physics.nist.gov/constants

 Speed of light in vacuum [m/s]                             2.99792458000000E+08
 Magnetic constant or permeability of vacuum [N/A**2]       1.25663706143592E-06
 Electric constant or permittivity of vacuum [F/m]          8.85418781762039E-12
 Planck constant (h) [J*s]                                  6.62606896000000E-34
 Planck constant (h-bar) [J*s]                              1.05457162825177E-34
 Elementary charge [C]                                      1.60217648700000E-19
 Electron mass [kg]                                         9.10938215000000E-31
 Electron g factor [ ]                                     -2.00231930436220E+00
 Proton mass [kg]                                           1.67262163700000E-27
 Fine-structure constant                                    7.29735253760000E-03
 Rydberg constant [1/m]                                     1.09737315685270E+07
 Avogadro constant [1/mol]                                  6.02214179000000E+23
 Boltzmann constant [J/K]                                   1.38065040000000E-23
 Atomic mass unit [kg]                                      1.66053878200000E-27
 Bohr radius [m]                                            5.29177208590000E-11

 *** Conversion factors ***

 [u] -> [a.u.]                                              1.82288848426455E+03
 [Angstrom] -> [Bohr] = [a.u.]                              1.88972613288564E+00
 [a.u.] = [Bohr] -> [Angstrom]                              5.29177208590000E-01
 [a.u.] -> [s]                                              2.41888432650478E-17
 [a.u.] -> [fs]                                             2.41888432650478E-02
 [a.u.] -> [J]                                              4.35974393937059E-18
 [a.u.] -> [N]                                              8.23872205491840E-08
 [a.u.] -> [K]                                              3.15774647902944E+05
 [a.u.] -> [kJ/mol]                                         2.62549961709828E+03
 [a.u.] -> [kcal/mol]                                       6.27509468713739E+02
 [a.u.] -> [Pa]                                             2.94210107994716E+13
 [a.u.] -> [bar]                                            2.94210107994716E+08
 [a.u.] -> [atm]                                            2.90362800883016E+08
 [a.u.] -> [eV]                                             2.72113838565563E+01
 [a.u.] -> [Hz]                                             6.57968392072181E+15
 [a.u.] -> [1/cm] (wave numbers)                            2.19474631370540E+05
 [a.u./Bohr**2] -> [1/cm]                                   5.14048714338585E+03
 

 CELL_TOP| Volume [angstrom^3]:                                         4670.759
 CELL_TOP| Vector a [angstrom    12.982     0.000     0.000    |a| =      12.982
 CELL_TOP| Vector b [angstrom    -6.491    11.243     0.000    |b| =      12.982
 CELL_TOP| Vector c [angstrom     0.000     0.000    32.000    |c| =      32.000
 CELL_TOP| Angle (b,c), alpha [degree]:                                   90.000
 CELL_TOP| Angle (a,c), beta  [degree]:                                   90.000
 CELL_TOP| Angle (a,b), gamma [degree]:                                  120.000
 CELL_TOP| Numerically orthorhombic:                                          NO
 
 GENERATE|  Preliminary Number of Bonds generated:                             0
 GENERATE|  Achieved consistency in connectivity generation.

 CELL| Volume [angstrom^3]:                                             4670.759
 CELL| Vector a [angstrom]:      12.982     0.000     0.000    |a| =      12.982
 CELL| Vector b [angstrom]:      -6.491    11.243     0.000    |b| =      12.982
 CELL| Vector c [angstrom]:       0.000     0.000    32.000    |c| =      32.000
 CELL| Angle (b,c), alpha [degree]:                                       90.000
 CELL| Angle (a,c), beta  [degree]:                                       90.000
 CELL| Angle (a,b), gamma [degree]:                                      120.000
 CELL| Numerically orthorhombic:                                              NO

 CELL_REF| Volume [angstrom^3]:                                         4670.759
 CELL_REF| Vector a [angstrom    12.982     0.000     0.000    |a| =      12.982
 CELL_REF| Vector b [angstrom    -6.491    11.243     0.000    |b| =      12.982
 CELL_REF| Vector c [angstrom     0.000     0.000    32.000    |c| =      32.000
 CELL_REF| Angle (b,c), alpha [degree]:                                   90.000
 CELL_REF| Angle (a,c), beta  [degree]:                                   90.000
 CELL_REF| Angle (a,b), gamma [degree]:                                  120.000
 CELL_REF| Numerically orthorhombic:                                          NO

 *******************************************************************************
 *******************************************************************************
 **                                                                           **
 **     #####                         ##              ##                      **
 **    ##   ##            ##          ##              ##                      **
 **   ##     ##                       ##            ######                    **
 **   ##     ##  ##   ##  ##   #####  ##  ##   ####   ##    #####    #####    **
 **   ##     ##  ##   ##  ##  ##      ## ##   ##      ##   ##   ##  ##   ##   **
 **   ##  ## ##  ##   ##  ##  ##      ####     ###    ##   ######   ######    **
 **    ##  ###   ##   ##  ##  ##      ## ##      ##   ##   ##       ##        **
 **     #######   #####   ##   #####  ##  ##  ####    ##    #####   ##        **
 **           ##                                                    ##        **
 **                                                                           **
 **                                                ... make the atoms dance   **
 **                                                                           **
 **            Copyright (C) by CP2K developers group (2000 - 2018)           **
 **                                                                           **
 *******************************************************************************

 DFT| Spin restricted Kohn-Sham (RKS) calculation                            RKS
 DFT| Multiplicity                                                             1
 DFT| Number of spin states                                                    1
 DFT| Charge                                                                   0
 DFT| Self-interaction correction (SIC)                                       NO
 DFT| Cutoffs: density                                              1.000000E-10
 DFT|          gradient                                             1.000000E-10
 DFT|          tau                                                  1.000000E-10
 DFT|          cutoff_smoothing_range                               0.000000E+00
 DFT| XC density smoothing                                                  NONE
 DFT| XC derivatives                                                          PW
 FUNCTIONAL| ROUTINE=NEW
 FUNCTIONAL| PBE:
 FUNCTIONAL| J.P.Perdew, K.Burke, M.Ernzerhof, Phys. Rev. Letter, vol. 77, n 18,
 FUNCTIONAL|  pp. 3865-3868, (1996){spin unpolarized}                           
 vdW POTENTIAL|                                                   Pair Potential
 vdW POTENTIAL|          DFT-D3 (Version 3.1)
 vdW POTENTIAL|          Potential Form: S. Grimme et al, JCP 132: 154104 (2010)
 vdW POTENTIAL|          Zero Damping
 vdW POTENTIAL|          Cutoff Radius [Bohr]:                             18.90
 vdW POTENTIAL|          s6 Scaling Factor:                               1.0000
 vdW POTENTIAL|          sr6 Scaling Factor:                              1.2170
 vdW POTENTIAL|          s8 Scaling Factor:                               0.7220
 vdW POTENTIAL|          Cutoff for CN calculation:                   0.1000E-05

 QS| Method:                                                                 GPW
 QS| Density plane wave grid type                        NON-SPHERICAL FULLSPACE
 QS| Number of grid levels:                                                    5
 QS| Density cutoff [a.u.]:                                                600.0
 QS| Multi grid cutoff [a.u.]: 1) grid level                               600.0
 QS|                           2) grid level                               200.0
 QS|                           3) grid level                                66.7
 QS|                           4) grid level                                22.2
 QS|                           5) grid level                                 7.4
 QS| Grid level progression factor:                                          3.0
 QS| Relative density cutoff [a.u.]:                                        20.0
 QS| Consistent realspace mapping and integration 
 QS| Interaction thresholds: eps_pgf_orb:                                1.0E-07
 QS|                         eps_filter_matrix:                          0.0E+00
 QS|                         eps_core_charge:                            1.0E-16
 QS|                         eps_rho_gspace:                             1.0E-14
 QS|                         eps_rho_rspace:                             1.0E-14
 QS|                         eps_gvg_rspace:                             1.0E-07
 QS|                         eps_ppl:                                    1.0E-02
 QS|                         eps_ppnl:                                   1.0E-09


 ATOMIC KIND INFORMATION

  1. Atomic kind: N                                     Number of atoms:     128

     Orbital Basis Set                                        DZVP-MOLOPT-SR-GTH

       Number of orbital shell sets:                                           1
       Number of orbital shells:                                               5
       Number of primitive Cartesian functions:                                5
       Number of Cartesian basis functions:                                   14
       Number of spherical basis functions:                                   13
       Norm type:                                                              2

       Normalised Cartesian orbitals:

                        Set   Shell   Orbital            Exponent    Coefficient

                          1       1    2s                7.341988       0.360561
                                                         2.542637       0.139177
                                                         0.888575      -0.289383
                                                         0.333802      -0.182244
                                                         0.112012      -0.019197

                          1       2    3s                7.341988       0.282000
                                                         2.542637       0.177875
                                                         0.888575      -0.278381
                                                         0.333802       0.008577
                                                         0.112012       0.154176

                          1       3    3px               7.341988      -1.188719
                                                         2.542637      -0.973969
                                                         0.888575      -0.501079
                                                         0.333802      -0.144894
                                                         0.112012      -0.013986
                          1       3    3py               7.341988      -1.188719
                                                         2.542637      -0.973969
                                                         0.888575      -0.501079
                                                         0.333802      -0.144894
                                                         0.112012      -0.013986
                          1       3    3pz               7.341988      -1.188719
                                                         2.542637      -0.973969
                                                         0.888575      -0.501079
                                                         0.333802      -0.144894
                                                         0.112012      -0.013986

                          1       4    4px               7.341988      -0.094798
                                                         2.542637       0.050069
                                                         0.888575      -0.114797
                                                         0.333802       0.144793
                                                         0.112012       0.066710
                          1       4    4py               7.341988      -0.094798
                                                         2.542637       0.050069
                                                         0.888575      -0.114797
                                                         0.333802       0.144793
                                                         0.112012       0.066710
                          1       4    4pz               7.341988      -0.094798
                                                         2.542637       0.050069
                                                         0.888575      -0.114797
                                                         0.333802       0.144793
                                                         0.112012       0.066710

                          1       5    4dx2              7.341988       1.354688
                                                         2.542637       0.690378
                                                         0.888575       0.855359
                                                         0.333802       0.091746
                                                         0.112012       0.001253
                          1       5    4dxy              7.341988       2.346389
                                                         2.542637       1.195770
                                                         0.888575       1.481524
                                                         0.333802       0.158910
                                                         0.112012       0.002169
                          1       5    4dxz              7.341988       2.346389
                                                         2.542637       1.195770
                                                         0.888575       1.481524
                                                         0.333802       0.158910
                                                         0.112012       0.002169
                          1       5    4dy2              7.341988       1.354688
                                                         2.542637       0.690378
                                                         0.888575       0.855359
                                                         0.333802       0.091746
                                                         0.112012       0.001253
                          1       5    4dyz              7.341988       2.346389
                                                         2.542637       1.195770
                                                         0.888575       1.481524
                                                         0.333802       0.158910
                                                         0.112012       0.002169
                          1       5    4dz2              7.341988       1.354688
                                                         2.542637       0.690378
                                                         0.888575       0.855359
                                                         0.333802       0.091746
                                                         0.112012       0.001253

     GTH Potential information for                                    GTH-PBE-q5

       Description:                       Goedecker-Teter-Hutter pseudopotential
                                           Goedecker et al., PRB 54, 1703 (1996)
                                          Hartwigsen et al., PRB 58, 3641 (1998)
                                                      Krack, TCA 114, 145 (2005)

       Gaussian exponent of the core charge distribution:               6.208322
       Electronic configuration (s p d ...):                               2   3

       Parameters of the local part of the GTH pseudopotential:

                          rloc        C1          C2          C3          C4
                        0.283791  -12.415226    1.868096

       Parameters of the non-local part of the GTH pseudopotential:

                   l      r(l)      h(i,j,l)

                   0    0.255405   13.630263
                   1    0.245495

  2. Atomic kind: Ga                                    Number of atoms:     112

     Orbital Basis Set                                        DZVP-MOLOPT-SR-GTH

       Number of orbital shell sets:                                           1
       Number of orbital shells:                                               7
       Number of primitive Cartesian functions:                                6
       Number of Cartesian basis functions:                                   30
       Number of spherical basis functions:                                   25
       Norm type:                                                              2

       Normalised Cartesian orbitals:

                        Set   Shell   Orbital            Exponent    Coefficient

                          1       1    2s                7.066654       0.013136
                                                         3.428369      -0.094392
                                                         1.430064       0.265435
                                                         0.571611       0.056465
                                                         0.232197      -0.192187
                                                         0.076562      -0.044987

                          1       2    3s                7.066654      -0.098564
                                                         3.428369       0.010390
                                                         1.430064       0.351249
                                                         0.571611       0.182615
                                                         0.232197      -0.425358
                                                         0.076562       0.190349

                          1       3    3px               7.066654       0.002364
                                                         3.428369       0.019222
                                                         1.430064       0.250132
                                                         0.571611      -0.058486
                                                         0.232197      -0.159451
                                                         0.076562      -0.020696
                          1       3    3py               7.066654       0.002364
                                                         3.428369       0.019222
                                                         1.430064       0.250132
                                                         0.571611      -0.058486
                                                         0.232197      -0.159451
                                                         0.076562      -0.020696
                          1       3    3pz               7.066654       0.002364
                                                         3.428369       0.019222
                                                         1.430064       0.250132
                                                         0.571611      -0.058486
                                                         0.232197      -0.159451
                                                         0.076562      -0.020696

                          1       4    4px               7.066654       0.492448
                                                         3.428369      -0.614736
                                                         1.430064      -0.191654
                                                         0.571611       0.037801
                                                         0.232197       0.302315
                                                         0.076562      -0.071336
                          1       4    4py               7.066654       0.492448
                                                         3.428369      -0.614736
                                                         1.430064      -0.191654
                                                         0.571611       0.037801
                                                         0.232197       0.302315
                                                         0.076562      -0.071336
                          1       4    4pz               7.066654       0.492448
                                                         3.428369      -0.614736
                                                         1.430064      -0.191654
                                                         0.571611       0.037801
                                                         0.232197       0.302315
                                                         0.076562      -0.071336

                          1       5    4dx2              7.066654     -15.264855
                                                         3.428369      -5.345726
                                                         1.430064      -1.022732
                                                         0.571611      -0.123148
                                                         0.232197      -0.006983
                                                         0.076562      -0.000022
                          1       5    4dxy              7.066654     -26.439504
                                                         3.428369      -9.259069
                                                         1.430064      -1.771423
                                                         0.571611      -0.213299
                                                         0.232197      -0.012094
                                                         0.076562      -0.000037
                          1       5    4dxz              7.066654     -26.439504
                                                         3.428369      -9.259069
                                                         1.430064      -1.771423
                                                         0.571611      -0.213299
                                                         0.232197      -0.012094
                                                         0.076562      -0.000037
                          1       5    4dy2              7.066654     -15.264855
                                                         3.428369      -5.345726
                                                         1.430064      -1.022732
                                                         0.571611      -0.123148
                                                         0.232197      -0.006983
                                                         0.076562      -0.000022
                          1       5    4dyz              7.066654     -26.439504
                                                         3.428369      -9.259069
                                                         1.430064      -1.771423
                                                         0.571611      -0.213299
                                                         0.232197      -0.012094
                                                         0.076562      -0.000037
                          1       5    4dz2              7.066654     -15.264855
                                                         3.428369      -5.345726
                                                         1.430064      -1.022732
                                                         0.571611      -0.123148
                                                         0.232197      -0.006983
                                                         0.076562      -0.000022

                          1       6    5dx2              7.066654      -5.739265
                                                         3.428369      -2.129289
                                                         1.430064      -0.700423
                                                         0.571611       0.161606
                                                         0.232197       0.043513
                                                         0.076562       0.011205
                          1       6    5dxy              7.066654      -9.940698
                                                         3.428369      -3.688037
                                                         1.430064      -1.213168
                                                         0.571611       0.279909
                                                         0.232197       0.075368
                                                         0.076562       0.019407
                          1       6    5dxz              7.066654      -9.940698
                                                         3.428369      -3.688037
                                                         1.430064      -1.213168
                                                         0.571611       0.279909
                                                         0.232197       0.075368
                                                         0.076562       0.019407
                          1       6    5dy2              7.066654      -5.739265
                                                         3.428369      -2.129289
                                                         1.430064      -0.700423
                                                         0.571611       0.161606
                                                         0.232197       0.043513
                                                         0.076562       0.011205
                          1       6    5dyz              7.066654      -9.940698
                                                         3.428369      -3.688037
                                                         1.430064      -1.213168
                                                         0.571611       0.279909
                                                         0.232197       0.075368
                                                         0.076562       0.019407
                          1       6    5dz2              7.066654      -5.739265
                                                         3.428369      -2.129289
                                                         1.430064      -0.700423
                                                         0.571611       0.161606
                                                         0.232197       0.043513
                                                         0.076562       0.011205

                          1       7    5fx3              7.066654       0.705879
                                                         3.428369      -0.273976
                                                         1.430064       0.113667
                                                         0.571611       0.132480
                                                         0.232197       0.012437
                                                         0.076562       0.003241
                          1       7    5fx2y             7.066654       1.578393
                                                         3.428369      -0.612629
                                                         1.430064       0.254167
                                                         0.571611       0.296234
                                                         0.232197       0.027811
                                                         0.076562       0.007246
                          1       7    5fx2z             7.066654       1.578393
                                                         3.428369      -0.612629
                                                         1.430064       0.254167
                                                         0.571611       0.296234
                                                         0.232197       0.027811
                                                         0.076562       0.007246
                          1       7    5fxy2             7.066654       1.578393
                                                         3.428369      -0.612629
                                                         1.430064       0.254167
                                                         0.571611       0.296234
                                                         0.232197       0.027811
                                                         0.076562       0.007246
                          1       7    5fxyz             7.066654       2.733856
                                                         3.428369      -1.061105
                                                         1.430064       0.440230
                                                         0.571611       0.513092
                                                         0.232197       0.048170
                                                         0.076562       0.012551
                          1       7    5fxz2             7.066654       1.578393
                                                         3.428369      -0.612629
                                                         1.430064       0.254167
                                                         0.571611       0.296234
                                                         0.232197       0.027811
                                                         0.076562       0.007246
                          1       7    5fy3              7.066654       0.705879
                                                         3.428369      -0.273976
                                                         1.430064       0.113667
                                                         0.571611       0.132480
                                                         0.232197       0.012437
                                                         0.076562       0.003241
                          1       7    5fy2z             7.066654       1.578393
                                                         3.428369      -0.612629
                                                         1.430064       0.254167
                                                         0.571611       0.296234
                                                         0.232197       0.027811
                                                         0.076562       0.007246
                          1       7    5fyz2             7.066654       1.578393
                                                         3.428369      -0.612629
                                                         1.430064       0.254167
                                                         0.571611       0.296234
                                                         0.232197       0.027811
                                                         0.076562       0.007246
                          1       7    5fz3              7.066654       0.705879
                                                         3.428369      -0.273976
                                                         1.430064       0.113667
                                                         0.571611       0.132480
                                                         0.232197       0.012437
                                                         0.076562       0.003241

     GTH Potential information for                                   GTH-PBE-q13

       Description:                       Goedecker-Teter-Hutter pseudopotential
                                           Goedecker et al., PRB 54, 1703 (1996)
                                          Hartwigsen et al., PRB 58, 3641 (1998)
                                                      Krack, TCA 114, 145 (2005)

       Gaussian exponent of the core charge distribution:               2.082466
       Electronic configuration (s p d ...):                           2   1  10

       Parameters of the local part of the GTH pseudopotential:

                          rloc        C1          C2          C3          C4
                        0.490000

       Parameters of the non-local part of the GTH pseudopotential:

                   l      r(l)      h(i,j,l)

                   0    0.416777   10.475690   -4.921768    0.870706
                                   -4.921768    7.770178   -2.248152
                                    0.870706   -2.248152    1.784415
                   1    0.569627    1.777985    0.195860
                                    0.195860   -0.231744
                   2    0.238126  -16.248680

  3. Atomic kind: H                                     Number of atoms:      16

     Orbital Basis Set                                     DZVP-MOLOPT-SR-GTH-q1

       Number of orbital shell sets:                                           1
       Number of orbital shells:                                               3
       Number of primitive Cartesian functions:                                5
       Number of Cartesian basis functions:                                    5
       Number of spherical basis functions:                                    5
       Norm type:                                                              2

       Normalised Cartesian orbitals:

                        Set   Shell   Orbital            Exponent    Coefficient

                          1       1    2s               10.068468      -0.133023
                                                         2.680223      -0.177618
                                                         0.791502      -0.258419
                                                         0.239116      -0.107525
                                                         0.082193      -0.014019

                          1       2    3s               10.068468       0.344673
                                                         2.680223       1.819821
                                                         0.791502      -0.999069
                                                         0.239116       0.017430
                                                         0.082193       0.082660

                          1       3    3px              10.068468       0.155326
                                                         2.680223       0.367157
                                                         0.791502       0.311480
                                                         0.239116       0.080105
                                                         0.082193       0.033440
                          1       3    3py              10.068468       0.155326
                                                         2.680223       0.367157
                                                         0.791502       0.311480
                                                         0.239116       0.080105
                                                         0.082193       0.033440
                          1       3    3pz              10.068468       0.155326
                                                         2.680223       0.367157
                                                         0.791502       0.311480
                                                         0.239116       0.080105
                                                         0.082193       0.033440

     GTH Potential information for                                    GTH-PBE-q1

       Description:                       Goedecker-Teter-Hutter pseudopotential
                                           Goedecker et al., PRB 54, 1703 (1996)
                                          Hartwigsen et al., PRB 58, 3641 (1998)
                                                      Krack, TCA 114, 145 (2005)

       Gaussian exponent of the core charge distribution:              12.500000
       Electronic configuration (s p d ...):                                   1

       Parameters of the local part of the GTH pseudopotential:

                          rloc        C1          C2          C3          C4
                        0.200000   -4.178900    0.724463


 MOLECULE KIND INFORMATION


 All atoms are their own molecule, skipping detailed information


 TOTAL NUMBERS AND MAXIMUM NUMBERS

  Total number of            - Atomic kinds:                                   3
                             - Atoms:                                        256
                             - Shell sets:                                   256
                             - Shells:                                      1472
                             - Primitive Cartesian functions:               1392
                             - Cartesian basis functions:                   5232
                             - Spherical basis functions:                   4544

  Maximum angular momentum of- Orbital basis functions:                        3
                             - Local part of the GTH pseudopotential:          2
                             - Non-local part of the GTH pseudopotential:      4


 MODULE QUICKSTEP:  ATOMIC COORDINATES IN angstrom

  Atom  Kind  Element       X           Y           Z          Z(eff)       Mass

       1     1 N    7    0.000000    0.000000    0.000000      5.00      14.0067
       2     2 Ga  31   -0.000043    1.873848    0.619416     13.00      69.7230
       3     1 N    7   -0.000043    1.873848    2.593000      5.00      14.0067
       4     2 Ga  31    0.000000    0.000000    3.212416     13.00      69.7230
       5     1 N    7    0.000000    0.000000    5.186000      5.00      14.0067
       6     2 Ga  31   -0.000043    1.873848    5.805416     13.00      69.7230
       7     1 N    7   -0.000043    1.873848    7.779000      5.00      14.0067
       8     2 Ga  31    0.000000    0.000000    8.398416     13.00      69.7230
       9     1 N    7    0.000000    0.000000   10.372000      5.00      14.0067
      10     2 Ga  31   -0.000043    1.873848   10.991416     13.00      69.7230
      11     1 N    7   -0.000043    1.873848   12.965000      5.00      14.0067
      12     2 Ga  31    0.000000    0.000000   13.584416     13.00      69.7230
      13     1 N    7    0.000000    0.000000   15.558000      5.00      14.0067
      14     2 Ga  31   -0.000043    1.873848   16.177416     13.00      69.7230
      15     1 N    7    1.599692    0.950253   16.872293      5.00      14.0067
      16     1 N    7   -1.622800    2.810772    0.000000      5.00      14.0067
      17     2 Ga  31   -1.622865    4.684658    0.619416     13.00      69.7230
      18     1 N    7   -1.622865    4.684658    2.593000      5.00      14.0067
      19     2 Ga  31   -1.622800    2.810772    3.212416     13.00      69.7230
      20     1 N    7   -1.622800    2.810772    5.186000      5.00      14.0067
      21     2 Ga  31   -1.622865    4.684658    5.805416     13.00      69.7230
      22     1 N    7   -1.622865    4.684658    7.779000      5.00      14.0067
      23     2 Ga  31   -1.622800    2.810772    8.398416     13.00      69.7230
      24     1 N    7   -1.622800    2.810772   10.372000      5.00      14.0067
      25     2 Ga  31   -1.622865    4.684658   10.991416     13.00      69.7230
      26     1 N    7   -1.622865    4.684658   12.965000      5.00      14.0067
      27     2 Ga  31   -1.622800    2.810772   13.584416     13.00      69.7230
      28     1 N    7   -1.622800    2.810772   15.558000      5.00      14.0067
      29     2 Ga  31   -1.622865    4.684658   16.177416     13.00      69.7230
      30     1 N    7   -0.023136    3.761054   16.872296      5.00      14.0067
      31     1 N    7   -3.245600    5.621544    0.000000      5.00      14.0067
      32     2 Ga  31   -3.245643    7.495392    0.619416     13.00      69.7230
      33     1 N    7   -3.245643    7.495392    2.593000      5.00      14.0067
      34     2 Ga  31   -3.245600    5.621544    3.212416     13.00      69.7230
      35     1 N    7   -3.245600    5.621544    5.186000      5.00      14.0067
      36     2 Ga  31   -3.245643    7.495392    5.805416     13.00      69.7230
      37     1 N    7   -3.245643    7.495392    7.779000      5.00      14.0067
      38     2 Ga  31   -3.245600    5.621544    8.398416     13.00      69.7230
      39     1 N    7   -3.245600    5.621544   10.372000      5.00      14.0067
      40     2 Ga  31   -3.245643    7.495392   10.991416     13.00      69.7230
      41     1 N    7   -3.245643    7.495392   12.965000      5.00      14.0067
      42     2 Ga  31   -3.245600    5.621544   13.584416     13.00      69.7230
      43     1 N    7   -3.245600    5.621544   15.558000      5.00      14.0067
      44     2 Ga  31   -3.245643    7.495392   16.177416     13.00      69.7230
      45     1 N    7   -1.645908    6.571797   16.872293      5.00      14.0067
      46     1 N    7   -4.868400    8.432316    0.000000      5.00      14.0067
      47     2 Ga  31   -4.868465   10.306202    0.619416     13.00      69.7230
      48     1 N    7   -4.868465   10.306202    2.593000      5.00      14.0067
      49     2 Ga  31   -4.868400    8.432316    3.212416     13.00      69.7230
      50     1 N    7   -4.868400    8.432316    5.186000      5.00      14.0067
      51     2 Ga  31   -4.868465   10.306202    5.805416     13.00      69.7230
      52     1 N    7   -4.868465   10.306202    7.779000      5.00      14.0067
      53     2 Ga  31   -4.868400    8.432316    8.398416     13.00      69.7230
      54     1 N    7   -4.868400    8.432316   10.372000      5.00      14.0067
      55     2 Ga  31   -4.868465   10.306202   10.991416     13.00      69.7230
      56     1 N    7   -4.868465   10.306202   12.965000      5.00      14.0067
      57     2 Ga  31   -4.868400    8.432316   13.584416     13.00      69.7230
      58     1 N    7   -4.868400    8.432316   15.558000      5.00      14.0067
      59     2 Ga  31   -4.868465   10.306202   16.177416     13.00      69.7230
      60     1 N    7   -3.268736    9.382598   16.872296      5.00      14.0067
      61     1 N    7    3.245600    0.000000    0.000000      5.00      14.0067
      62     2 Ga  31    3.245600    1.873848    0.619416     13.00      69.7230
      63     1 N    7    3.245600    1.873848    2.593000      5.00      14.0067
      64     2 Ga  31    3.245600    0.000000    3.212416     13.00      69.7230
      65     1 N    7    3.245600    0.000000    5.186000      5.00      14.0067
      66     2 Ga  31    3.245600    1.873848    5.805416     13.00      69.7230
      67     1 N    7    3.245600    1.873848    7.779000      5.00      14.0067
      68     2 Ga  31    3.245600    0.000000    8.398416     13.00      69.7230
      69     1 N    7    3.245600    0.000000   10.372000      5.00      14.0067
      70     2 Ga  31    3.245600    1.873848   10.991416     13.00      69.7230
      71     1 N    7    3.245600    1.873848   12.965000      5.00      14.0067
      72     2 Ga  31    3.245600    0.000000   13.584416     13.00      69.7230
      73     1 N    7    3.245600    0.000000   15.558000      5.00      14.0067
      74     2 Ga  31    3.245600    1.873848   16.177416     13.00      69.7230
      75     1 N    7    4.845331    0.950243   16.872290      5.00      14.0067
      76     1 N    7    1.622800    2.810772    0.000000      5.00      14.0067
      77     2 Ga  31    1.622778    4.684658    0.619416     13.00      69.7230
      78     1 N    7    1.622778    4.684658    2.593000      5.00      14.0067
      79     2 Ga  31    1.622800    2.810772    3.212416     13.00      69.7230
      80     1 N    7    1.622800    2.810772    5.186000      5.00      14.0067
      81     2 Ga  31    1.622778    4.684658    5.805416     13.00      69.7230
      82     1 N    7    1.622778    4.684658    7.779000      5.00      14.0067
      83     2 Ga  31    1.622800    2.810772    8.398416     13.00      69.7230
      84     1 N    7    1.622800    2.810772   10.372000      5.00      14.0067
      85     2 Ga  31    1.622778    4.684658   10.991416     13.00      69.7230
      86     1 N    7    1.622778    4.684658   12.965000      5.00      14.0067
      87     2 Ga  31    1.622800    2.810772   13.584416     13.00      69.7230
      88     1 N    7    1.622800    2.810772   15.558000      5.00      14.0067
      89     2 Ga  31    1.622778    4.684658   16.177416     13.00      69.7230
      90     1 N    7    3.222503    3.761044   16.872293      5.00      14.0067
      91     1 N    7    0.000000    5.621544    0.000000      5.00      14.0067
      92     2 Ga  31    0.000000    7.495392    0.619416     13.00      69.7230
      93     1 N    7    0.000000    7.495392    2.593000      5.00      14.0067
      94     2 Ga  31    0.000000    5.621544    3.212416     13.00      69.7230
      95     1 N    7    0.000000    5.621544    5.186000      5.00      14.0067
      96     2 Ga  31    0.000000    7.495392    5.805416     13.00      69.7230
      97     1 N    7    0.000000    7.495392    7.779000      5.00      14.0067
      98     2 Ga  31    0.000000    5.621544    8.398416     13.00      69.7230
      99     1 N    7    0.000000    5.621544   10.372000      5.00      14.0067
     100     2 Ga  31    0.000000    7.495392   10.991416     13.00      69.7230
     101     1 N    7    0.000000    7.495392   12.965000      5.00      14.0067
     102     2 Ga  31    0.000000    5.621544   13.584416     13.00      69.7230
     103     1 N    7    0.000000    5.621544   15.558000      5.00      14.0067
     104     2 Ga  31    0.000000    7.495392   16.177416     13.00      69.7230
     105     1 N    7    1.599731    6.571787   16.872290      5.00      14.0067
     106     1 N    7   -1.622800    8.432316    0.000000      5.00      14.0067
     107     2 Ga  31   -1.622822   10.306202    0.619416     13.00      69.7230
     108     1 N    7   -1.622822   10.306202    2.593000      5.00      14.0067
     109     2 Ga  31   -1.622800    8.432316    3.212416     13.00      69.7230
     110     1 N    7   -1.622800    8.432316    5.186000      5.00      14.0067
     111     2 Ga  31   -1.622822   10.306202    5.805416     13.00      69.7230
     112     1 N    7   -1.622822   10.306202    7.779000      5.00      14.0067
     113     2 Ga  31   -1.622800    8.432316    8.398416     13.00      69.7230
     114     1 N    7   -1.622800    8.432316   10.372000      5.00      14.0067
     115     2 Ga  31   -1.622822   10.306202   10.991416     13.00      69.7230
     116     1 N    7   -1.622822   10.306202   12.965000      5.00      14.0067
     117     2 Ga  31   -1.622800    8.432316   13.584416     13.00      69.7230
     118     1 N    7   -1.622800    8.432316   15.558000      5.00      14.0067
     119     2 Ga  31   -1.622822   10.306202   16.177416     13.00      69.7230
     120     1 N    7   -0.023097    9.382588   16.872293      5.00      14.0067
     121     1 N    7    6.491200    0.000000    0.000000      5.00      14.0067
     122     2 Ga  31    6.491157    1.873848    0.619416     13.00      69.7230
     123     1 N    7    6.491157    1.873848    2.593000      5.00      14.0067
     124     2 Ga  31    6.491200    0.000000    3.212416     13.00      69.7230
     125     1 N    7    6.491200    0.000000    5.186000      5.00      14.0067
     126     2 Ga  31    6.491157    1.873848    5.805416     13.00      69.7230
     127     1 N    7    6.491157    1.873848    7.779000      5.00      14.0067
     128     2 Ga  31    6.491200    0.000000    8.398416     13.00      69.7230
     129     1 N    7    6.491200    0.000000   10.372000      5.00      14.0067
     130     2 Ga  31    6.491157    1.873848   10.991416     13.00      69.7230
     131     1 N    7    6.491157    1.873848   12.965000      5.00      14.0067
     132     2 Ga  31    6.491200    0.000000   13.584416     13.00      69.7230
     133     1 N    7    6.491200    0.000000   15.558000      5.00      14.0067
     134     2 Ga  31    6.491157    1.873848   16.177416     13.00      69.7230
     135     1 N    7    8.090892    0.950253   16.872293      5.00      14.0067
     136     1 N    7    4.868400    2.810772    0.000000      5.00      14.0067
     137     2 Ga  31    4.868335    4.684658    0.619416     13.00      69.7230
     138     1 N    7    4.868335    4.684658    2.593000      5.00      14.0067
     139     2 Ga  31    4.868400    2.810772    3.212416     13.00      69.7230
     140     1 N    7    4.868400    2.810772    5.186000      5.00      14.0067
     141     2 Ga  31    4.868335    4.684658    5.805416     13.00      69.7230
     142     1 N    7    4.868335    4.684658    7.779000      5.00      14.0067
     143     2 Ga  31    4.868400    2.810772    8.398416     13.00      69.7230
     144     1 N    7    4.868400    2.810772   10.372000      5.00      14.0067
     145     2 Ga  31    4.868335    4.684658   10.991416     13.00      69.7230
     146     1 N    7    4.868335    4.684658   12.965000      5.00      14.0067
     147     2 Ga  31    4.868400    2.810772   13.584416     13.00      69.7230
     148     1 N    7    4.868400    2.810772   15.558000      5.00      14.0067
     149     2 Ga  31    4.868335    4.684658   16.177416     13.00      69.7230
     150     1 N    7    6.468064    3.761054   16.872296      5.00      14.0067
     151     1 N    7    3.245600    5.621544    0.000000      5.00      14.0067
     152     2 Ga  31    3.245557    7.495392    0.619416     13.00      69.7230
     153     1 N    7    3.245557    7.495392    2.593000      5.00      14.0067
     154     2 Ga  31    3.245600    5.621544    3.212416     13.00      69.7230
     155     1 N    7    3.245600    5.621544    5.186000      5.00      14.0067
     156     2 Ga  31    3.245557    7.495392    5.805416     13.00      69.7230
     157     1 N    7    3.245557    7.495392    7.779000      5.00      14.0067
     158     2 Ga  31    3.245600    5.621544    8.398416     13.00      69.7230
     159     1 N    7    3.245600    5.621544   10.372000      5.00      14.0067
     160     2 Ga  31    3.245557    7.495392   10.991416     13.00      69.7230
     161     1 N    7    3.245557    7.495392   12.965000      5.00      14.0067
     162     2 Ga  31    3.245600    5.621544   13.584416     13.00      69.7230
     163     1 N    7    3.245600    5.621544   15.558000      5.00      14.0067
     164     2 Ga  31    3.245557    7.495392   16.177416     13.00      69.7230
     165     1 N    7    4.845292    6.571797   16.872293      5.00      14.0067
     166     1 N    7    1.622800    8.432316    0.000000      5.00      14.0067
     167     2 Ga  31    1.622735   10.306202    0.619416     13.00      69.7230
     168     1 N    7    1.622735   10.306202    2.593000      5.00      14.0067
     169     2 Ga  31    1.622800    8.432316    3.212416     13.00      69.7230
     170     1 N    7    1.622800    8.432316    5.186000      5.00      14.0067
     171     2 Ga  31    1.622735   10.306202    5.805416     13.00      69.7230
     172     1 N    7    1.622735   10.306202    7.779000      5.00      14.0067
     173     2 Ga  31    1.622800    8.432316    8.398416     13.00      69.7230
     174     1 N    7    1.622800    8.432316   10.372000      5.00      14.0067
     175     2 Ga  31    1.622735   10.306202   10.991416     13.00      69.7230
     176     1 N    7    1.622735   10.306202   12.965000      5.00      14.0067
     177     2 Ga  31    1.622800    8.432316   13.584416     13.00      69.7230
     178     1 N    7    1.622800    8.432316   15.558000      5.00      14.0067
     179     2 Ga  31    1.622735   10.306202   16.177416     13.00      69.7230
     180     1 N    7    3.222464    9.382598   16.872296      5.00      14.0067
     181     1 N    7    9.736800    0.000000    0.000000      5.00      14.0067
     182     2 Ga  31    9.736800    1.873848    0.619416     13.00      69.7230
     183     1 N    7    9.736800    1.873848    2.593000      5.00      14.0067
     184     2 Ga  31    9.736800    0.000000    3.212416     13.00      69.7230
     185     1 N    7    9.736800    0.000000    5.186000      5.00      14.0067
     186     2 Ga  31    9.736800    1.873848    5.805416     13.00      69.7230
     187     1 N    7    9.736800    1.873848    7.779000      5.00      14.0067
     188     2 Ga  31    9.736800    0.000000    8.398416     13.00      69.7230
     189     1 N    7    9.736800    0.000000   10.372000      5.00      14.0067
     190     2 Ga  31    9.736800    1.873848   10.991416     13.00      69.7230
     191     1 N    7    9.736800    1.873848   12.965000      5.00      14.0067
     192     2 Ga  31    9.736800    0.000000   13.584416     13.00      69.7230
     193     1 N    7    9.736800    0.000000   15.558000      5.00      14.0067
     194     2 Ga  31    9.736800    1.873848   16.177416     13.00      69.7230
     195     1 N    7   11.336533    0.950242   16.872282      5.00      14.0067
     196     1 N    7    8.114000    2.810772    0.000000      5.00      14.0067
     197     2 Ga  31    8.113978    4.684658    0.619416     13.00      69.7230
     198     1 N    7    8.113978    4.684658    2.593000      5.00      14.0067
     199     2 Ga  31    8.114000    2.810772    3.212416     13.00      69.7230
     200     1 N    7    8.114000    2.810772    5.186000      5.00      14.0067
     201     2 Ga  31    8.113978    4.684658    5.805416     13.00      69.7230
     202     1 N    7    8.113978    4.684658    7.779000      5.00      14.0067
     203     2 Ga  31    8.114000    2.810772    8.398416     13.00      69.7230
     204     1 N    7    8.114000    2.810772   10.372000      5.00      14.0067
     205     2 Ga  31    8.113978    4.684658   10.991416     13.00      69.7230
     206     1 N    7    8.113978    4.684658   12.965000      5.00      14.0067
     207     2 Ga  31    8.114000    2.810772   13.584416     13.00      69.7230
     208     1 N    7    8.114000    2.810772   15.558000      5.00      14.0067
     209     2 Ga  31    8.113978    4.684658   16.177416     13.00      69.7230
     210     1 N    7    9.713719    3.761072   16.872293      5.00      14.0067
     211     1 N    7    6.491200    5.621544    0.000000      5.00      14.0067
     212     2 Ga  31    6.491200    7.495392    0.619416     13.00      69.7230
     213     1 N    7    6.491200    7.495392    2.593000      5.00      14.0067
     214     2 Ga  31    6.491200    5.621544    3.212416     13.00      69.7230
     215     1 N    7    6.491200    5.621544    5.186000      5.00      14.0067
     216     2 Ga  31    6.491200    7.495392    5.805416     13.00      69.7230
     217     1 N    7    6.491200    7.495392    7.779000      5.00      14.0067
     218     2 Ga  31    6.491200    5.621544    8.398416     13.00      69.7230
     219     1 N    7    6.491200    5.621544   10.372000      5.00      14.0067
     220     2 Ga  31    6.491200    7.495392   10.991416     13.00      69.7230
     221     1 N    7    6.491200    7.495392   12.965000      5.00      14.0067
     222     2 Ga  31    6.491200    5.621544   13.584416     13.00      69.7230
     223     1 N    7    6.491200    5.621544   15.558000      5.00      14.0067
     224     2 Ga  31    6.491200    7.495392   16.177416     13.00      69.7230
     225     1 N    7    8.090933    6.571786   16.872282      5.00      14.0067
     226     1 N    7    4.868400    8.432316    0.000000      5.00      14.0067
     227     2 Ga  31    4.868378   10.306202    0.619416     13.00      69.7230
     228     1 N    7    4.868378   10.306202    2.593000      5.00      14.0067
     229     2 Ga  31    4.868400    8.432316    3.212416     13.00      69.7230
     230     1 N    7    4.868400    8.432316    5.186000      5.00      14.0067
     231     2 Ga  31    4.868378   10.306202    5.805416     13.00      69.7230
     232     1 N    7    4.868378   10.306202    7.779000      5.00      14.0067
     233     2 Ga  31    4.868400    8.432316    8.398416     13.00      69.7230
     234     1 N    7    4.868400    8.432316   10.372000      5.00      14.0067
     235     2 Ga  31    4.868378   10.306202   10.991416     13.00      69.7230
     236     1 N    7    4.868378   10.306202   12.965000      5.00      14.0067
     237     2 Ga  31    4.868400    8.432316   13.584416     13.00      69.7230
     238     1 N    7    4.868400    8.432316   15.558000      5.00      14.0067
     239     2 Ga  31    4.868378   10.306202   16.177416     13.00      69.7230
     240     1 N    7    6.448482    9.367965   16.897152      5.00      14.0067
     241     3 H    1    0.000000    0.000000   -1.000000      1.00       1.0079
     242     3 H    1   -1.622800    2.810772   -1.000000      1.00       1.0079
     243     3 H    1   -3.245600    5.621544   -1.000000      1.00       1.0079
     244     3 H    1   -4.868400    8.432316   -1.000000      1.00       1.0079
     245     3 H    1    3.245600    0.000000   -1.000000      1.00       1.0079
     246     3 H    1    1.622800    2.810772   -1.000000      1.00       1.0079
     247     3 H    1    0.000000    5.621544   -1.000000      1.00       1.0079
     248     3 H    1   -1.622800    8.432316   -1.000000      1.00       1.0079
     249     3 H    1    6.491200    0.000000   -1.000000      1.00       1.0079
     250     3 H    1    4.868400    2.810772   -1.000000      1.00       1.0079
     251     3 H    1    3.245600    5.621544   -1.000000      1.00       1.0079
     252     3 H    1    1.622800    8.432316   -1.000000      1.00       1.0079
     253     3 H    1    9.736800    0.000000   -1.000000      1.00       1.0079
     254     3 H    1    8.114000    2.810772   -1.000000      1.00       1.0079
     255     3 H    1    6.491200    5.621544   -1.000000      1.00       1.0079
     256     3 H    1    4.868400    8.432316   -1.000000      1.00       1.0079




 SCF PARAMETERS         Density guess:                                    ATOMIC
                        --------------------------------------------------------
                        max_scf:                                             100
                        max_scf_history:                                       0
                        max_diis:                                              4
                        --------------------------------------------------------
                        eps_scf:                                        5.00E-06
                        eps_scf_history:                                0.00E+00
                        eps_diis:                                       1.00E-01
                        eps_eigval:                                     1.00E-05
                        --------------------------------------------------------
                        level_shift [a.u.]:                                 0.00
                        --------------------------------------------------------
                        Outer loop SCF in use 
                        No variables optimised in outer loop
                        eps_scf                                         5.00E-06
                        max_scf                                                4
                        No outer loop optimization
                        step_size                                       5.00E-01

 PW_GRID| Information for grid number                                          1
 PW_GRID| Grid distributed over                                    80 processors
 PW_GRID| Real space group dimensions                                    80    1
 PW_GRID| the grid is blocked:                                                NO
 PW_GRID| Cutoff [a.u.]                                                    600.0
 PW_GRID| spherical cutoff:                                                   NO
 PW_GRID|   Bounds   1           -144     143                Points:         288
 PW_GRID|   Bounds   2           -144     143                Points:         288
 PW_GRID|   Bounds   3           -337     337                Points:         675
 PW_GRID| Volume element (a.u.^3)  0.5630E-03     Volume (a.u.^3)     31519.8467
 PW_GRID| Grid span                                                    FULLSPACE
 PW_GRID|   Distribution                         Average         Max         Min
 PW_GRID|   G-Vectors                           699840.0      699840      699840
 PW_GRID|   G-Rays                                2430.0        2430        2430
 PW_GRID|   Real Space Points                   699840.0      777600      583200

 PW_GRID| Information for grid number                                          2
 PW_GRID| Grid distributed over                                    80 processors
 PW_GRID| Real space group dimensions                                    80    1
 PW_GRID| the grid is blocked:                                                NO
 PW_GRID| Cutoff [a.u.]                                                    200.0
 PW_GRID| spherical cutoff:                                                   NO
 PW_GRID|   Bounds   1            -80      79                Points:         160
 PW_GRID|   Bounds   2            -80      79                Points:         160
 PW_GRID|   Bounds   3           -200     199                Points:         400
 PW_GRID| Volume element (a.u.^3)  0.3078E-02     Volume (a.u.^3)     31519.8467
 PW_GRID| Grid span                                                    FULLSPACE
 PW_GRID|   Distribution                         Average         Max         Min
 PW_GRID|   G-Vectors                           128000.0      128160      127840
 PW_GRID|   G-Rays                                 800.0         801         799
 PW_GRID|   Real Space Points                   128000.0      128000      128000

 PW_GRID| Information for grid number                                          3
 PW_GRID| Grid distributed over                                    80 processors
 PW_GRID| Real space group dimensions                                    80    1
 PW_GRID| the grid is blocked:                                                NO
 PW_GRID| Cutoff [a.u.]                                                     66.7
 PW_GRID| spherical cutoff:                                                   NO
 PW_GRID|   Bounds   1            -48      47                Points:          96
 PW_GRID|   Bounds   2            -48      47                Points:          96
 PW_GRID|   Bounds   3           -112     112                Points:         225
 PW_GRID| Volume element (a.u.^3)  0.1520E-01     Volume (a.u.^3)     31519.8467
 PW_GRID| Grid span                                                    FULLSPACE
 PW_GRID|   Distribution                         Average         Max         Min
 PW_GRID|   G-Vectors                            25920.0       26688       24864
 PW_GRID|   G-Rays                                 270.0         278         259
 PW_GRID|   Real Space Points                    25920.0       43200       21600

 PW_GRID| Information for grid number                                          4
 PW_GRID| Grid distributed over                                    80 processors
 PW_GRID| Real space group dimensions                                     8   10
 PW_GRID| the grid is blocked:                                                NO
 PW_GRID| Cutoff [a.u.]                                                     22.2
 PW_GRID| spherical cutoff:                                                   NO
 PW_GRID|   Bounds   1            -27      26                Points:          54
 PW_GRID|   Bounds   2            -27      26                Points:          54
 PW_GRID|   Bounds   3            -67      67                Points:         135
 PW_GRID| Volume element (a.u.^3)  0.8007E-01     Volume (a.u.^3)     31519.8467
 PW_GRID| Grid span                                                    FULLSPACE
 PW_GRID|   Distribution                         Average         Max         Min
 PW_GRID|   G-Vectors                             4920.8        5238        4482
 PW_GRID|   G-Rays                                  91.1          97          83
 PW_GRID|   Real Space Points                     4920.8        5670        4050

 PW_GRID| Information for grid number                                          5
 PW_GRID| Grid distributed over                                    80 processors
 PW_GRID| Real space group dimensions                                     8   10
 PW_GRID| the grid is blocked:                                                NO
 PW_GRID| Cutoff [a.u.]                                                      7.4
 PW_GRID| spherical cutoff:                                                   NO
 PW_GRID|   Bounds   1            -16      15                Points:          32
 PW_GRID|   Bounds   2            -16      15                Points:          32
 PW_GRID|   Bounds   3            -37      37                Points:          75
 PW_GRID| Volume element (a.u.^3)  0.4104         Volume (a.u.^3)     31519.8467
 PW_GRID| Grid span                                                    FULLSPACE
 PW_GRID|   Distribution                         Average         Max         Min
 PW_GRID|   G-Vectors                              960.0        1120         576
 PW_GRID|   G-Rays                                  30.0          35          18
 PW_GRID|   Real Space Points                      960.0        1200         900

 POISSON| Solver                                                        PERIODIC
 POISSON| Periodicity                                                        XYZ

 RS_GRID| Information for grid number                                          1
 RS_GRID|   Bounds   1           -144     143                Points:         288
 RS_GRID|   Bounds   2           -144     143                Points:         288
 RS_GRID|   Bounds   3           -337     337                Points:         675
 RS_GRID| Real space distribution over                                  5 groups
 RS_GRID| Real space distribution along direction                              2
 RS_GRID| Border size                                                         79
 RS_GRID| Real space distribution over                                 16 groups
 RS_GRID| Real space distribution along direction                              3
 RS_GRID| Border size                                                         79
 RS_GRID|   Distribution                         Average         Max         Min
 RS_GRID|   Planes                                 215.6         216         215
 RS_GRID|   Distribution                         Average         Max         Min
 RS_GRID|   Planes                                 200.2         201         200

 RS_GRID| Information for grid number                                          2
 RS_GRID|   Bounds   1            -80      79                Points:         160
 RS_GRID|   Bounds   2            -80      79                Points:         160
 RS_GRID|   Bounds   3           -200     199                Points:         400
 RS_GRID| Real space distribution over                                  5 groups
 RS_GRID| Real space distribution along direction                              2
 RS_GRID| Border size                                                         45
 RS_GRID| Real space distribution over                                 16 groups
 RS_GRID| Real space distribution along direction                              3
 RS_GRID| Border size                                                         45
 RS_GRID|   Distribution                         Average         Max         Min
 RS_GRID|   Planes                                 122.0         122         122
 RS_GRID|   Distribution                         Average         Max         Min
 RS_GRID|   Planes                                 115.0         115         115

 RS_GRID| Information for grid number                                          3
 RS_GRID|   Bounds   1            -48      47                Points:          96
 RS_GRID|   Bounds   2            -48      47                Points:          96
 RS_GRID|   Bounds   3           -112     112                Points:         225
 RS_GRID| Real space fully replicated
 RS_GRID| Group size                                                           1

 RS_GRID| Information for grid number                                          4
 RS_GRID|   Bounds   1            -27      26                Points:          54
 RS_GRID|   Bounds   2            -27      26                Points:          54
 RS_GRID|   Bounds   3            -67      67                Points:         135
 RS_GRID| Real space fully replicated
 RS_GRID| Group size                                                           1

 RS_GRID| Information for grid number                                          5
 RS_GRID|   Bounds   1            -16      15                Points:          32
 RS_GRID|   Bounds   2            -16      15                Points:          32
 RS_GRID|   Bounds   3            -37      37                Points:          75
 RS_GRID| Real space fully replicated
 RS_GRID| Group size                                                           1

 CELL_OPT| Pressure tolerance [bar]:                                       500.0
 CELL_OPT| Keep angles between the cell vectors:                             YES
 CELL_OPT| Keep cell symmetry:                                               YES
 CELL_OPT| Constraint:                                                         Z

 BFGS| Use rational function optimization for step estimation:                NO
 BFGS| Use model Hessian for initial guess:                                   NO
 BFGS| Restart Hessian:                                                       NO
 BFGS| Trust radius:                                                       0.472

 *******************************************************************************
 ***                     STARTING   CELL   OPTIMIZATION                      ***
 ***                                   BFGS                                  ***
 *******************************************************************************

 CELL| Volume [angstrom^3]:                                             4670.759
 CELL| Vector a [angstrom]:      12.982     0.000     0.000    |a| =      12.982
 CELL| Vector b [angstrom]:      -6.491    11.243     0.000    |b| =      12.982
 CELL| Vector c [angstrom]:       0.000     0.000    32.000    |c| =      32.000
 CELL| Angle (b,c), alpha [degree]:                                       90.000
 CELL| Angle (a,c), beta  [degree]:                                       90.000
 CELL| Angle (a,b), gamma [degree]:                                      120.000
 CELL| Numerically orthorhombic:                                              NO

 -------------------------------------------------------------------------------
 ----                             MULTIGRID INFO                            ----
 -------------------------------------------------------------------------------
 count for grid        1:         331200          cutoff [a.u.]          600.00
 count for grid        2:        1048800          cutoff [a.u.]          200.00
 count for grid        3:         676400          cutoff [a.u.]           66.67
 count for grid        4:         444000          cutoff [a.u.]           22.22
 count for grid        5:         222000          cutoff [a.u.]            7.41
 total gridlevel count  :        2722400

 PW_GRID| Information for grid number                                          6
 PW_GRID| Grid distributed over                                    80 processors
 PW_GRID| Real space group dimensions                                    80    1
 PW_GRID| the grid is blocked:                                                NO
 PW_GRID| Cutoff [a.u.]                                                    600.0
 PW_GRID| spherical cutoff:                                                   NO
 PW_GRID|   Bounds   1           -144     143                Points:         288
 PW_GRID|   Bounds   2           -144     143                Points:         288
 PW_GRID|   Bounds   3           -337     337                Points:         675
 PW_GRID| Volume element (a.u.^3)  0.5630E-03     Volume (a.u.^3)     31519.8467
 PW_GRID| Grid span                                                    FULLSPACE
 PW_GRID|   Distribution                         Average         Max         Min
 PW_GRID|   G-Vectors                           699840.0      699840      699840
 PW_GRID|   G-Rays                                2430.0        2430        2430
 PW_GRID|   Real Space Points                   699840.0      777600      583200

 PW_GRID| Information for grid number                                          7
 PW_GRID| Grid distributed over                                    80 processors
 PW_GRID| Real space group dimensions                                    80    1
 PW_GRID| the grid is blocked:                                                NO
 PW_GRID| Cutoff [a.u.]                                                    200.0
 PW_GRID| spherical cutoff:                                                   NO
 PW_GRID|   Bounds   1            -80      79                Points:         160
 PW_GRID|   Bounds   2            -80      79                Points:         160
 PW_GRID|   Bounds   3           -200     199                Points:         400
 PW_GRID| Volume element (a.u.^3)  0.3078E-02     Volume (a.u.^3)     31519.8467
 PW_GRID| Grid span                                                    FULLSPACE
 PW_GRID|   Distribution                         Average         Max         Min
 PW_GRID|   G-Vectors                           128000.0      128160      127840
 PW_GRID|   G-Rays                                 800.0         801         799
 PW_GRID|   Real Space Points                   128000.0      128000      128000

 PW_GRID| Information for grid number                                          8
 PW_GRID| Grid distributed over                                    80 processors
 PW_GRID| Real space group dimensions                                    80    1
 PW_GRID| the grid is blocked:                                                NO
 PW_GRID| Cutoff [a.u.]                                                     66.7
 PW_GRID| spherical cutoff:                                                   NO
[...]
    189       N      1       5.000          4.128                         0.872
    190       Ga     2      13.000         13.871                        -0.871
    191       N      1       5.000          4.126                         0.874
    192       Ga     2      13.000         13.924                        -0.924
    193       N      1       5.000          4.320                         0.680
    194       Ga     2      13.000         14.196                        -1.196
    195       N      1       5.000          4.214                         0.786
    196       N      1       5.000          4.531                         0.469
    197       Ga     2      13.000         14.208                        -1.208
    198       N      1       5.000          4.135                         0.865
    199       Ga     2      13.000         13.872                        -0.872
    200       N      1       5.000          4.131                         0.869
    201       Ga     2      13.000         13.868                        -0.868
    202       N      1       5.000          4.133                         0.867
    203       Ga     2      13.000         13.869                        -0.869
    204       N      1       5.000          4.128                         0.872
    205       Ga     2      13.000         13.897                        -0.897
    206       N      1       5.000          4.119                         0.881
    207       Ga     2      13.000         13.921                        -0.921
    208       N      1       5.000          4.303                         0.697
    209       Ga     2      13.000         14.174                        -1.174
    210       N      1       5.000          4.237                         0.763
    211       N      1       5.000          4.531                         0.469
    212       Ga     2      13.000         14.209                        -1.209
    213       N      1       5.000          4.135                         0.865
    214       Ga     2      13.000         13.872                        -0.872
    215       N      1       5.000          4.132                         0.868
    216       Ga     2      13.000         13.870                        -0.870
    217       N      1       5.000          4.132                         0.868
    218       Ga     2      13.000         13.872                        -0.872
    219       N      1       5.000          4.130                         0.870
    220       Ga     2      13.000         13.870                        -0.870
    221       N      1       5.000          4.124                         0.876
    222       Ga     2      13.000         13.925                        -0.925
    223       N      1       5.000          4.302                         0.698
    224       Ga     2      13.000         14.211                        -1.211
    225       N      1       5.000          4.233                         0.767
    226       N      1       5.000          4.531                         0.469
    227       Ga     2      13.000         14.209                        -1.209
    228       N      1       5.000          4.135                         0.865
    229       Ga     2      13.000         13.872                        -0.872
    230       N      1       5.000          4.132                         0.868
    231       Ga     2      13.000         13.869                        -0.869
    232       N      1       5.000          4.132                         0.868
    233       Ga     2      13.000         13.871                        -0.871
    234       N      1       5.000          4.129                         0.871
    235       Ga     2      13.000         13.890                        -0.890
    236       N      1       5.000          4.120                         0.880
    237       Ga     2      13.000         13.923                        -0.923
    238       N      1       5.000          4.320                         0.680
    239       Ga     2      13.000         14.188                        -1.188
    240       N      1       5.000          4.203                         0.797
    241       H      3       1.000          0.478                         0.522
    242       H      3       1.000          0.478                         0.522
    243       H      3       1.000          0.478                         0.522
    244       H      3       1.000          0.478                         0.522
    245       H      3       1.000          0.478                         0.522
    246       H      3       1.000          0.478                         0.522
    247       H      3       1.000          0.478                         0.522
    248       H      3       1.000          0.478                         0.522
    249       H      3       1.000          0.478                         0.522
    250       H      3       1.000          0.478                         0.522
    251       H      3       1.000          0.478                         0.522
    252       H      3       1.000          0.478                         0.522
    253       H      3       1.000          0.478                         0.522
    254       H      3       1.000          0.478                         0.522
    255       H      3       1.000          0.478                         0.522
    256       H      3       1.000          0.478                         0.522

  Total Charge                                                            0.001
 !-----------------------------------------------------------------------------!

 ENERGY| Total FORCE_EVAL ( QS ) energy (a.u.):            -9639.569946416795574


 --------  Informations at step =    59 ------------
  Optimization Method        =                 BFGS
  Total Energy               =     -9639.5699464168
  Internal Pressure [bar]    =        40.9504778558
  Real energy change         =        -0.0024156886
  Predicted change in energy =        -0.0016824268
  Scaling factor             =         0.6752992902
  Step size                  =         0.0379076651
  Trust radius               =         0.4724315332
  Decrease in energy         =                  YES
  Used time                  =              119.653

  Convergence check :
  Max. step size             =         0.0379076651
  Conv. limit for step size  =         0.0030000000
  Convergence in step size   =                   NO
  RMS step size              =         0.0073734674
  Conv. limit for RMS step   =         0.0015000000
  Convergence in RMS step    =                   NO
  Max. gradient              =         0.0062055633
  Conv. limit for gradients  =         0.0004500000
  Conv. for gradients        =                   NO
  RMS gradient               =         0.0011631381
  Conv. limit for RMS grad.  =         0.0003000000
  Conv. for gradients        =                   NO
  Pressure Deviation [bar]   =        39.9504778558
  Pressure Tolerance [bar]   =       500.0000000000
  Conv. for  PRESSURE        =                  YES
 ---------------------------------------------------

 --------------------------
 OPTIMIZATION STEP:     60
 --------------------------

 CELL| Volume [angstrom^3]:                                             4659.135
 CELL| Vector a [angstrom]:      13.028     0.000     0.000    |a| =      13.028
 CELL| Vector b [angstrom]:      -6.452    11.176     0.000    |b| =      12.905
 CELL| Vector c [angstrom]:       0.000     0.000    32.000    |c| =      32.000
 CELL| Angle (b,c), alpha [degree]:                                       90.000
 CELL| Angle (a,c), beta  [degree]:                                       90.000
 CELL| Angle (a,b), gamma [degree]:                                      120.000
 CELL| Numerically orthorhombic:                                              NO

 -------------------------------------------------------------------------------
 ----                             MULTIGRID INFO                            ----
 -------------------------------------------------------------------------------
 count for grid        1:         334738          cutoff [a.u.]          600.00
 count for grid        2:        1152048          cutoff [a.u.]          200.00
 count for grid        3:         783051          cutoff [a.u.]           66.67
 count for grid        4:         627981          cutoff [a.u.]           22.22
 count for grid        5:         403095          cutoff [a.u.]            7.41
 total gridlevel count  :        3300913

 PW_GRID| Information for grid number                                        306
 PW_GRID| Grid distributed over                                    80 processors
 PW_GRID| Real space group dimensions                                    80    1
 PW_GRID| the grid is blocked:                                                NO
 PW_GRID| Cutoff [a.u.]                                                    600.0
 PW_GRID| spherical cutoff:                                                   NO
 PW_GRID|   Bounds   1           -144     143                Points:         288
 PW_GRID|   Bounds   2           -144     143                Points:         288
 PW_GRID|   Bounds   3           -337     337                Points:         675
 PW_GRID| Volume element (a.u.^3)  0.5630E-03     Volume (a.u.^3)     31519.8467
 PW_GRID| Grid span                                                    FULLSPACE
 PW_GRID|   Distribution                         Average         Max         Min
 PW_GRID|   G-Vectors                           699840.0      699840      699840
 PW_GRID|   G-Rays                                2430.0        2430        2430
 PW_GRID|   Real Space Points                   699840.0      777600      583200

 PW_GRID| Information for grid number                                        307
 PW_GRID| Grid distributed over                                    80 processors
 PW_GRID| Real space group dimensions                                    80    1
 PW_GRID| the grid is blocked:                                                NO
 PW_GRID| Cutoff [a.u.]                                                    200.0
 PW_GRID| spherical cutoff:                                                   NO
 PW_GRID|   Bounds   1            -80      79                Points:         160
 PW_GRID|   Bounds   2            -80      79                Points:         160
 PW_GRID|   Bounds   3           -200     199                Points:         400
 PW_GRID| Volume element (a.u.^3)  0.3078E-02     Volume (a.u.^3)     31519.8467
 PW_GRID| Grid span                                                    FULLSPACE
 PW_GRID|   Distribution                         Average         Max         Min
 PW_GRID|   G-Vectors                           128000.0      128160      127840
 PW_GRID|   G-Rays                                 800.0         801         799
 PW_GRID|   Real Space Points                   128000.0      128000      128000

 PW_GRID| Information for grid number                                        308
 PW_GRID| Grid distributed over                                    80 processors
 PW_GRID| Real space group dimensions                                    80    1
 PW_GRID| the grid is blocked:                                                NO
 PW_GRID| Cutoff [a.u.]                                                     66.7
 PW_GRID| spherical cutoff:                                                   NO
 PW_GRID|   Bounds   1            -48      47                Points:          96
 PW_GRID|   Bounds   2            -48      47                Points:          96
 PW_GRID|   Bounds   3           -112     112                Points:         225
 PW_GRID| Volume element (a.u.^3)  0.1520E-01     Volume (a.u.^3)     31519.8467
 PW_GRID| Grid span                                                    FULLSPACE
 PW_GRID|   Distribution                         Average         Max         Min
 PW_GRID|   G-Vectors                            25920.0       26688       24864
 PW_GRID|   G-Rays                                 270.0         278         259
 PW_GRID|   Real Space Points                    25920.0       43200       21600

 PW_GRID| Information for grid number                                        309
 PW_GRID| Grid distributed over                                    80 processors
 PW_GRID| Real space group dimensions                                     8   10
 PW_GRID| the grid is blocked:                                                NO
 PW_GRID| Cutoff [a.u.]                                                     22.2
 PW_GRID| spherical cutoff:                                                   NO
 PW_GRID|   Bounds   1            -27      26                Points:          54
 PW_GRID|   Bounds   2            -27      26                Points:          54
 PW_GRID|   Bounds   3            -67      67                Points:         135
 PW_GRID| Volume element (a.u.^3)  0.8007E-01     Volume (a.u.^3)     31519.8467
 PW_GRID| Grid span                                                    FULLSPACE
 PW_GRID|   Distribution                         Average         Max         Min
 PW_GRID|   G-Vectors                             4920.8        5238        4482
 PW_GRID|   G-Rays                                  91.1          97          83
 PW_GRID|   Real Space Points                     4920.8        5670        4050

 PW_GRID| Information for grid number                                        310
 PW_GRID| Grid distributed over                                    80 processors
 PW_GRID| Real space group dimensions                                     8   10
 PW_GRID| the grid is blocked:                                                NO
 PW_GRID| Cutoff [a.u.]                                                      7.4
 PW_GRID| spherical cutoff:                                                   NO
 PW_GRID|   Bounds   1            -16      15                Points:          32
 PW_GRID|   Bounds   2            -16      15                Points:          32
 PW_GRID|   Bounds   3            -37      37                Points:          75
 PW_GRID| Volume element (a.u.^3)  0.4104         Volume (a.u.^3)     31519.8467
 PW_GRID| Grid span                                                    FULLSPACE
 PW_GRID|   Distribution                         Average         Max         Min
 PW_GRID|   G-Vectors                              960.0        1120         576
 PW_GRID|   G-Rays                                  30.0          35          18
 PW_GRID|   Real Space Points                      960.0        1200         900

 POISSON| Solver                                                        PERIODIC
 POISSON| Periodicity                                                        XYZ

 RS_GRID| Information for grid number                                        306
 RS_GRID|   Bounds   1           -144     143                Points:         288
 RS_GRID|   Bounds   2           -144     143                Points:         288
 RS_GRID|   Bounds   3           -337     337                Points:         675
 RS_GRID| Real space distribution over                                  5 groups
 RS_GRID| Real space distribution along direction                              2
 RS_GRID| Border size                                                         79
 RS_GRID| Real space distribution over                                 16 groups
 RS_GRID| Real space distribution along direction                              3
 RS_GRID| Border size                                                         79
 RS_GRID|   Distribution                         Average         Max         Min
 RS_GRID|   Planes                                 215.6         216         215
 RS_GRID|   Distribution                         Average         Max         Min
 RS_GRID|   Planes                                 200.2         201         200

 RS_GRID| Information for grid number                                        307
 RS_GRID|   Bounds   1            -80      79                Points:         160
 RS_GRID|   Bounds   2            -80      79                Points:         160
 RS_GRID|   Bounds   3           -200     199                Points:         400
 RS_GRID| Real space distribution over                                  5 groups
 RS_GRID| Real space distribution along direction                              2
 RS_GRID| Border size                                                         45
 RS_GRID| Real space distribution over                                 16 groups
 RS_GRID| Real space distribution along direction                              3
 RS_GRID| Border size                                                         45
 RS_GRID|   Distribution                         Average         Max         Min
 RS_GRID|   Planes                                 122.0         122         122
 RS_GRID|   Distribution                         Average         Max         Min
 RS_GRID|   Planes                                 115.0         115         115

 RS_GRID| Information for grid number                                        308
 RS_GRID|   Bounds   1            -48      47                Points:          96
 RS_GRID|   Bounds   2            -48      47                Points:          96
 RS_GRID|   Bounds   3           -112     112                Points:         225
 RS_GRID| Real space fully replicated
 RS_GRID| Group size                                                           1

 RS_GRID| Information for grid number                                        309
 RS_GRID|   Bounds   1            -27      26                Points:          54
 RS_GRID|   Bounds   2            -27      26                Points:          54
 RS_GRID|   Bounds   3            -67      67                Points:         135
 RS_GRID| Real space fully replicated
 RS_GRID| Group size                                                           1

 RS_GRID| Information for grid number                                        310
 RS_GRID|   Bounds   1            -16      15                Points:          32
 RS_GRID|   Bounds   2            -16      15                Points:          32
 RS_GRID|   Bounds   3            -37      37                Points:          75
 RS_GRID| Real space fully replicated
 RS_GRID| Group size                                                           1

 Number of electrons:                                                       2112
 Number of occupied orbitals:                                               1056
 Number of molecular orbitals:                                              1056

 Number of orbital functions:                                               4544
 Number of independent orbital functions:                                   4544

 Parameters for the always stable predictor-corrector (ASPC) method:

  ASPC order: 3

  B(1) =   3.000000
  B(2) =  -3.428571
  B(3) =   1.928571
  B(4) =  -0.571429
  B(5) =   0.071429

 Extrapolation method: ASPC


 SCF WAVEFUNCTION OPTIMIZATION

  ----------------------------------- OT ---------------------------------------
  Minimizer      : CG                  : conjugate gradient
  Preconditioner : FULL_ALL            : diagonalization, state selective
  Precond_solver : DEFAULT
  Line search    : 2PNT                : 2 energies, one gradient
  stepsize       :    0.15000000                  energy_gap     :    0.08000000
  eps_taylor     :   0.10000E-15                  max_taylor     :             4
  ----------------------------------- OT ---------------------------------------

  Step     Update method      Time    Convergence         Total energy    Change
  ------------------------------------------------------------------------------
     1 OT CG       0.15E+00   14.5     0.00002241     -9639.5715767127 -9.64E+03
     2 OT LS       0.90E-01    5.7                    -9639.5716367542
     3 OT CG       0.90E-01   11.1     0.00002007     -9639.5716851070 -1.08E-04
