     256
 i =        1, E =     -9638.2984698740
  N         0.0000065947        0.0000055378        0.0067134678
 Ga        -0.0005281799        1.8831860955        0.6288828230
  N        -0.0005141294        1.8831819929        2.5808189568
 Ga         0.0000011733       -0.0000038252        3.2217293470
  N        -0.0000173757       -0.0000006779        5.1790347395
 Ga        -0.0005000188        1.8831820151        5.8117832683
  N        -0.0005152288        1.8831852878        7.7738488569
 Ga         0.0000037556        0.0000049363        8.4032516833
  N        -0.0000088134       -0.0000124973       10.3676790202
 Ga        -0.0004947122        1.8832075725       10.9951104396
  N        -0.0003246026        1.8832395697       12.9589844396
 Ga         0.0006847905        0.0001422906       13.5845835417
  N         0.0019097458       -0.0022022745       15.5174231528
 Ga        -0.0027550358        1.8839821684       16.1976375447
  N         1.6047905631        0.9560555633       16.8975570197
  N        -1.6308685946        2.8247886673        0.0067509716
 Ga        -1.6314155788        4.7079916696        0.6288994536
  N        -1.6314116455        4.7079969640        2.5808113781
 Ga        -1.6308891693        2.8247947758        3.2217251510
  N        -1.6308924882        2.8247724068        5.1790452852
 Ga        -1.6313977124        4.7079936805        5.8117789940
  N        -1.6314178711        4.7079872583        7.7738555155
 Ga        -1.6308795469        2.8247800454        8.4032724352
  N        -1.6309300441        2.8247709459       10.3676400488
 Ga        -1.6313596276        4.7079360175       10.9951069096
  N        -1.6313530507        4.7079378037       12.9589617819
 Ga        -1.6302697006        2.8245229537       13.5842555188
  N        -1.6267245583        2.8247128890       15.5180318402
 Ga        -1.6334083987        4.7096091413       16.1968310848
  N        -0.0242718633        3.7796048719       16.8984382158
  N        -3.2617604310        5.6495502350        0.0067633897
 Ga        -3.2622951406        7.5327281664        0.6289123103
  N        -3.2622807306        7.5327285700        2.5808147161
 Ga        -3.2617603529        5.6495520997        3.2217262611
  N        -3.2617791330        5.6495501668        5.1790351636
 Ga        -3.2622657970        7.5327476631        5.8117715543
  N        -3.2622871723        7.5327316071        7.7738674453
 Ga        -3.2617604626        5.6495550991        8.4032382422
  N        -3.2618385782        5.6495393747       10.3677005802
 Ga        -3.2622608379        7.5327395765       10.9950581601
  N        -3.2621761350        7.5327610018       12.9590522069
 Ga        -3.2608871341        5.6494667076       13.5840476209
  N        -3.2583064746        5.6473798249       15.5184407772
 Ga        -3.2647404541        7.5335374732       16.1987515166
  N        -1.6576699344        6.6055727136       16.8976058570
  N        -4.8926555984        8.4743406698        0.0068163340
 Ga        -4.8931717883       10.3575132437        0.6289040281
  N        -4.8931904346       10.3575335395        2.5808060246
 Ga        -4.8926405956        8.4743273460        3.2217188326
  N        -4.8926548742        8.4743194377        5.1790385877
 Ga        -4.8931716515       10.3575391236        5.8117792605
  N        -4.8931784845       10.3575389289        7.7738618329
 Ga        -4.8926457109        8.4743360532        8.4032409975
  N        -4.8926929196        8.4743223818       10.3676924576
 Ga        -4.8931524910       10.3575225706       10.9949744625
  N        -4.8930215537       10.3573866265       12.9592508717
 Ga        -4.8921253850        8.4738893374       13.5839773702
  N        -4.8898125980        8.4728841953       15.5189843508
 Ga        -4.8971646122       10.3580614382       16.1980036416
  N        -3.2872971043        9.4293983289       16.8985733368
  N         3.2603426374        0.0000020426        0.0067813144
 Ga         3.2598986777        1.8831785102        0.6288639262
  N         3.2598906466        1.8831844343        2.5808163812
 Ga         3.2603480523        0.0000006673        3.2217346876
  N         3.2603344743        0.0000044056        5.1790408324
 Ga         3.2598731295        1.8831713963        5.8117831727
  N         3.2598882299        1.8831896166        7.7738633747
 Ga         3.2603496358       -0.0000096122        8.4032309198
  N         3.2603433411        0.0000002518       10.3677184968
 Ga         3.2598504926        1.8831799027       10.9950610426
  N         3.2601222582        1.8831709967       12.9590048746
 Ga         3.2610027754        0.0000534309       13.5839234507
  N         3.2630113902       -0.0017104247       15.5182315299
 Ga         3.2578544008        1.8839307794       16.1987663840
  N         4.8639216841        0.9569827845       16.8976624523
  N         1.6294632788        2.8247880426        0.0067647111
 Ga         1.6289751299        4.7080007720        0.6288821594
  N         1.6289776868        4.7079905058        2.5808142052
 Ga         1.6294571557        2.8247788206        3.2217287812
  N         1.6294645427        2.8247856713        5.1790516755
 Ga         1.6289740743        4.7079764159        5.8117803789
  N         1.6289793690        4.7080010714        7.7738517764
 Ga         1.6294595211        2.8247719731        8.4032515025
  N         1.6294565025        2.8247912636       10.3676744546
 Ga         1.6289743080        4.7079363993       10.9949875550
  N         1.6291714288        4.7079289099       12.9591706515
 Ga         1.6299492510        2.8243710631       13.5840575325
  N         1.6332876139        2.8234760190       15.5189306842
 Ga         1.6269583685        4.7095148074       16.1966299073
  N         3.2352862693        3.7784782836       16.8986998192
  N        -0.0014130867        5.6495584861        0.0067228311
 Ga        -0.0018899754        7.5327047904        0.6288946557
  N        -0.0018856452        7.5327387915        2.5808057912
 Ga        -0.0014328861        5.6495449996        3.2217404336
  N        -0.0014254376        5.6495568631        5.1790325130
 Ga        -0.0019026420        7.5327285927        5.8117839740
  N        -0.0018840195        7.5327393772        7.7738521677
 Ga        -0.0014249459        5.6495539707        8.4032474726
  N        -0.0014176359        5.6495569028       10.3676900894
 Ga        -0.0018830961        7.5327361158       10.9949794101
  N        -0.0017404695        7.5327961766       12.9592071560
 Ga        -0.0007167338        5.6494048787       13.5841797322
  N         0.0010048495        5.6467538969       15.5182167060
 Ga        -0.0047423657        7.5337961319       16.1980483837
  N         1.6036114985        6.6049983803       16.8978592631
  N        -1.6323025105        8.4743146567        0.0067082507
 Ga        -1.6327873027       10.3575544547        0.6288937572
  N        -1.6327881269       10.3575380368        2.5807934845
 Ga        -1.6323115180        8.4743281164        3.2217394869
  N        -1.6323024210        8.4743184237        5.1790347322
 Ga        -1.6327881605       10.3575208496        5.8117775717
  N        -1.6327925032       10.3575403667        7.7738708036
 Ga        -1.6323023308        8.4743226519        8.4032401344
  N        -1.6323163128        8.4743348958       10.3677105951
 Ga        -1.6327752300       10.3575069695       10.9949789887
  N        -1.6327254585       10.3574458010       12.9591756755
 Ga        -1.6319671848        8.4740724835       13.5839319522
  N        -1.6287268733        8.4731782326       15.5180802037
 Ga        -1.6346757808       10.3590461096       16.1979402693
  N        -0.0265116810        9.4299860315       16.8984133812
  N         6.5207047421       -0.0000144991        0.0067880561
 Ga         6.5201868996        1.8831824537        0.6288730014
  N         6.5201863200        1.8831718165        2.5808089299
 Ga         6.5206867142        0.0000176999        3.2217263849
  N         6.5207011676        0.0000052123        5.1790421423
 Ga         6.5201997163        1.8831815426        5.8117765767
  N         6.5201946680        1.8831880074        7.7738690047
 Ga         6.5206866264        0.0000013781        8.4032324723
  N         6.5206872151        0.0000414507       10.3677219527
 Ga         6.5201952923        1.8831826228       10.9949729463
  N         6.5202962125        1.8832707989       12.9591367577
 Ga         6.5214201202       -0.0001776415       13.5840178846
  N         6.5241860115       -0.0020549943       15.5185421547
 Ga         6.5177086567        1.8838367301       16.1986165164
  N         8.1247325425        0.9563378228       16.8976629648
  N         4.8897940206        2.8247729104        0.0067762828
 Ga         4.8892692294        4.7079791606        0.6288869829
  N         4.8892840362        4.7079986694        2.5808215646
 Ga         4.8898272187        2.8247784453        3.2217264314
  N         4.8898106646        2.8247912768        5.1790413155
 Ga         4.8892912753        4.7079914718        5.8117714456
  N         4.8892855728        4.7079862890        7.7738665452
 Ga         4.8897988501        2.8247677761        8.4032290529
  N         4.8898271987        2.8248183074       10.3677203363
 Ga         4.8893007706        4.7079594054       10.9948293614
  N         4.8894187069        4.7078855341       12.9594158487
 Ga         4.8900777439        2.8243157673       13.5838034138
  N         4.8925817944        2.8230848058       15.5187019649
 Ga         4.8872228927        4.7094942247       16.1975450541
  N         6.4955296058        3.7799574352       16.8989487046
  N         3.2589169580        5.6495678266        0.0067954153
 Ga         3.2584147607        7.5327113386        0.6288670428
  N         3.2584196125        7.5327330061        2.5808221905
 Ga         3.2589309359        5.6495567921        3.2217364818
  N         3.2589333406        5.6495550243        5.1790338302
 Ga         3.2584238599        7.5327318666        5.8117728481
  N         3.2584268875        7.5327380706        7.7738624432
 Ga         3.2589127143        5.6495511916        8.4032135031
  N         3.2589587243        5.6495469667       10.3677394584
 Ga         3.2584333365        7.5327778977       10.9949280262
  N         3.2586187629        7.5327237730       12.9592598927
 Ga         3.2595559667        5.6495529230       13.5842696415
  N         3.2604988143        5.6483090083       15.5170784265
 Ga         3.2561211623        7.5335957085       16.1978046440
  N         4.8632195368        6.6051838111       16.8978800516
  N         1.6280570015        8.4743357390        0.0067947149
 Ga         1.6274765473       10.3575211026        0.6288689947
  N         1.6275329329       10.3575383099        2.5808170877
 Ga         1.6280323215        8.4743167088        3.2217221646
  N         1.6280504009        8.4743296168        5.1790468781
 Ga         1.6275244792       10.3575305710        5.8117806222
  N         1.6275226216       10.3575311284        7.7738540885
 Ga         1.6280293712        8.4743208387        8.4032311987
  N         1.6280473179        8.4743147674       10.3676905738
 Ga         1.6275604936       10.3574996696       10.9950269745
  N         1.6275388312       10.3574177641       12.9590417064
 Ga         1.6285198941        8.4740468442       13.5841917558
  N         1.6323969055        8.4747251177       15.5179834971
 Ga         1.6253906994       10.3589940290       16.1966492855
  N         3.2342394995        9.4287141372       16.8983302901
  N         9.7810556414       -0.0000029778        0.0067354472
 Ga         9.7805939364        1.8831962631        0.6288704038
  N         9.7805679398        1.8831799983        2.5808114094
 Ga         9.7810373823        0.0000037022        3.2217263424
  N         9.7810433119        0.0000008491        5.1790440382
 Ga         9.7805786240        1.8831820059        5.8117848227
  N         9.7805643543        1.8831866583        7.7738451346
 Ga         9.7810454656        0.0000044159        8.4032461201
  N         9.7810165961        0.0000147174       10.3676782896
 Ga         9.7806260855        1.8831867115       10.9950040445
  N         9.7805885729        1.8832841146       12.9591327131
 Ga         9.7818380304       -0.0001481060       13.5842747561
  N         9.7837174811       -0.0025405177       15.5184593753
 Ga         9.7779631821        1.8841782260       16.1976585406
  N        11.3856235762        0.9556958166       16.8976489699
  N         8.1501664382        2.8247778180        0.0067878597
 Ga         8.1496678182        4.7079979115        0.6288758605
  N         8.1496687115        4.7079843530        2.5808171349
 Ga         8.1501506147        2.8247881284        3.2217300538
  N         8.1501693179        2.8247700237        5.1790440647
 Ga         8.1496717824        4.7079870844        5.8117771595
  N         8.1496702640        4.7079856396        7.7738632653
 Ga         8.1501758536        2.8247718808        8.4032284888
  N         8.1501272990        2.8247875615       10.3677108815
 Ga         8.1497138929        4.7079675849       10.9949195799
  N         8.1496290493        4.7078791872       12.9592552167
 Ga         8.1506022517        2.8244248037       13.5838371574
  N         8.1543352333        2.8239211576       15.5185666417
 Ga         8.1478932132        4.7096656599       16.1976848985
  N         9.7556104186        3.7807162066       16.8984972949
  N         6.5192983121        5.6495514943        0.0067594218
 Ga         6.5188231662        7.5327453437        0.6288891599
  N         6.5187900087        7.5327168471        2.5808184845
 Ga         6.5192812938        5.6495539008        3.2217199503
  N         6.5192722245        5.6495470314        5.1790444003
 Ga         6.5188121551        7.5327399398        5.8117761346
  N         6.5188002548        7.5327297222        7.7738573785
 Ga         6.5192853914        5.6495446359        8.4032104811
  N         6.5192661642        5.6495323477       10.3677445886
 Ga         6.5188188500        7.5327617955       10.9949941837
  N         6.5189258528        7.5326151672       12.9591144468
 Ga         6.5199631488        5.6495951759       13.5838601624
  N         6.5217968910        5.6476381201       15.5180358797
 Ga         6.5173478456        7.5336419619       16.1990782633
  N         8.1228973450        6.6067105141       16.8975409131
  N         4.8883888297        8.4743418916        0.0067504562
 Ga         4.8879077268       10.3575026764        0.6288879554
  N         4.8879019174       10.3575282513        2.5808124261
 Ga         4.8884009497        8.4743267188        3.2217226792
  N         4.8883920592        8.4743293547        5.1790544354
 Ga         4.8879150464       10.3575310928        5.8117861531
  N         4.8878956986       10.3575206392        7.7738449298
 Ga         4.8883928120        8.4743404673        8.4032299510
  N         4.8883713280        8.4743133376       10.3676814813
 Ga         4.8879485671       10.3575231293       10.9950386386
  N         4.8879954660       10.3573070037       12.9590476963
 Ga         4.8890635933        8.4742044708       13.5837606290
  N         4.8924767320        8.4737691606       15.5191919214
 Ga         4.8864931678       10.3594602401       16.1967700380
  N         6.4751152424        9.4138910836       16.9222097215
  H        -0.0000050290       -0.0000012805       -1.0118664251
  H        -1.6308879450        2.8247702558       -1.0118859638
  H        -3.2617698388        5.6495439791       -1.0119018918
  H        -4.8926541979        8.4743240613       -1.0119565090
  H         3.2603543399        0.0000009402       -1.0119190108
  H         1.6294667103        2.8247702282       -1.0119182975
  H        -0.0014228374        5.6495492631       -1.0118577594
  H        -1.6323026001        8.4743254583       -1.0118565355
  H         6.5207021044        0.0000041692       -1.0119059468
  H         4.8898184198        2.8247723679       -1.0119057954
  H         3.2589328578        5.6495491108       -1.0119215145
  H         1.6280478450        8.4743301806       -1.0119200129
  H         9.7810472589       -0.0000005724       -1.0118693020
  H         8.1501656386        2.8247748385       -1.0119017990
  H         6.5192800196        5.6495486251       -1.0118952572
  H         4.8883979318        8.4743242800       -1.0118884147
     256
 i =        2, E =     -9638.5367984857
  N         0.0000557065        0.0001200985        0.0085479915
 Ga        -0.0013451155        1.8942704225        0.6522225813
  N        -0.0013746650        1.8942746721        2.5515419183
 Ga         0.0000377500        0.0000996678        3.2447470585
  N         0.0000271072        0.0001225989        5.1615925302
 Ga        -0.0013307771        1.8942761902        5.8286378520
  N        -0.0013750750        1.8942603253        7.7597982281
 Ga         0.0000570329        0.0000984297        8.4171577795
  N         0.0000183334        0.0000546046       10.3548191274
 Ga        -0.0012388891        1.8943269100       11.0055764604
  N        -0.0002260752        1.8942173770       12.9388047894
 Ga         0.0032482256        0.0007505214       13.5731499359
  N         0.0085837193       -0.0101657675       15.4052898689
 Ga        -0.0105671873        1.8958408808       16.2631009448
  N         1.6040471734        0.9669369520       16.9740378083
  N        -1.6404909355        2.8416855464        0.0085221865
 Ga        -1.6419269807        4.7358293808        0.6522412776
  N        -1.6419486975        4.7358390823        2.5515338374
 Ga        -1.6405213054        2.8416643071        3.2447424161
  N        -1.6405249069        2.8416643392        5.1616106401
 Ga        -1.6418881362        4.7358420212        5.8286353870
  N        -1.6419621534        4.7358343932        7.7598028516
 Ga        -1.6404889738        2.8416650638        8.4172160125
  N        -1.6406855732        2.8416700890       10.3546640094
 Ga        -1.6417365222        4.7356628346       11.0051869170
  N        -1.6413217165        4.7355372998       12.9395049843
 Ga        -1.6377007694        2.8400276719       13.5727702163
  N        -1.6220945430        2.8390828819       15.4068225737
 Ga        -1.6496513020        4.7413126302       16.2583332522
  N        -0.0292698382        3.8027166552       16.9776166901
  N        -3.2810739882        5.6832073415        0.0084972917
 Ga        -3.2824736349        7.5773640198        0.6522494072
  N        -3.2825093952        7.5773507210        2.5515448309
 Ga        -3.2810778063        5.6832005709        3.2447387292
  N        -3.2811033460        5.6832103160        5.1615981823
 Ga        -3.2824583820        7.5773955533        5.8286165088
  N        -3.2825173124        7.5773571719        7.7598360595
 Ga        -3.2810450254        5.6831968842        8.4171555116
  N        -3.2812429815        5.6831903934       10.3548331506
 Ga        -3.2823709441        7.5773168751       11.0052819464
  N        -3.2817775074        7.5772104487       12.9392975859
 Ga        -3.2773796374        5.6827543539       13.5723413001
  N        -3.2691447940        5.6718938389       15.4059171544
 Ga        -3.2914113635        7.5793819459       16.2659499421
  N        -1.6774837281        6.6515471823       16.9753839126
  N        -4.9216485921        8.5247721618        0.0084268926
 Ga        -4.9230490393       10.4188936119        0.6522517731
  N        -4.9230817572       10.4189085981        2.5515305896
 Ga        -4.9216415527        8.5247431652        3.2447333196
  N        -4.9216502070        8.5247518544        5.1616037754
 Ga        -4.9230438310       10.4189201524        5.8286306532
  N        -4.9230643328       10.4189174175        7.7598204854
 Ga        -4.9216340075        8.5247693343        8.4171540292
  N        -4.9217681040        8.5247807725       10.3547993907
 Ga        -4.9228978618       10.4188218916       11.0049396184
  N        -4.9222555847       10.4182942489       12.9403531648
 Ga        -4.9189080215        8.5225499622       13.5721036622
  N        -4.9080959339        8.5210163501       15.4100635332
 Ga        -4.9381236462       10.4207703969       16.2620941967
  N        -3.3133506500        9.4860522536       16.9774136429
  N         3.2773087934        0.0001093744        0.0084823965
 Ga         3.2759417676        1.8942695484        0.6522102410
  N         3.2759541753        1.8942824250        2.5515422997
 Ga         3.2773060597        0.0000962940        3.2447375706
  N         3.2773065407        0.0001222480        5.1616094347
 Ga         3.2759318278        1.8942549475        5.8286221594
  N         3.2759554470        1.8942637520        7.7598285214
 Ga         3.2772971474        0.0000664693        8.4171252634
  N         3.2773211346        0.0001079527       10.3548812459
 Ga         3.2759323801        1.8942484022       11.0052680365
  N         3.2771090442        1.8940346871       12.9390761916
 Ga         3.2803958597        0.0002750887       13.5713396125
  N         3.2866571678       -0.0098176294       15.4084374021
 Ga         3.2689017357        1.8961086215       16.2680085033
  N         4.8764994618        0.9687498148       16.9757761997
  N         1.6367558235        2.8416678632        0.0084816859
 Ga         1.6353656890        4.7358080969        0.6522295361
  N         1.6353639642        4.7358375818        2.5515396852
 Ga         1.6367448471        2.8416449243        3.2447277272
  N         1.6367684642        2.8416668719        5.1616236205
 Ga         1.6353540720        4.7358221488        5.8286337620
  N         1.6353643292        4.7358455622        7.7597911943
 Ga         1.6367237488        2.8416505487        8.4171900809
  N         1.6367486276        2.8417357796       10.3547096504
 Ga         1.6354398085        4.7356522887       11.0049165966
  N         1.6361503225        4.7353711146       12.9401149458
 Ga         1.6391211885        2.8397209916       13.5718708233
  N         1.6529144650        2.8365070524       15.4101653990
 Ga         1.6293540494        4.7425710811       16.2591974005
  N         3.2456684987        3.7981137660       16.9784612995
  N        -0.0038108610        5.6832025886        0.0085733796
 Ga        -0.0052116312        7.5773417230        0.6522291367
  N        -0.0052011188        7.5773651385        2.5515333872
 Ga        -0.0038314109        5.6831832180        3.2447535738
  N        -0.0038141773        5.6832090789        5.1615962251
 Ga        -0.0052019791        7.5773531395        5.8286296869
  N        -0.0052123882        7.5773732930        7.7598191917
 Ga        -0.0038362574        5.6831839211        8.4171674948
  N        -0.0038021817        5.6832045497       10.3547961229
 Ga        -0.0050753245        7.5773043610       11.0052231972
  N        -0.0042915608        7.5772148743       12.9395135190
 Ga        -0.0007151210        5.6828091390       13.5718047799
  N         0.0043153545        5.6711958354       15.4071965723
 Ga        -0.0136176695        7.5806922146       16.2654177286
  N         1.6008468905        6.6496879624       16.9758901485
  N        -1.6443770227        8.5247385086        0.0085729397
 Ga        -1.6457642148       10.4188878040        0.6522314560
  N        -1.6457675233       10.4189252798        2.5515201162
 Ga        -1.6443920181        8.5247356058        3.2447369300
  N        -1.6443736293        8.5247480958        5.1616088300
 Ga        -1.6457609927       10.4188888715        5.8286191389
  N        -1.6457767726       10.4189240092        7.7598405418
 Ga        -1.6443820607        8.5247201281        8.4171500970
  N        -1.6444591392        8.5248341881       10.3548511611
 Ga        -1.6456302603       10.4187887372       11.0048442306
  N        -1.6451788282       10.4185075715       12.9402008616
 Ga        -1.6422136206        8.5231359935       13.5714770501
  N        -1.6284063517        8.5195482210       15.4090393994
 Ga        -1.6511876838       10.4254077829       16.2622931706
  N        -0.0370182040        9.4868343476       16.9776203017
  N         6.5545903800        0.0001078248        0.0084854076
 Ga         6.5532084123        1.8942770010        0.6522208604
  N         6.5531790783        1.8942695223        2.5515367663
 Ga         6.5545603361        0.0001156551        3.2447313073
  N         6.5545970338        0.0001324502        5.1616146552
 Ga         6.5532125789        1.8942690232        5.8286124249
  N         6.5531917031        1.8942654488        7.7598298642
 Ga         6.5545583072        0.0000787383        8.4171373711
  N         6.5545621739        0.0001911374       10.3548593183
 Ga         6.5532596200        1.8942930170       11.0050234560
  N         6.5539498737        1.8942093770       12.9396165914
 Ga         6.5580422318       -0.0002850263       13.5719907611
  N         6.5667627237       -0.0096394328       15.4062172570
 Ga         6.5445627983        1.8960586000       16.2659771501
  N         8.1567855452        0.9686223112       16.9759584562
  N         4.9140170774        2.8416538743        0.0084956153
 Ga         4.9126083993        4.7358140881        0.6522368864
  N         4.9126082435        4.7358372017        2.5515563963
 Ga         4.9140302526        2.8416437495        3.2447181674
  N         4.9140422191        2.8416836256        5.1616231348
 Ga         4.9126215059        4.7358438583        5.8286112132
  N         4.9126184933        4.7358130208        7.7598148462
 Ga         4.9139821976        2.8416397483        8.4171390891
  N         4.9140446162        2.8417553103       10.3548173029
 Ga         4.9127005387        4.7357750223       11.0046767213
  N         4.9133196646        4.7352811941       12.9405283019
 Ga         4.9159230142        2.8397589998       13.5712373680
  N         4.9278146301        2.8383598658       15.4096132079
 Ga         4.9051910442        4.7416061938       16.2600398649
  N         6.5226743162        3.8041471193       16.9790484811
  N         3.2734433335        5.6832253221        0.0084650560
 Ga         3.2720647325        7.5773449837        0.6522196200
  N         3.2720495452        7.5773551692        2.5515480920
 Ga         3.2734397356        5.6831976956        3.2447381255
  N         3.2734791447        5.6832097987        5.1616031359
 Ga         3.2720692678        7.5773725153        5.8286218468
  N         3.2720604669        7.5773504187        7.7598152435
 Ga         3.2733901675        5.6831957916        8.4171203809
  N         3.2735249213        5.6831763610       10.3548409938
 Ga         3.2721521853        7.5775017735       11.0051599816
  N         3.2733043892        7.5772818703       12.9395305466
 Ga         3.2764347628        5.6836040547       13.5723018630
  N         3.2812016882        5.6778998195       15.4039648330
 Ga         3.2630857783        7.5791486152       16.2640666172
  N         4.8758614418        6.6496080109       16.9749400350
  N         1.6329058083        8.5247616175        0.0084785667
 Ga         1.6314649722       10.4188878159        0.6522202696
  N         1.6314873627       10.4189180377        2.5515397805
 Ga         1.6328662862        8.5247225650        3.2447282314
  N         1.6329106722        8.5247630937        5.1616193561
 Ga         1.6315090141       10.4189065134        5.8286289946
  N         1.6314705134       10.4189133548        7.7598011931
 Ga         1.6328426667        8.5247314368        8.4171696781
  N         1.6328545466        8.5248062626       10.3547246338
 Ga         1.6316847013       10.4187974707       11.0049543114
  N         1.6319956964       10.4185900426       12.9398559016
 Ga         1.6351912770        8.5231606611       13.5725419980
  N         1.6519787685        8.5250356582       15.4070379115
 Ga         1.6242255244       10.4241292036       16.2583769076
  N         3.2424199326        9.4853408168       16.9772235831
  N         9.8318596073        0.0001017286        0.0085523862
 Ga         9.8304910549        1.8942678068        0.6522125419
  N         9.8304390521        1.8942632266        2.5515349637
 Ga         9.8318453107        0.0001000352        3.2447350343
  N         9.8318510376        0.0001147510        5.1616142867
 Ga         9.8305099562        1.8942637798        5.8286338681
  N         9.8304248321        1.8942507545        7.7597769074
 Ga         9.8318674589        0.0000894557        8.4171470582
  N         9.8317869304        0.0001471388       10.3547786007
 Ga         9.8306659325        1.8942932483       11.0051809350
  N         9.8309886497        1.8940976300       12.9394624165
 Ga         9.8354260600       -0.0002350274       13.5721005687
  N         9.8412705425       -0.0110018971       15.4065788732
 Ga         9.8228330106        1.8977489471       16.2640269850
  N        11.4345325192        0.9683669597       16.9754889384
  N         8.1913057377        2.8416553835        0.0085014960
 Ga         8.1898941362        4.7358093664        0.6522177717
  N         8.1898655959        4.7358117949        2.5515448182
 Ga         8.1912792983        2.8416427916        3.2447211583
  N         8.1913051844        2.8416535121        5.1616279903
 Ga         8.1899168214        4.7358329933        5.8286193633
  N         8.1898674071        4.7358002090        7.7598094789
 Ga         8.1913272258        2.8416416740        8.4171282622
  N         8.1911829667        2.8417102678       10.3548179929