 DBCSR| Multiplication driver                                               BLAS
 DBCSR| Multrec recursion limit                                              512
 DBCSR| Multiplication stack size                                           1000
 DBCSR| Maximum elements for images                                    UNLIMITED
 DBCSR| Multiplicative factor virtual images                                   1
 DBCSR| Multiplication size stacks                                             3
 DBCSR| Number of 3D layers                                               SINGLE
 DBCSR| Use MPI memory allocation                                              T
 DBCSR| Use RMA algorithm                                                      F
 DBCSR| Use Communication thread                                               T
 DBCSR| Communication thread load                                             87


  **** **** ******  **  PROGRAM STARTED AT               2019-05-27 04:20:04.557
 ***** ** ***  *** **   PROGRAM STARTED ON        blg8622.int.ets1.calculquebec.
 **    ****   ******    PROGRAM STARTED BY                                   rzk
 ***** **    ** ** **   PROGRAM PROCESS ID                                 68035
  **** **  *******  **  PROGRAM STARTED IN /lustre03/project/6004141/rzk/GaN-car
                                           bene/01-Methanol/443-capped/00-vacuum
                                           -methanol

 CP2K| version string:                    CP2K version 7.0 (Development Version)
 CP2K| source code revision number:                                    svn:18619
 CP2K| cp2kflags: libint fftw3 libxc parallel mpi3 scalapack mkl                
 CP2K| is freely available from                            https://www.cp2k.org/
 CP2K| Program compiled at                          Sun Apr  7 00:48:11 EDT 2019
 CP2K| Program compiled on                      beluga2.int.ets1.calculquebec.ca
 CP2K| Program compiled for                    Beluga-Linux-x86-64-intel-openmpi
 CP2K| Data directory path    /home/rzk/projects/def-rzk/group/cp2k/cp2k-mcgill/
 CP2K| Input file name                                                 start.inp
 
 GLOBAL| Force Environment number                                              1
 GLOBAL| Basis set file name                                        BASIS_MOLOPT
 GLOBAL| Potential file name                                      GTH_POTENTIALS
 GLOBAL| MM Potential file name                                     MM_POTENTIAL
 GLOBAL| Coordinate file name                                      __STD_INPUT__
 GLOBAL| Method name                                                        CP2K
 GLOBAL| Project name                                                       TEST
 GLOBAL| Preferred FFT library                                             FFTW3
 GLOBAL| Preferred diagonalization lib.                                       SL
 GLOBAL| Run type                                                        GEO_OPT
 GLOBAL| All-to-all communication in single precision                          F
 GLOBAL| FFTs using library dependent lengths                                  F
 GLOBAL| Global print level                                               MEDIUM
 GLOBAL| MPI I/O enabled                                                       T
 GLOBAL| Total number of message passing processes                            40
 GLOBAL| Number of threads for this process                                    1
 GLOBAL| This output is from process                                           0
 GLOBAL| CPU model name :  Intel(R) Xeon(R) Gold 6148 CPU @ 2.40GHz

 MEMORY| system memory details [Kb]
 MEMORY|                        rank 0           min           max       average
 MEMORY| MemTotal             97523924      97523924      97523924      97523924
 MEMORY| MemFree              86551320      86551320      86552312      86551444
 MEMORY| Buffers                    76            76            76            76
 MEMORY| Cached                1229368       1229368       1229368       1229368
 MEMORY| Slab                  1048952       1048952       1048952       1048952
 MEMORY| SReclaimable           141720        141720        141720        141720
 MEMORY| MemLikelyFree        87922484      87922484      87923476      87922608


 *** Fundamental physical constants (SI units) ***

 *** Literature: B. J. Mohr and B. N. Taylor,
 ***             CODATA recommended values of the fundamental physical
 ***             constants: 2006, Web Version 5.1
 ***             http://physics.nist.gov/constants

 Speed of light in vacuum [m/s]                             2.99792458000000E+08
 Magnetic constant or permeability of vacuum [N/A**2]       1.25663706143592E-06
 Electric constant or permittivity of vacuum [F/m]          8.85418781762039E-12
 Planck constant (h) [J*s]                                  6.62606896000000E-34
 Planck constant (h-bar) [J*s]                              1.05457162825177E-34
 Elementary charge [C]                                      1.60217648700000E-19
 Electron mass [kg]                                         9.10938215000000E-31
 Electron g factor [ ]                                     -2.00231930436220E+00
 Proton mass [kg]                                           1.67262163700000E-27
 Fine-structure constant                                    7.29735253760000E-03
 Rydberg constant [1/m]                                     1.09737315685270E+07
 Avogadro constant [1/mol]                                  6.02214179000000E+23
 Boltzmann constant [J/K]                                   1.38065040000000E-23
 Atomic mass unit [kg]                                      1.66053878200000E-27
 Bohr radius [m]                                            5.29177208590000E-11

 *** Conversion factors ***

 [u] -> [a.u.]                                              1.82288848426455E+03
 [Angstrom] -> [Bohr] = [a.u.]                              1.88972613288564E+00
 [a.u.] = [Bohr] -> [Angstrom]                              5.29177208590000E-01
 [a.u.] -> [s]                                              2.41888432650478E-17
 [a.u.] -> [fs]                                             2.41888432650478E-02
 [a.u.] -> [J]                                              4.35974393937059E-18
 [a.u.] -> [N]                                              8.23872205491840E-08
 [a.u.] -> [K]                                              3.15774647902944E+05
 [a.u.] -> [kJ/mol]                                         2.62549961709828E+03
 [a.u.] -> [kcal/mol]                                       6.27509468713739E+02
 [a.u.] -> [Pa]                                             2.94210107994716E+13
 [a.u.] -> [bar]                                            2.94210107994716E+08
 [a.u.] -> [atm]                                            2.90362800883016E+08
 [a.u.] -> [eV]                                             2.72113838565563E+01
 [a.u.] -> [Hz]                                             6.57968392072181E+15
 [a.u.] -> [1/cm] (wave numbers)                            2.19474631370540E+05
 [a.u./Bohr**2] -> [1/cm]                                   5.14048714338585E+03
 

 CELL_TOP| Volume [angstrom^3]:                                         4160.044
 CELL_TOP| Vector a [angstrom    12.846     0.000     0.000    |a| =      12.846
 CELL_TOP| Vector b [angstrom    -6.447    11.167     0.000    |b| =      12.895
 CELL_TOP| Vector c [angstrom     0.000     0.000    29.000    |c| =      29.000
 CELL_TOP| Angle (b,c), alpha [degree]:                                   90.000
 CELL_TOP| Angle (a,c), beta  [degree]:                                   90.000
 CELL_TOP| Angle (a,b), gamma [degree]:                                  120.000
 CELL_TOP| Numerically orthorhombic:                                          NO
 
 GENERATE|  Preliminary Number of Bonds generated:                             0
 GENERATE|  Achieved consistency in connectivity generation.

 CELL| Volume [angstrom^3]:                                             4160.044
 CELL| Vector a [angstrom]:      12.846     0.000     0.000    |a| =      12.846
 CELL| Vector b [angstrom]:      -6.447    11.167     0.000    |b| =      12.895
 CELL| Vector c [angstrom]:       0.000     0.000    29.000    |c| =      29.000
 CELL| Angle (b,c), alpha [degree]:                                       90.000
 CELL| Angle (a,c), beta  [degree]:                                       90.000
 CELL| Angle (a,b), gamma [degree]:                                      120.000
 CELL| Numerically orthorhombic:                                              NO

 CELL_REF| Volume [angstrom^3]:                                         4232.876
 CELL_REF| Vector a [angstrom    12.982     0.000     0.000    |a| =      12.982
 CELL_REF| Vector b [angstrom    -6.491    11.243     0.000    |b| =      12.982
 CELL_REF| Vector c [angstrom     0.000     0.000    29.000    |c| =      29.000
 CELL_REF| Angle (b,c), alpha [degree]:                                   90.000
 CELL_REF| Angle (a,c), beta  [degree]:                                   90.000
 CELL_REF| Angle (a,b), gamma [degree]:                                  120.000
 CELL_REF| Numerically orthorhombic:                                          NO

 *******************************************************************************
 *******************************************************************************
 **                                                                           **
 **     #####                         ##              ##                      **
 **    ##   ##            ##          ##              ##                      **
 **   ##     ##                       ##            ######                    **
 **   ##     ##  ##   ##  ##   #####  ##  ##   ####   ##    #####    #####    **
 **   ##     ##  ##   ##  ##  ##      ## ##   ##      ##   ##   ##  ##   ##   **
 **   ##  ## ##  ##   ##  ##  ##      ####     ###    ##   ######   ######    **
 **    ##  ###   ##   ##  ##  ##      ## ##      ##   ##   ##       ##        **
 **     #######   #####   ##   #####  ##  ##  ####    ##    #####   ##        **
 **           ##                                                    ##        **
 **                                                                           **
 **                                                ... make the atoms dance   **
 **                                                                           **
 **            Copyright (C) by CP2K developers group (2000 - 2018)           **
 **                                                                           **
 *******************************************************************************

 DFT| Spin restricted Kohn-Sham (RKS) calculation                            RKS
 DFT| Multiplicity                                                             1
 DFT| Number of spin states                                                    1
 DFT| Charge                                                                   0
 DFT| Self-interaction correction (SIC)                                       NO
 DFT| Cutoffs: density                                              1.000000E-10
 DFT|          gradient                                             1.000000E-10
 DFT|          tau                                                  1.000000E-10
 DFT|          cutoff_smoothing_range                               0.000000E+00
 DFT| XC density smoothing                                                  NONE
 DFT| XC derivatives                                                          PW
 FUNCTIONAL| ROUTINE=NEW
 FUNCTIONAL| PBE:
 FUNCTIONAL| J.P.Perdew, K.Burke, M.Ernzerhof, Phys. Rev. Letter, vol. 77, n 18,
 FUNCTIONAL|  pp. 3865-3868, (1996){spin unpolarized}                           
 vdW POTENTIAL|                                                   Pair Potential
 vdW POTENTIAL|          DFT-D3 (Version 3.1)
 vdW POTENTIAL|          Potential Form: S. Grimme et al, JCP 132: 154104 (2010)
 vdW POTENTIAL|          Zero Damping
 vdW POTENTIAL|          Cutoff Radius [Bohr]:                             18.90
 vdW POTENTIAL|          s6 Scaling Factor:                               1.0000
 vdW POTENTIAL|          sr6 Scaling Factor:                              1.2170
 vdW POTENTIAL|          s8 Scaling Factor:                               0.7220
 vdW POTENTIAL|          Cutoff for CN calculation:                   0.1000E-05

 QS| Method:                                                                 GPW
 QS| Density plane wave grid type                        NON-SPHERICAL FULLSPACE
 QS| Number of grid levels:                                                    5
 QS| Density cutoff [a.u.]:                                                600.0
 QS| Multi grid cutoff [a.u.]: 1) grid level                               600.0
 QS|                           2) grid level                               200.0
 QS|                           3) grid level                                66.7
 QS|                           4) grid level                                22.2
 QS|                           5) grid level                                 7.4
 QS| Grid level progression factor:                                          3.0
 QS| Relative density cutoff [a.u.]:                                        20.0
 QS| Consistent realspace mapping and integration 
 QS| Interaction thresholds: eps_pgf_orb:                                1.0E-07
 QS|                         eps_filter_matrix:                          0.0E+00
 QS|                         eps_core_charge:                            1.0E-16
 QS|                         eps_rho_gspace:                             1.0E-14
 QS|                         eps_rho_rspace:                             1.0E-14
 QS|                         eps_gvg_rspace:                             1.0E-07
 QS|                         eps_ppl:                                    1.0E-02
 QS|                         eps_ppnl:                                   1.0E-09


 ATOMIC KIND INFORMATION

  1. Atomic kind: H                                     Number of atoms:       4

     Orbital Basis Set                                     DZVP-MOLOPT-SR-GTH-q1

       Number of orbital shell sets:                                           1
       Number of orbital shells:                                               3
       Number of primitive Cartesian functions:                                5
       Number of Cartesian basis functions:                                    5
       Number of spherical basis functions:                                    5
       Norm type:                                                              2

       Normalised Cartesian orbitals:

                        Set   Shell   Orbital            Exponent    Coefficient

                          1       1    2s               10.068468      -0.133023
                                                         2.680223      -0.177618
                                                         0.791502      -0.258419
                                                         0.239116      -0.107525
                                                         0.082193      -0.014019

                          1       2    3s               10.068468       0.344673
                                                         2.680223       1.819821
                                                         0.791502      -0.999069
                                                         0.239116       0.017430
                                                         0.082193       0.082660

                          1       3    3px              10.068468       0.155326
                                                         2.680223       0.367157
                                                         0.791502       0.311480
                                                         0.239116       0.080105
                                                         0.082193       0.033440
                          1       3    3py              10.068468       0.155326
                                                         2.680223       0.367157
                                                         0.791502       0.311480
                                                         0.239116       0.080105
                                                         0.082193       0.033440
                          1       3    3pz              10.068468       0.155326
                                                         2.680223       0.367157
                                                         0.791502       0.311480
                                                         0.239116       0.080105
                                                         0.082193       0.033440

     GTH Potential information for                                    GTH-PBE-q1

       Description:                       Goedecker-Teter-Hutter pseudopotential
                                           Goedecker et al., PRB 54, 1703 (1996)
                                          Hartwigsen et al., PRB 58, 3641 (1998)
                                                      Krack, TCA 114, 145 (2005)

       Gaussian exponent of the core charge distribution:              12.500000
       Electronic configuration (s p d ...):                                   1

       Parameters of the local part of the GTH pseudopotential:

                          rloc        C1          C2          C3          C4
                        0.200000   -4.178900    0.724463

  2. Atomic kind: C                                     Number of atoms:       1

     Orbital Basis Set                                     DZVP-MOLOPT-SR-GTH-q4

       Number of orbital shell sets:                                           1
       Number of orbital shells:                                               5
       Number of primitive Cartesian functions:                                5
       Number of Cartesian basis functions:                                   14
       Number of spherical basis functions:                                   13
       Norm type:                                                              2

       Normalised Cartesian orbitals:

                        Set   Shell   Orbital            Exponent    Coefficient

                          1       1    2s                5.605331       0.322515
                                                         2.113016       0.213043
                                                         0.769911      -0.209686
                                                         0.348157      -0.219794
                                                         0.128212      -0.022789

                          1       2    3s                5.605331       0.552234
                                                         2.113016       0.082072
                                                         0.769911       0.007843
                                                         0.348157       0.136893
                                                         0.128212       0.074283

                          1       3    3px               5.605331      -0.703879
                                                         2.113016      -0.642521
                                                         0.769911      -0.374851
                                                         0.348157      -0.139743
                                                         0.128212      -0.027849
                          1       3    3py               5.605331      -0.703879
                                                         2.113016      -0.642521
                                                         0.769911      -0.374851
                                                         0.348157      -0.139743
                                                         0.128212      -0.027849
                          1       3    3pz               5.605331      -0.703879
                                                         2.113016      -0.642521
                                                         0.769911      -0.374851
                                                         0.348157      -0.139743
                                                         0.128212      -0.027849

                          1       4    4px               5.605331      -0.480376
                                                         2.113016      -0.552894
                                                         0.769911      -0.316145
                                                         0.348157       0.210505
                                                         0.128212       0.076095
                          1       4    4py               5.605331      -0.480376
                                                         2.113016      -0.552894
                                                         0.769911      -0.316145
                                                         0.348157       0.210505
                                                         0.128212       0.076095
                          1       4    4pz               5.605331      -0.480376
                                                         2.113016      -0.552894
                                                         0.769911      -0.316145
                                                         0.348157       0.210505
                                                         0.128212       0.076095

                          1       5    4dx2              5.605331       0.640026
                                                         2.113016       0.274300
                                                         0.769911       0.446711
                                                         0.348157       0.028674
                                                         0.128212       0.029790
                          1       5    4dxy              5.605331       1.108557
                                                         2.113016       0.475102
                                                         0.769911       0.773726
                                                         0.348157       0.049666
                                                         0.128212       0.051599
                          1       5    4dxz              5.605331       1.108557
                                                         2.113016       0.475102
                                                         0.769911       0.773726
                                                         0.348157       0.049666
                                                         0.128212       0.051599
                          1       5    4dy2              5.605331       0.640026
                                                         2.113016       0.274300
                                                         0.769911       0.446711
                                                         0.348157       0.028674
                                                         0.128212       0.029790
                          1       5    4dyz              5.605331       1.108557
                                                         2.113016       0.475102
                                                         0.769911       0.773726
                                                         0.348157       0.049666
                                                         0.128212       0.051599
                          1       5    4dz2              5.605331       0.640026
                                                         2.113016       0.274300
                                                         0.769911       0.446711
                                                         0.348157       0.028674
                                                         0.128212       0.029790

     GTH Potential information for                                    GTH-PBE-q4

       Description:                       Goedecker-Teter-Hutter pseudopotential
                                           Goedecker et al., PRB 54, 1703 (1996)
                                          Hartwigsen et al., PRB 58, 3641 (1998)
                                                      Krack, TCA 114, 145 (2005)

       Gaussian exponent of the core charge distribution:               4.364419
       Electronic configuration (s p d ...):                               2   2

       Parameters of the local part of the GTH pseudopotential:

                          rloc        C1          C2          C3          C4
                        0.338471   -8.803674    1.339211

       Parameters of the non-local part of the GTH pseudopotential:

                   l      r(l)      h(i,j,l)

                   0    0.302576    9.622487
                   1    0.291507

  3. Atomic kind: O                                     Number of atoms:       1

     Orbital Basis Set                                     DZVP-MOLOPT-SR-GTH-q6

       Number of orbital shell sets:                                           1
       Number of orbital shells:                                               5
       Number of primitive Cartesian functions:                                5
       Number of Cartesian basis functions:                                   14
       Number of spherical basis functions:                                   13
       Norm type:                                                              2

       Normalised Cartesian orbitals:

                        Set   Shell   Orbital            Exponent    Coefficient

                          1       1    2s               10.389228       0.396646
                                                         3.849621       0.208811
                                                         1.388401      -0.301641
                                                         0.496955      -0.274061
                                                         0.162492      -0.033677

                          1       2    3s               10.389228       0.303673
                                                         3.849621       0.240943
                                                         1.388401      -0.313066
                                                         0.496955      -0.043055
                                                         0.162492       0.213991

                          1       3    3px              10.389228      -1.530415
                                                         3.849621      -1.371928
                                                         1.388401      -0.761951
                                                         0.496955      -0.253695
                                                         0.162492      -0.035541
                          1       3    3py              10.389228      -1.530415
                                                         3.849621      -1.371928
                                                         1.388401      -0.761951
                                                         0.496955      -0.253695
                                                         0.162492      -0.035541
                          1       3    3pz              10.389228      -1.530415
                                                         3.849621      -1.371928
                                                         1.388401      -0.761951
                                                         0.496955      -0.253695
                                                         0.162492      -0.035541

                          1       4    4px              10.389228      -0.565392
                                                         3.849621      -0.038231
                                                         1.388401      -0.382373
                                                         0.496955       0.179070
                                                         0.162492       0.122714
                          1       4    4py              10.389228      -0.565392
                                                         3.849621      -0.038231
                                                         1.388401      -0.382373
                                                         0.496955       0.179070
                                                         0.162492       0.122714
                          1       4    4pz              10.389228      -0.565392
                                                         3.849621      -0.038231
                                                         1.388401      -0.382373
                                                         0.496955       0.179070
                                                         0.162492       0.122714

                          1       5    4dx2             10.389228       1.867377
                                                         3.849621       0.670994
                                                         1.388401       1.353441
                                                         0.496955       0.273538
                                                         0.162492       0.006620
                          1       5    4dxy             10.389228       3.234392
                                                         3.849621       1.162195
                                                         1.388401       2.344229
                                                         0.496955       0.473781
                                                         0.162492       0.011466
                          1       5    4dxz             10.389228       3.234392
                                                         3.849621       1.162195
                                                         1.388401       2.344229
                                                         0.496955       0.473781
                                                         0.162492       0.011466
                          1       5    4dy2             10.389228       1.867377
                                                         3.849621       0.670994
                                                         1.388401       1.353441
                                                         0.496955       0.273538
                                                         0.162492       0.006620
                          1       5    4dyz             10.389228       3.234392
                                                         3.849621       1.162195
                                                         1.388401       2.344229
                                                         0.496955       0.473781
                                                         0.162492       0.011466
                          1       5    4dz2             10.389228       1.867377
                                                         3.849621       0.670994
                                                         1.388401       1.353441
                                                         0.496955       0.273538
                                                         0.162492       0.006620

     GTH Potential information for                                    GTH-PBE-q6

       Description:                       Goedecker-Teter-Hutter pseudopotential
                                           Goedecker et al., PRB 54, 1703 (1996)
                                          Hartwigsen et al., PRB 58, 3641 (1998)
                                                      Krack, TCA 114, 145 (2005)

       Gaussian exponent of the core charge distribution:               8.360253
       Electronic configuration (s p d ...):                               2   4

       Parameters of the local part of the GTH pseudopotential:

                          rloc        C1          C2          C3          C4
                        0.244554  -16.667215    2.487311

       Parameters of the non-local part of the GTH pseudopotential:

                   l      r(l)      h(i,j,l)

                   0    0.220956   18.337458
                   1    0.211332


 MOLECULE KIND INFORMATION


 All atoms are their own molecule, skipping detailed information


 TOTAL NUMBERS AND MAXIMUM NUMBERS

  Total number of            - Atomic kinds:                                   3
                             - Atoms:                                          6
                             - Shell sets:                                     6
                             - Shells:                                        22
                             - Primitive Cartesian functions:                 30
                             - Cartesian basis functions:                     48
                             - Spherical basis functions:                     46

  Maximum angular momentum of- Orbital basis functions:                        2
                             - Local part of the GTH pseudopotential:          2
                             - Non-local part of the GTH pseudopotential:      0


 MODULE QUICKSTEP:  ATOMIC COORDINATES IN angstrom

  Atom  Kind  Element       X           Y           Z          Z(eff)       Mass

       1     1 H    1    3.380096    4.743927   20.523829      1.00       1.0079
       2     1 H    1    4.023920    3.089900   20.277903      1.00       1.0079
       3     1 H    1    2.291532    3.336457   20.613450      1.00       1.0079
       4     2 C    6    3.301946    3.694611   20.848751      4.00      12.0107
       5     3 O    8    3.465192    3.546623   22.267737      6.00      15.9994
       6     1 H    1    4.350062    3.866711   22.504127      1.00       1.0079




 SCF PARAMETERS         Density guess:                                    ATOMIC
                        --------------------------------------------------------
                        max_scf:                                             100
                        max_scf_history:                                       0
                        max_diis:                                              4
                        --------------------------------------------------------
                        eps_scf:                                        5.00E-06
                        eps_scf_history:                                0.00E+00
                        eps_diis:                                       1.00E-01
                        eps_eigval:                                     1.00E-05
                        --------------------------------------------------------
                        level_shift [a.u.]:                                 0.00
                        --------------------------------------------------------
                        Outer loop SCF in use 
                        No variables optimised in outer loop
                        eps_scf                                         5.00E-06
                        max_scf                                                4
                        No outer loop optimization
                        step_size                                       5.00E-01

 PW_GRID| Information for grid number                                          1
 PW_GRID| Grid distributed over                                    40 processors
 PW_GRID| Real space group dimensions                                    40    1
 PW_GRID| the grid is blocked:                                                NO
 PW_GRID| Cutoff [a.u.]                                                    600.0
 PW_GRID| spherical cutoff:                                                   NO
 PW_GRID|   Bounds   1           -144     143                Points:         288
 PW_GRID|   Bounds   2           -144     143                Points:         288
 PW_GRID|   Bounds   3           -312     312                Points:         625
 PW_GRID| Volume element (a.u.^3)  0.5510E-03     Volume (a.u.^3)     28564.8611
 PW_GRID| Grid span                                                    FULLSPACE
 PW_GRID|   Distribution                         Average         Max         Min
 PW_GRID|   G-Vectors                          1296000.0     1296000     1296000
 PW_GRID|   G-Rays                                4500.0        4500        4500
 PW_GRID|   Real Space Points                  1296000.0     1440000     1260000

 PW_GRID| Information for grid number                                          2
 PW_GRID| Grid distributed over                                    40 processors
 PW_GRID| Real space group dimensions                                    40    1
 PW_GRID| the grid is blocked:                                                NO
 PW_GRID| Cutoff [a.u.]                                                    200.0
 PW_GRID| spherical cutoff:                                                   NO
 PW_GRID|   Bounds   1            -80      79                Points:         160
 PW_GRID|   Bounds   2            -80      79                Points:         160
 PW_GRID|   Bounds   3           -180     179                Points:         360
 PW_GRID| Volume element (a.u.^3)  0.3099E-02     Volume (a.u.^3)     28564.8611
 PW_GRID| Grid span                                                    FULLSPACE
 PW_GRID|   Distribution                         Average         Max         Min
 PW_GRID|   G-Vectors                           230400.0      230560      230240
 PW_GRID|   G-Rays                                1440.0        1441        1439
 PW_GRID|   Real Space Points                   230400.0      230400      230400

 PW_GRID| Information for grid number                                          3
 PW_GRID| Grid distributed over                                    40 processors
 PW_GRID| Real space group dimensions                                    40    1
 PW_GRID| the grid is blocked:                                                NO
 PW_GRID| Cutoff [a.u.]                                                     66.7
 PW_GRID| spherical cutoff:                                                   NO
 PW_GRID|   Bounds   1            -48      47                Points:          96
 PW_GRID|   Bounds   2            -48      47                Points:          96
 PW_GRID|   Bounds   3           -108     107                Points:         216
 PW_GRID| Volume element (a.u.^3)  0.1435E-01     Volume (a.u.^3)     28564.8611
 PW_GRID| Grid span                                                    FULLSPACE
 PW_GRID|   Distribution                         Average         Max         Min
 PW_GRID|   G-Vectors                            49766.4       50304       48672
 PW_GRID|   G-Rays                                 518.4         524         507
 PW_GRID|   Real Space Points                    49766.4       62208       41472

 PW_GRID| Information for grid number                                          4
 PW_GRID| Grid distributed over                                    40 processors
 PW_GRID| Real space group dimensions                                    40    1
 PW_GRID| the grid is blocked:                                                NO
 PW_GRID| Cutoff [a.u.]                                                     22.2
 PW_GRID| spherical cutoff:                                                   NO
 PW_GRID|   Bounds   1            -27      26                Points:          54
 PW_GRID|   Bounds   2            -27      26                Points:          54
 PW_GRID|   Bounds   3            -60      59                Points:         120
 PW_GRID| Volume element (a.u.^3)  0.8163E-01     Volume (a.u.^3)     28564.8611
 PW_GRID| Grid span                                                    FULLSPACE
 PW_GRID|   Distribution                         Average         Max         Min
 PW_GRID|   G-Vectors                             8748.0        9018        8370
 PW_GRID|   G-Rays                                 162.0         167         155
 PW_GRID|   Real Space Points                     8748.0       12960        6480

 PW_GRID| Information for grid number                                          5
 PW_GRID| Grid distributed over                                    40 processors
 PW_GRID| Real space group dimensions                                     5    8
 PW_GRID| the grid is blocked:                                                NO
 PW_GRID| Cutoff [a.u.]                                                      7.4
 PW_GRID| spherical cutoff:                                                   NO
 PW_GRID|   Bounds   1            -16      15                Points:          32
 PW_GRID|   Bounds   2            -16      15                Points:          32
 PW_GRID|   Bounds   3            -36      35                Points:          72
 PW_GRID| Volume element (a.u.^3)  0.3874         Volume (a.u.^3)     28564.8611
 PW_GRID| Grid span                                                    FULLSPACE
 PW_GRID|   Distribution                         Average         Max         Min
 PW_GRID|   G-Vectors                             1843.2        2048        1600
 PW_GRID|   G-Rays                                  57.6          64          50
 PW_GRID|   Real Space Points                     1843.2        2016        1728

 POISSON| Solver                                                        PERIODIC
 POISSON| Periodicity                                                        XYZ

 RS_GRID| Information for grid number                                          1
 RS_GRID|   Bounds   1           -144     143                Points:         288
 RS_GRID|   Bounds   2           -144     143                Points:         288
 RS_GRID|   Bounds   3           -312     312                Points:         625
 RS_GRID| Real space distribution over                                  4 groups
 RS_GRID| Real space distribution along direction                              2
 RS_GRID| Border size                                                         55
 RS_GRID| Real space distribution over                                 10 groups
 RS_GRID| Real space distribution along direction                              3
 RS_GRID| Border size                                                         55
 RS_GRID|   Distribution                         Average         Max         Min
 RS_GRID|   Planes                                 182.0         182         182
 RS_GRID|   Distribution                         Average         Max         Min
 RS_GRID|   Planes                                 172.5         173         172

 RS_GRID| Information for grid number                                          2
 RS_GRID|   Bounds   1            -80      79                Points:         160
 RS_GRID|   Bounds   2            -80      79                Points:         160
 RS_GRID|   Bounds   3           -180     179                Points:         360
 RS_GRID| Real space distribution over                                  4 groups
 RS_GRID| Real space distribution along direction                              2
 RS_GRID| Border size                                                         37
 RS_GRID| Real space distribution over                                 10 groups
 RS_GRID| Real space distribution along direction                              3
 RS_GRID| Border size                                                         37
 RS_GRID|   Distribution                         Average         Max         Min
 RS_GRID|   Planes                                 114.0         114         114
 RS_GRID|   Distribution                         Average         Max         Min
 RS_GRID|   Planes                                 110.0         110         110

 RS_GRID| Information for grid number                                          3
 RS_GRID|   Bounds   1            -48      47                Points:          96
 RS_GRID|   Bounds   2            -48      47                Points:          96
 RS_GRID|   Bounds   3           -108     107                Points:         216
 RS_GRID| Real space fully replicated
 RS_GRID| Group size                                                           1

 RS_GRID| Information for grid number                                          4
 RS_GRID|   Bounds   1            -27      26                Points:          54
 RS_GRID|   Bounds   2            -27      26                Points:          54
 RS_GRID|   Bounds   3            -60      59                Points:         120
 RS_GRID| Real space fully replicated
 RS_GRID| Group size                                                           1

 RS_GRID| Information for grid number                                          5
 RS_GRID|   Bounds   1            -16      15                Points:          32
 RS_GRID|   Bounds   2            -16      15                Points:          32
 RS_GRID|   Bounds   3            -36      35                Points:          72
 RS_GRID| Real space fully replicated
 RS_GRID| Group size                                                           1

 BFGS| Use rational function optimization for step estimation:                NO
 BFGS| Use model Hessian for initial guess:                                  YES
 BFGS| Restart Hessian:                                                       NO
 BFGS| Trust radius:                                                       0.472

 *******************************************************************************
 ***                     STARTING GEOMETRY OPTIMIZATION                      ***
 ***                                   BFGS                                  ***
 *******************************************************************************

 Number of electrons:                                                         14
 Number of occupied orbitals:                                                  7
 Number of molecular orbitals:                                                 7

 Number of orbital functions:                                                 46
 Number of independent orbital functions:                                     46

 Extrapolation method: initial_guess

 Atomic guess: The first density matrix is obtained in terms of atomic orbitals
               and electronic configurations assigned to each atomic kind

 Guess for atomic kind: H

 Electronic structure
    Total number of core electrons                                          0.00
    Total number of valence electrons                                       1.00
    Total number of electrons                                               1.00
    Multiplicity                                                   not specified
    S      1.00
 

 *******************************************************************************
                  Iteration          Convergence                     Energy [au]
 *******************************************************************************
                          1        0.250972E-02                  -0.375256815885
                          2        0.570752E-04                  -0.375258666164
                          3        0.832405E-09                  -0.375258667122

 Energy components [Hartree]           Total Energy ::           -0.375258667122
                                        Band Energy ::           -0.076317618391
                                     Kinetic Energy ::            0.771356566341
                                   Potential Energy ::           -1.146615233463
                                      Virial (-V/T) ::            1.486491829455
                                        Core Energy ::           -0.456090715790
                                          XC Energy ::           -0.314218627334
                                     Coulomb Energy ::            0.395050676003
                       Total Pseudopotential Energy ::           -1.238482237174
                       Local Pseudopotential Energy ::           -1.238482237174
                    Nonlocal Pseudopotential Energy ::            0.000000000000
                                        Confinement ::            0.110349550431

 Orbital energies  State     L     Occupation   Energy[a.u.]          Energy[eV]

                       1     0          1.000      -0.076318           -2.076708
 

 Total Electron Density at R=0:                                         0.425022

 Guess for atomic kind: C

 Electronic structure
    Total number of core electrons                                          2.00
    Total number of valence electrons                                       4.00
    Total number of electrons                                               6.00
    Multiplicity                                                   not specified
    S   [  2.00] 2.00
    P      2.00
 

 *******************************************************************************
                  Iteration          Convergence                     Energy [au]
 *******************************************************************************
                          1        0.261814E-01                  -5.246264729087
                          2        0.905236E-02                  -5.246529568708
                          3        0.681743E-04                  -5.246565167452
                          4        0.792829E-08                  -5.246565169473

 Energy components [Hartree]           Total Energy ::           -5.246565169473
                                        Band Energy ::           -1.058732595430
                                     Kinetic Energy ::            3.518928170589
                                   Potential Energy ::           -8.765493340062
                                      Virial (-V/T) ::            2.490955460053
                                        Core Energy ::           -8.429377169956
                                          XC Energy ::           -1.450183342358
                                     Coulomb Energy ::            4.632995342842
                       Total Pseudopotential Energy ::          -11.978048809389
                       Local Pseudopotential Energy ::          -12.816738187351
                    Nonlocal Pseudopotential Energy ::            0.838689377962
                                        Confinement ::            0.297434688432

 Orbital energies  State     L     Occupation   Energy[a.u.]          Energy[eV]

                       1     0          2.000      -0.410911          -11.181458
 
                       1     1          2.000      -0.118455           -3.223332
 

 Total Electron Density at R=0:                                         0.001337

 Guess for atomic kind: O

 Electronic structure
    Total number of core electrons                                          2.00
    Total number of valence electrons                                       6.00
    Total number of electrons                                               8.00
    Multiplicity                                                   not specified
    S   [  2.00] 2.00
    P      4.00
 

 *******************************************************************************
                  Iteration          Convergence                     Energy [au]
 *******************************************************************************
                          1        0.702811                     -15.577904332270
                          2        0.612408                     -15.588447180504
                          3        0.955344E-02                 -15.655871208406
                          4        0.223754E-02                 -15.655885053552
                          5        0.157183E-02                 -15.655885461027
                          6        0.124953E-02                 -15.655885607150
                          7        0.312011E-06                 -15.655885858066

 Energy components [Hartree]           Total Energy ::          -15.655885858066
                                        Band Energy ::           -2.983128125584
                                     Kinetic Energy ::           11.754765134683
                                   Potential Energy ::          -27.410650992750
                                      Virial (-V/T) ::            2.331875684345
                                        Core Energy ::          -26.153522949072
                                          XC Energy ::           -3.157392363346
                                     Coulomb Energy ::           13.655029454351
                       Total Pseudopotential Energy ::          -37.943026860963
                       Local Pseudopotential Energy ::          -39.220419683052
                    Nonlocal Pseudopotential Energy ::            1.277392822089
                                        Confinement ::            0.347387772086

 Orbital energies  State     L     Occupation   Energy[a.u.]          Energy[eV]

                       1     0          2.000      -0.861522          -23.443215
 
                       1     1          4.000      -0.315021           -8.572154
 

 Total Electron Density at R=0:                                         0.000093
 Re-scaling the density matrix to get the right number of electrons
                  # Electrons              Trace(P)               Scaling factor
                           14                14.000                        1.000


 SCF WAVEFUNCTION OPTIMIZATION

  ----------------------------------- OT ---------------------------------------
  Minimizer      : CG                  : conjugate gradient
  Preconditioner : FULL_ALL            : diagonalization, state selective
  Precond_solver : DEFAULT
  Line search    : 2PNT                : 2 energies, one gradient
  stepsize       :    0.15000000                  energy_gap     :    0.08000000
  eps_taylor     :   0.10000E-15                  max_taylor     :             4
  ----------------------------------- OT ---------------------------------------

  Step     Update method      Time    Convergence         Total energy    Change
  ------------------------------------------------------------------------------
     1 OT CG       0.15E+00    4.5     0.41242988       -21.3195221673 -2.13E+01
     2 OT LS       0.75E-01    2.9                      -21.3319454784
     3 OT CG       0.75E-01    5.5     0.40200194       -22.3010019627 -9.81E-01
     4 OT LS       0.27E-01    2.9                      -21.2681067887
     5 OT CG       0.27E-01    5.6     0.25288218       -22.8958457239 -5.95E-01
     6 OT LS       0.11E+00    2.9                      -23.3902479668
     7 OT CG       0.11E+00    5.5     0.18896774       -23.7138038082 -8.18E-01
     8 OT LS       0.19E-01    3.2                      -23.0907615719
     9 OT CG       0.19E-01    6.4     0.17822937       -23.7421535718 -2.83E-02
    10 OT LS       0.55E-01    3.5                      -23.9040565790
    11 OT CG       0.55E-01    6.5     0.07081695       -24.0040408121 -2.62E-01
    12 OT LS       0.66E-01    3.8                      -24.0461604333
    13 OT CG       0.66E-01    6.5     0.04641521       -24.0472244123 -4.32E-02
    14 OT LS       0.54E-01    3.5                      -24.0652467669
    15 OT CG       0.54E-01    6.1     0.02400794       -24.0661089630 -1.89E-02
    16 OT LS       0.93E-01    2.9                      -24.0732320847
    17 OT CG       0.93E-01    5.5     0.01626492       -24.0747447793 -8.64E-03
    18 OT LS       0.10E+00    3.1                      -24.0790457829
    19 OT CG       0.10E+00    5.5     0.01117534       -24.0790707927 -4.33E-03
    20 OT LS       0.65E-01    3.7                      -24.0799674150
    21 OT CG       0.65E-01    6.7     0.00512541       -24.0803743527 -1.30E-03
    22 OT LS       0.10E+00    3.5                      -24.0807443822
    23 OT CG       0.10E+00    6.5     0.00367403       -24.0807958287 -4.21E-04
    24 OT LS       0.86E-01    3.4                      -24.0809774047
    25 OT CG       0.86E-01    6.6     0.00261338       -24.0809823560 -1.87E-04
    26 OT LS       0.76E-01    3.4                      -24.0810645360
    27 OT CG       0.76E-01    6.5     0.00135535       -24.0810658913 -8.35E-05
    28 OT LS       0.92E-01    3.5                      -24.0810923126
    29 OT CG       0.92E-01    6.7     0.00079529       -24.0810931540 -2.73E-05
    30 OT LS       0.92E-01    3.4                      -24.0811025428
    31 OT CG       0.92E-01    6.6     0.00054485       -24.0811025428 -9.39E-06
    32 OT LS       0.63E-01    3.4                      -24.0811049266
    33 OT CG       0.63E-01    6.5     0.00029091       -24.0811055623 -3.02E-06
    34 OT LS       0.11E+00    2.9                      -24.0811067747
    35 OT CG       0.11E+00    5.5     0.00017198       -24.0811070172 -1.45E-06
    36 OT LS       0.91E-01    2.9                      -24.0811074358
    37 OT CG       0.91E-01    5.6     0.00010559       -24.0811074493 -4.32E-07
    38 OT LS       0.66E-01    2.9                      -24.0811075509
    39 OT CG       0.66E-01    5.4     0.00006623       -24.0811075676 -1.18E-07
    40 OT LS       0.96E-01    3.1                      -24.0811076288
    41 OT CG       0.96E-01    5.4     0.00003547       -24.0811076354 -6.78E-08
    42 OT LS       0.10E+00    2.9                      -24.0811076561
    43 OT CG       0.10E+00    5.4     0.00002273       -24.0811076562 -2.08E-08
    44 OT LS       0.66E-01    3.0                      -24.0811076601
    45 OT CG       0.66E-01    5.8     0.00001448       -24.0811076617 -5.51E-09
    46 OT LS       0.97E-01    3.3                      -24.0811076647
    47 OT CG       0.97E-01    6.4     0.00000787       -24.0811076650 -3.29E-09
    48 OT LS       0.82E-01    3.6                      -24.0811076658
    49 OT CG       0.82E-01    6.5     0.00000504       -24.0811076659 -8.20E-10
    50 OT LS       0.75E-01    3.4                      -24.0811076662
    51 OT CG       0.75E-01    6.6     0.00000291       -24.0811076662 -3.08E-10

  *** SCF run converged in    51 steps ***


  Electronic density on regular grids:        -14.0000000000        0.0000000000
  Core density on regular grids:               14.0000000000       -0.0000000000
  Total charge density on r-space grids:       -0.0000000000
  Total charge density g-space grids:          -0.0000000000

  Overlap energy of the core charge distribution:               0.00000073883530
  Self energy of the core charge distribution:                -60.50311084124164
  Core Hamiltonian energy:                                     18.06850819849660
  Hartree energy:                                              25.03953807744393
  Exchange-correlation energy:                                 -6.68548246350274
  Dispersion energy:                                           -0.00056137619209

  Total energy:                                               -24.08110766616064

  outer SCF iter =    1 RMS gradient =   0.29E-05 energy =        -24.0811076662
  outer SCF loop converged in   1 iterations or   51 steps


 !-----------------------------------------------------------------------------!
                     Mulliken Population Analysis

 #  Atom  Element  Kind  Atomic population                           Net charge
       1     H        1          0.916655                              0.083345
       2     H        1          0.916763                              0.083237
       3     H        1          0.908572                              0.091428
       4     C        2          4.184861                             -0.184861
       5     O        3          6.215994                             -0.215994
       6     H        1          0.857155                              0.142845
 # Total charge                             14.000000                 -0.000000

 !-----------------------------------------------------------------------------!

 !-----------------------------------------------------------------------------!
                           Hirshfeld Charges

  #Atom  Element  Kind  Ref Charge     Population                    Net charge
      1       H      1       1.000          0.564                         0.436
      2       H      1       1.000          0.564                         0.436
      3       H      1       1.000          0.557                         0.443
      4       C      2       4.000          5.068                        -1.068
      5       O      3       6.000          6.796                        -0.796
      6       H      1       1.000          0.444                         0.556

  Total Charge                                                            0.007
 !-----------------------------------------------------------------------------!

 ENERGY| Total FORCE_EVAL ( QS ) energy (a.u.):              -24.081107666291171


 --------  Informations at step =     0 ------------
  Optimization Method        =                 BFGS
  Total Energy               =       -24.0811076663
  Used time                  =              248.242
 ---------------------------------------------------

 --------------------------
 OPTIMIZATION STEP:      1
 --------------------------

 Number of electrons:                                                         14
 Number of occupied orbitals:                                                  7
 Number of molecular orbitals:                                                 7

 Number of orbital functions:                                                 46
 Number of independent orbital functions:                                     46

 Parameters for the always stable predictor-corrector (ASPC) method:

  ASPC order: 0

  B(1) =   1.000000

 Extrapolation method: ASPC


 SCF WAVEFUNCTION OPTIMIZATION

  ----------------------------------- OT ---------------------------------------
  Minimizer      : CG                  : conjugate gradient
  Preconditioner : FULL_ALL            : diagonalization, state selective
  Precond_solver : DEFAULT
  Line search    : 2PNT                : 2 energies, one gradient
  stepsize       :    0.15000000                  energy_gap     :    0.08000000
  eps_taylor     :   0.10000E-15                  max_taylor     :             4
  ----------------------------------- OT ---------------------------------------

  Step     Update method      Time    Convergence         Total energy    Change
  ------------------------------------------------------------------------------
     1 OT CG       0.15E+00    4.2     0.00004128       -24.0811076975 -2.41E+01
     2 OT LS       0.24E+00    2.9                      -24.0811077542
     3 OT CG       0.24E+00    5.7     0.00000617       -24.0811077636 -6.61E-08
     4 OT LS       0.13E+00    2.9                      -24.0811077639
     5 OT CG       0.13E+00    5.5     0.00000149       -24.0811077644 -8.14E-10

  *** SCF run converged in     5 steps ***


  Electronic density on regular grids:        -14.0000000000        0.0000000000
  Core density on regular grids:               14.0000000000       -0.0000000000
  Total charge density on r-space grids:        0.0000000000
  Total charge density g-space grids:           0.0000000000

  Overlap energy of the core charge distribution:               0.00000073973066
  Self energy of the core charge distribution:                -60.50311084124164
  Core Hamiltonian energy:                                     18.06854495299729
  Hartree energy:                                              25.03952308765327
  Exchange-correlation energy:                                 -6.68550433301535
  Dispersion energy:                                           -0.00056137052727

  Total energy:                                               -24.08110776440304

  outer SCF iter =    1 RMS gradient =   0.15E-05 energy =        -24.0811077644
  outer SCF loop converged in   1 iterations or    5 steps


 !-----------------------------------------------------------------------------!
                     Mulliken Population Analysis

 #  Atom  Element  Kind  Atomic population                           Net charge
       1     H        1          0.916649                              0.083351
       2     H        1          0.916771                              0.083229
       3     H        1          0.908597                              0.091403
       4     C        2          4.184785                             -0.184785
       5     O        3          6.216011                             -0.216011
       6     H        1          0.857186                              0.142814
 # Total charge                             14.000000                 -0.000000

 !-----------------------------------------------------------------------------!

 !-----------------------------------------------------------------------------!
                           Hirshfeld Charges

  #Atom  Element  Kind  Ref Charge     Population                    Net charge
      1       H      1       1.000          0.564                         0.436
      2       H      1       1.000          0.564                         0.436
      3       H      1       1.000          0.557                         0.443
      4       C      2       4.000          5.068                        -1.068
      5       O      3       6.000          6.796                        -0.796
      6       H      1       1.000          0.444                         0.556

  Total Charge                                                            0.007
 !-----------------------------------------------------------------------------!

 ENERGY| Total FORCE_EVAL ( QS ) energy (a.u.):              -24.081107764443104


 --------  Informations at step =     1 ------------
  Optimization Method        =                 BFGS
  Total Energy               =       -24.0811077644
  Real energy change         =        -0.0000000982
  Predicted change in energy =        -0.0000000703
  Scaling factor             =         0.0000000000
  Step size                  =         0.0004934319
  Trust radius               =         0.4724315332
  Decrease in energy         =                  YES
  Used time                  =               30.923

  Convergence check :
  Max. step size             =         0.0004934319
  Conv. limit for step size  =         0.0030000000
  Convergence in step size   =                  YES
  RMS step size              =         0.0002395642
  Conv. limit for RMS step   =         0.0015000000
  Convergence in RMS step    =                  YES
  Max. gradient              =         0.0000731933
  Conv. limit for gradients  =         0.0004500000
  Conv. in gradients         =                  YES
  RMS gradient               =         0.0000317071
  Conv. limit for RMS grad.  =         0.0003000000
  Conv. in RMS gradients     =                  YES
 ---------------------------------------------------

 *******************************************************************************
 ***                    GEOMETRY OPTIMIZATION COMPLETED                      ***
 *******************************************************************************

                    Reevaluating energy at the minimum

 Number of electrons:                                                         14
 Number of occupied orbitals:                                                  7
 Number of molecular orbitals:                                                 7

 Number of orbital functions:                                                 46
 Number of independent orbital functions:                                     46

 Parameters for the always stable predictor-corrector (ASPC) method:

  ASPC order: 0

  B(1) =   2.000000
  B(2) =  -1.000000

 Extrapolation method: ASPC


 SCF WAVEFUNCTION OPTIMIZATION

  ----------------------------------- OT ---------------------------------------
  Minimizer      : CG                  : conjugate gradient
  Preconditioner : FULL_ALL            : diagonalization, state selective
  Precond_solver : DEFAULT
  Line search    : 2PNT                : 2 energies, one gradient
  stepsize       :    0.15000000                  energy_gap     :    0.08000000
  eps_taylor     :   0.10000E-15                  max_taylor     :             4
  ----------------------------------- OT ---------------------------------------

  Step     Update method      Time    Convergence         Total energy    Change
  ------------------------------------------------------------------------------
     1 OT CG       0.15E+00    4.3     0.00004129       -24.0811076975 -2.41E+01
     2 OT LS       0.24E+00    2.9                      -24.0811077542
     3 OT CG       0.24E+00    6.1     0.00000656       -24.0811077635 -6.61E-08
     4 OT LS       0.12E+00    3.5                      -24.0811077635
     5 OT CG       0.12E+00    6.5     0.00000188       -24.0811077644 -8.34E-10

  *** SCF run converged in     5 steps ***


  Electronic density on regular grids:        -14.0000000000        0.0000000000
  Core density on regular grids:               14.0000000000       -0.0000000000
  Total charge density on r-space grids:        0.0000000000
  Total charge density g-space grids:           0.0000000000

  Overlap energy of the core charge distribution:               0.00000073973066
  Self energy of the core charge distribution:                -60.50311084124164
  Core Hamiltonian energy:                                     18.06858648042397
  Hartree energy:                                              25.03948835678071
  Exchange-correlation energy:                                 -6.68551112954443
  Dispersion energy:                                           -0.00056137052727

  Total energy:                                               -24.08110776437800

  outer SCF iter =    1 RMS gradient =   0.19E-05 energy =        -24.0811077644
  outer SCF loop converged in   1 iterations or    5 steps


 !-----------------------------------------------------------------------------!
                     Mulliken Population Analysis

 #  Atom  Element  Kind  Atomic population                           Net charge
       1     H        1          0.916649                              0.083351
       2     H        1          0.916771                              0.083229
       3     H        1          0.908595                              0.091405
       4     C        2          4.184791                             -0.184791
       5     O        3          6.216007                             -0.216007
       6     H        1          0.857188                              0.142812
 # Total charge                             14.000000                  0.000000

 !-----------------------------------------------------------------------------!

 !-----------------------------------------------------------------------------!
                           Hirshfeld Charges

  #Atom  Element  Kind  Ref Charge     Population                    Net charge
      1       H      1       1.000          0.564                         0.436
      2       H      1       1.000          0.564                         0.436
      3       H      1       1.000          0.557                         0.443
      4       C      2       4.000          5.068                        -1.068
      5       O      3       6.000          6.796                        -0.796
      6       H      1       1.000          0.444                         0.556

  Total Charge                                                            0.007
 !-----------------------------------------------------------------------------!

 ENERGY| Total FORCE_EVAL ( QS ) energy (a.u.):              -24.081107764378004


 -------------------------------------------------------------------------------
 -                                                                             -
 -                                DBCSR STATISTICS                             -
 -                                                                             -
 -------------------------------------------------------------------------------
 COUNTER                                    TOTAL       BLAS       SMM       ACC
 flops     5 x     7 x     7               108290     100.0%      0.0%      0.0%
 flops     7 x     7 x     7               194824     100.0%      0.0%      0.0%
 flops    10 x     7 x     5               196000     100.0%      0.0%      0.0%
 flops    10 x     7 x     7               216580     100.0%      0.0%      0.0%
 flops     5 x     5 x     7               231000     100.0%      0.0%      0.0%
 flops     5 x    13 x     7               240240     100.0%      0.0%      0.0%
 flops    13 x     5 x     7               240240     100.0%      0.0%      0.0%
 flops    10 x     7 x    13               254800     100.0%      0.0%      0.0%
 flops     7 x     7 x     5               313600     100.0%      0.0%      0.0%
 flops     7 x     7 x    13               407680     100.0%      0.0%      0.0%
 flops    13 x    13 x     7               468468     100.0%      0.0%      0.0%
 flops    31 x     7 x     5               607600     100.0%      0.0%      0.0%
 flops    31 x     7 x     7               671398     100.0%      0.0%      0.0%
 flops     5 x     7 x     5               747600     100.0%      0.0%      0.0%
 flops    31 x     7 x    13               789880     100.0%      0.0%      0.0%
 flops    13 x     7 x     5               844480     100.0%      0.0%      0.0%
 flops     5 x     7 x    13               971880     100.0%      0.0%      0.0%
 flops    13 x     7 x    13              1097824     100.0%      0.0%      0.0%
 flops inhomo. stacks                           0       0.0%      0.0%      0.0%
 flops total                         8.602384E+06     100.0%      0.0%      0.0%
 flops max/rank                      5.829334E+06     100.0%      0.0%      0.0%
 matmuls inhomo. stacks                         0       0.0%      0.0%      0.0%
 matmuls total                               8729     100.0%      0.0%      0.0%
 number of processed stacks                  7073     100.0%      0.0%      0.0%
 average stack size                                     1.2       0.0       0.0
 marketing flops                     9.391166E+06
 -------------------------------------------------------------------------------
 # multiplications                            920
 max memory usage/rank             970.903552E+06
 # max total images/rank                        5
 # max 3D layers                                1
 # MPI messages exchanged                 2318400
 MPI messages size (bytes):
  total size                        51.036120E+06
  min size                           0.000000E+00
  max size                           3.224000E+03
  average size                      22.013510E+00
 MPI breakdown and total messages size (bytes):
             size <=      128             2243124                        0
       128 < size <=     8192               75276                 51036120
      8192 < size <=    32768                   0                        0
     32768 < size <=   131072                   0                        0
    131072 < size <=  4194304                   0                        0
   4194304 < size <= 16777216                   0                        0
  16777216 < size                               0                        0
 -------------------------------------------------------------------------------

 *** WARNING in dbcsr/mm/dbcsr_mm.F:268 :: Using a non-square number of ***
 *** MPI ranks might lead to poor performance.                          ***
 *** Used ranks: 40                                                     ***
 *** Suggested: 36 81                                                   ***

 -------------------------------------------------------------------------------
 
 MEMORY| Estimated peak process memory [MiB]                                 927

 -------------------------------------------------------------------------------
 ----                             MULTIGRID INFO                            ----
 -------------------------------------------------------------------------------
 count for grid        1:         202217          cutoff [a.u.]          600.00
 count for grid        2:         243694          cutoff [a.u.]          200.00
 count for grid        3:         219966          cutoff [a.u.]           66.67
 count for grid        4:         145894          cutoff [a.u.]           22.22
 count for grid        5:          48026          cutoff [a.u.]            7.41
 total gridlevel count  :         859797

 -------------------------------------------------------------------------------
 -                                                                             -
 -                         MESSAGE PASSING PERFORMANCE                         -
 -                                                                             -
 -------------------------------------------------------------------------------

 ROUTINE             CALLS      AVE VOLUME [Bytes]
 MP_Group               98
 MP_Bcast              953                 580960.
 MP_Allreduce         7366                    496.
 MP_Sync                67
 MP_Alltoall          5048                9870812.
 MP_SendRecv           312                     60.
 MP_ISendRecv        11466                 205824.
 MP_Wait            109809
 MP_comm_split          62
 MP_ISend           129646                  73111.
 MP_IRecv           129194                  73262.
 MP_Recv                 8                    288.
 MP_Memory          118522
 -------------------------------------------------------------------------------


 -------------------------------------------------------------------------------
 -                                                                             -
 -                           R E F E R E N C E S                               -
 -                                                                             -
 -------------------------------------------------------------------------------
 
 CP2K version 7.0 (Development Version), the CP2K developers group (2018).
 CP2K is freely available from https://www.cp2k.org/ .

 Schuett, Ole; Messmer, Peter; Hutter, Juerg; VandeVondele, Joost. 
 Electronic Structure Calculations on Graphics Processing Units, John Wiley & Sons, Ltd, 173-190 (2016). 
 GPU-Accelerated Sparse Matrix-Matrix Multiplication for Linear Scaling Density Functional Theory.
 http://dx.doi.org/10.1002/9781118670712.ch8


 Borstnik, U; VandeVondele, J; Weber, V; Hutter, J. 
 PARALLEL COMPUTING, 40 (5-6), 47-58 (2014). 
 Sparse matrix multiplication: The distributed block-compressed sparse
 row library.
 http://dx.doi.org/10.1016/j.parco.2014.03.012


 Hutter, J; Iannuzzi, M; Schiffmann, F; VandeVondele, J. 
 WILEY INTERDISCIPLINARY REVIEWS-COMPUTATIONAL MOLECULAR SCIENCE, 4 (1), 15-25 (2014). 
 CP2K: atomistic simulations of condensed matter systems.
 http://dx.doi.org/10.1002/wcms.1159


 Grimme, S; Ehrlich, S; Goerigk, L. 
 JOURNAL OF COMPUTATIONAL CHEMISTRY, 32, 1456 (2011). 
 Effect of the damping function in dispersion corrected density functional theory.
 http://dx.doi.org/10.1002/jcc.21759


 Grimme, S; Antony, J; Ehrlich, S; Krieg, H. 
 JOURNAL OF CHEMICAL PHYSICS, 132 (15), 154104 (2010). 
 A consistent and accurate ab initio parametrization of density
 functional dispersion correction (DFT-D) for the 94 elements H-Pu.
 http://dx.doi.org/10.1063/1.3382344


 VandeVondele, J; Hutter, J. 
 JOURNAL OF CHEMICAL PHYSICS, 127 (11), 114105 (2007). 
 Gaussian basis sets for accurate calculations on molecular systems in
 gas and condensed phases.
 http://dx.doi.org/10.1063/1.2770708


 Krack, M. 
 THEORETICAL CHEMISTRY ACCOUNTS, 114 (1-3), 145-152 (2005). 
 Pseudopotentials for H to Kr optimized for gradient-corrected
 exchange-correlation functionals.
 http://dx.doi.org/10.1007/s00214-005-0655-y


 VandeVondele, J; Krack, M; Mohamed, F; Parrinello, M; Chassaing, T;
 Hutter, J. COMPUTER PHYSICS COMMUNICATIONS, 167 (2), 103-128 (2005). 
 QUICKSTEP: Fast and accurate density functional calculations using a
 mixed Gaussian and plane waves approach.
 http://dx.doi.org/10.1016/j.cpc.2004.12.014


 Frigo, M; Johnson, SG. 
 PROCEEDINGS OF THE IEEE, 93 (2), 216-231 (2005). 
 The design and implementation of FFTW3.
 http://dx.doi.org/10.1109/JPROC.2004.840301


 Kolafa, J. 
 JOURNAL OF COMPUTATIONAL CHEMISTRY, 25 (3), 335-342 (2004). 
 Time-reversible always stable predictor-corrector method for molecular dynamics of polarizable molecules.
 http://dx.doi.org/10.1002/jcc.10385


 VandeVondele, J; Hutter, J. 
 JOURNAL OF CHEMICAL PHYSICS, 118 (10), 4365-4369 (2003). 
 An efficient orbital transformation method for electronic structure
 calculations.
 http://dx.doi.org/10.1063/1.1543154


 Hartwigsen, C; Goedecker, S; Hutter, J. 
 PHYSICAL REVIEW B, 58 (7), 3641-3662 (1998). 
 Relativistic separable dual-space Gaussian pseudopotentials from H to Rn.
 http://dx.doi.org/10.1103/PhysRevB.58.3641


 Lippert, G; Hutter, J; Parrinello, M. 
 MOLECULAR PHYSICS, 92 (3), 477-487 (1997). 
 A hybrid Gaussian and plane wave density functional scheme.
 http://dx.doi.org/10.1080/002689797170220


 Perdew, JP; Burke, K; Ernzerhof, M. 
 PHYSICAL REVIEW LETTERS, 77 (18), 3865-3868 (1996). 
 Generalized gradient approximation made simple.
 http://dx.doi.org/10.1103/PhysRevLett.77.3865


 Goedecker, S; Teter, M; Hutter, J. 
 PHYSICAL REVIEW B, 54 (3), 1703-1710 (1996). 
 Separable dual-space Gaussian pseudopotentials.
 http://dx.doi.org/10.1103/PhysRevB.54.1703


 -------------------------------------------------------------------------------
 -                                                                             -
 -                                T I M I N G                                  -
 -                                                                             -
 -------------------------------------------------------------------------------
 SUBROUTINE                       CALLS  ASD         SELF TIME        TOTAL TIME
                                MAXIMUM       AVERAGE  MAXIMUM  AVERAGE  MAXIMUM
 CP2K                                 1  1.0    0.111    0.126  309.111  309.112
 cp_geo_opt                           1  2.0    0.008    0.016  307.343  307.352
 geoopt_bfgs                          1  3.0    0.016    0.017  307.335  307.337
 cp_eval_at                           3  4.0    0.007    0.007  307.006  307.009
 qs_energies                          3  5.7    0.016    0.027  296.155  296.166
 scf_env_do_scf                       3  6.7    0.002    0.002  286.382  286.382
 qs_forces                            2  5.0    0.010    0.010  278.998  278.998
 scf_env_do_scf_inner_loop           61  7.9    0.025    0.027  273.467  273.478
 rebuild_ks_matrix                   63  9.8    0.000    0.001  203.659  203.683
 qs_ks_build_kohn_sham_matrix        63 10.8    0.031    0.041  203.658  203.682
 pw_transfer                       1105 13.2    0.144    0.185  189.354  195.120
 fft_wrap_pw1pw2                    979 14.3    0.013    0.015  187.368  193.126
 qs_ks_update_qs_env                 64  8.9    0.001    0.001  192.933  192.952
 fft_wrap_pw1pw2_600                587 15.5   16.980   17.579  180.346  185.663
 fft3d_ps                           979 16.3   61.151   71.710  147.324  154.731
 qs_vxc_create                       63 11.8    0.006    0.006  118.895  118.925
 qs_rho_update_rho                   64  8.9    0.002    0.002   95.121   95.142
 calculate_rho_elec                  64  9.9    0.808    3.195   95.119   95.140
 density_rs2pw                       64 10.9    0.006    0.007   87.357   88.829
 xc_vxc_pw_create                    34 12.7    2.008    2.655   85.841   85.861
 xc_rho_set_and_dset_create          63 13.8    0.618    0.703   68.327   70.983
 rs_pw_transfer                     501 12.9    0.006    0.007   67.069   67.366
 mp_alltoall_z22v                   979 18.3   60.351   63.077   60.351   63.077
 x_to_yz                            486 17.9   17.292   19.104   54.879   55.805
 sum_up_and_integrate                34 11.7    0.608    0.724   37.391   37.476
 integrate_v_rspace                  34 12.7    0.157    1.090   36.783   36.919
 potential_pw2rs                     34 13.7    0.046    0.049   35.591   35.726
 yz_to_x                            395 16.6    8.384    8.921   31.136   33.076
 xc_exc_calc                         29 12.9    0.258    0.285   33.049   33.066
 rs_pw_transfer_RS2PW_600            70 12.8   14.272   15.080   29.679   30.001
 mp_waitany                        9304 14.8   25.744   27.341   25.744   27.341
 calc_dipsurf_potential              63 11.8    2.629    2.859   25.155   25.702
 rs_pw_transfer_PW2RS_600            39 15.2    7.752    8.311   17.880   18.489
 pw_scatter_p                       520 16.9   15.069   15.714   15.069   15.714
 init_scf_loop                        3  7.7    0.006    0.006   12.891   12.892
 mp_waitall_1                    100505 16.8    9.706   11.952    9.706   11.952
 qs_ks_update_qs_env_forces           2  6.0    0.000    0.000   10.807   10.808
 pw_poisson_solve                    63 11.8    5.099    5.234    8.300    8.315
 mp_sum_d                          1556 10.5    6.971    8.225    6.971    8.225
 pw_derive                          297 14.4    7.392    7.935    7.392    7.935
 pw_gather_p                        459 15.5    7.347    7.787    7.347    7.787
 rs_pw_transfer_RS2PW_200            64 12.9    2.242    2.432    6.998    7.288
 pw_copy                            617 14.2    6.138    6.360    6.138    6.360
 -------------------------------------------------------------------------------

 The number of warnings for this run is : 1
 
 -------------------------------------------------------------------------------
  **** **** ******  **  PROGRAM ENDED AT                 2019-05-27 04:25:41.878
 ***** ** ***  *** **   PROGRAM RAN ON            blg8622.int.ets1.calculquebec.
 **    ****   ******    PROGRAM RAN BY                                       rzk
 ***** **    ** ** **   PROGRAM PROCESS ID                                 68035
  **** **  *******  **  PROGRAM STOPPED IN /lustre03/project/6004141/rzk/GaN-car
                                           bene/01-Methanol/443-capped/00-vacuum
                                           -methanol
