 DBCSR| Multiplication driver                                               BLAS
 DBCSR| Multrec recursion limit                                              512
 DBCSR| Multiplication stack size                                           1000
 DBCSR| Maximum elements for images                                    UNLIMITED
 DBCSR| Multiplicative factor virtual images                                   1
 DBCSR| Multiplication size stacks                                             3
 DBCSR| Number of 3D layers                                               SINGLE
 DBCSR| Use MPI memory allocation                                              T
 DBCSR| Use RMA algorithm                                                      F
 DBCSR| Use Communication thread                                               T
 DBCSR| Communication thread load                                             87


  **** **** ******  **  PROGRAM STARTED AT               2019-07-20 22:04:34.031
 ***** ** ***  *** **   PROGRAM STARTED ON        blg5513.int.ets1.calculquebec.
 **    ****   ******    PROGRAM STARTED BY                                   rzk
 ***** **    ** ** **   PROGRAM PROCESS ID                                125290
  **** **  *******  **  PROGRAM STARTED IN /lustre04/scratch/rzk/rzk/GaN-carbene
                                           /443-adatoms-both-2x2/12-CH3O-H2C-H/0
                                           1-Start-1101

 CP2K| version string:                    CP2K version 7.0 (Development Version)
 CP2K| source code revision number:                                    svn:18619
 CP2K| cp2kflags: libint fftw3 libxc parallel mpi3 scalapack mkl                
 CP2K| is freely available from                            https://www.cp2k.org/
 CP2K| Program compiled at                          Sun Apr  7 00:48:11 EDT 2019
 CP2K| Program compiled on                      beluga2.int.ets1.calculquebec.ca
 CP2K| Program compiled for                    Beluga-Linux-x86-64-intel-openmpi
 CP2K| Data directory path    /home/rzk/projects/def-rzk/group/cp2k/cp2k-mcgill/
 CP2K| Input file name                                                 start.inp
 
 GLOBAL| Force Environment number                                              1
 GLOBAL| Basis set file name                                        BASIS_MOLOPT
 GLOBAL| Potential file name                                      GTH_POTENTIALS
 GLOBAL| MM Potential file name                                     MM_POTENTIAL
 GLOBAL| Coordinate file name                                      __STD_INPUT__
 GLOBAL| Method name                                                        CP2K
 GLOBAL| Project name                                                       TEST
 GLOBAL| Preferred FFT library                                             FFTW3
 GLOBAL| Preferred diagonalization lib.                                       SL
 GLOBAL| Run type                                                        GEO_OPT
 GLOBAL| All-to-all communication in single precision                          F
 GLOBAL| FFTs using library dependent lengths                                  F
 GLOBAL| Global print level                                               MEDIUM
 GLOBAL| MPI I/O enabled                                                       T
 GLOBAL| Total number of message passing processes                            80
 GLOBAL| Number of threads for this process                                    1
 GLOBAL| This output is from process                                           0
 GLOBAL| CPU model name :  Intel(R) Xeon(R) Gold 6148 CPU @ 2.40GHz

 MEMORY| system memory details [Kb]
 MEMORY|                        rank 0           min           max       average
 MEMORY| MemTotal            196614300     196614300     196614300     196614300
 MEMORY| MemFree             177856608     176141356     177862188     177039038
 MEMORY| Buffers                    76            76            76            76
 MEMORY| Cached                2244020       1607380       2244020       1925700
 MEMORY| Slab                  2769432       2295628       2769432       2532530
 MEMORY| SReclaimable           214376        204880        214376        209628
 MEMORY| MemLikelyFree       180315080     177953692     180320660     179174442


 *** Fundamental physical constants (SI units) ***

 *** Literature: B. J. Mohr and B. N. Taylor,
 ***             CODATA recommended values of the fundamental physical
 ***             constants: 2006, Web Version 5.1
 ***             http://physics.nist.gov/constants

 Speed of light in vacuum [m/s]                             2.99792458000000E+08
 Magnetic constant or permeability of vacuum [N/A**2]       1.25663706143592E-06
 Electric constant or permittivity of vacuum [F/m]          8.85418781762039E-12
 Planck constant (h) [J*s]                                  6.62606896000000E-34
 Planck constant (h-bar) [J*s]                              1.05457162825177E-34
 Elementary charge [C]                                      1.60217648700000E-19
 Electron mass [kg]                                         9.10938215000000E-31
 Electron g factor [ ]                                     -2.00231930436220E+00
 Proton mass [kg]                                           1.67262163700000E-27
 Fine-structure constant                                    7.29735253760000E-03
 Rydberg constant [1/m]                                     1.09737315685270E+07
 Avogadro constant [1/mol]                                  6.02214179000000E+23
 Boltzmann constant [J/K]                                   1.38065040000000E-23
 Atomic mass unit [kg]                                      1.66053878200000E-27
 Bohr radius [m]                                            5.29177208590000E-11

 *** Conversion factors ***

 [u] -> [a.u.]                                              1.82288848426455E+03
 [Angstrom] -> [Bohr] = [a.u.]                              1.88972613288564E+00
 [a.u.] = [Bohr] -> [Angstrom]                              5.29177208590000E-01
 [a.u.] -> [s]                                              2.41888432650478E-17
 [a.u.] -> [fs]                                             2.41888432650478E-02
 [a.u.] -> [J]                                              4.35974393937059E-18
 [a.u.] -> [N]                                              8.23872205491840E-08
 [a.u.] -> [K]                                              3.15774647902944E+05
 [a.u.] -> [kJ/mol]                                         2.62549961709828E+03
 [a.u.] -> [kcal/mol]                                       6.27509468713739E+02
 [a.u.] -> [Pa]                                             2.94210107994716E+13
 [a.u.] -> [bar]                                            2.94210107994716E+08
 [a.u.] -> [atm]                                            2.90362800883016E+08
 [a.u.] -> [eV]                                             2.72113838565563E+01
 [a.u.] -> [Hz]                                             6.57968392072181E+15
 [a.u.] -> [1/cm] (wave numbers)                            2.19474631370540E+05
 [a.u./Bohr**2] -> [1/cm]                                   5.14048714338585E+03
 

 CELL_TOP| Volume [angstrom^3]:                                         4586.323
 CELL_TOP| Vector a [angstrom    12.864     0.000     0.000    |a| =      12.864
 CELL_TOP| Vector b [angstrom    -6.432    11.141     0.000    |b| =      12.864
 CELL_TOP| Vector c [angstrom     0.000     0.000    32.000    |c| =      32.000
 CELL_TOP| Angle (b,c), alpha [degree]:                                   90.000
 CELL_TOP| Angle (a,c), beta  [degree]:                                   90.000
 CELL_TOP| Angle (a,b), gamma [degree]:                                  120.000
 CELL_TOP| Numerically orthorhombic:                                          NO
 
 GENERATE|  Preliminary Number of Bonds generated:                             0
 GENERATE|  Achieved consistency in connectivity generation.

 CELL| Volume [angstrom^3]:                                             4586.323
 CELL| Vector a [angstrom]:      12.864     0.000     0.000    |a| =      12.864
 CELL| Vector b [angstrom]:      -6.432    11.141     0.000    |b| =      12.864
 CELL| Vector c [angstrom]:       0.000     0.000    32.000    |c| =      32.000
 CELL| Angle (b,c), alpha [degree]:                                       90.000
 CELL| Angle (a,c), beta  [degree]:                                       90.000
 CELL| Angle (a,b), gamma [degree]:                                      120.000
 CELL| Numerically orthorhombic:                                              NO

 CELL_REF| Volume [angstrom^3]:                                         4670.759
 CELL_REF| Vector a [angstrom    12.982     0.000     0.000    |a| =      12.982
 CELL_REF| Vector b [angstrom    -6.491    11.243     0.000    |b| =      12.982
 CELL_REF| Vector c [angstrom     0.000     0.000    32.000    |c| =      32.000
 CELL_REF| Angle (b,c), alpha [degree]:                                   90.000
 CELL_REF| Angle (a,c), beta  [degree]:                                   90.000
 CELL_REF| Angle (a,b), gamma [degree]:                                  120.000
 CELL_REF| Numerically orthorhombic:                                          NO

 *******************************************************************************
 *******************************************************************************
 **                                                                           **
 **     #####                         ##              ##                      **
 **    ##   ##            ##          ##              ##                      **
 **   ##     ##                       ##            ######                    **
 **   ##     ##  ##   ##  ##   #####  ##  ##   ####   ##    #####    #####    **
 **   ##     ##  ##   ##  ##  ##      ## ##   ##      ##   ##   ##  ##   ##   **
 **   ##  ## ##  ##   ##  ##  ##      ####     ###    ##   ######   ######    **
 **    ##  ###   ##   ##  ##  ##      ## ##      ##   ##   ##       ##        **
 **     #######   #####   ##   #####  ##  ##  ####    ##    #####   ##        **
 **           ##                                                    ##        **
 **                                                                           **
 **                                                ... make the atoms dance   **
 **                                                                           **
 **            Copyright (C) by CP2K developers group (2000 - 2018)           **
 **                                                                           **
 *******************************************************************************

 DFT| Spin unrestricted (spin-polarized) Kohn-Sham calculation               UKS
 DFT| Multiplicity                                                             1
 DFT| Number of spin states                                                    2
 DFT| Charge                                                                   0
 DFT| Self-interaction correction (SIC)                                       NO
 DFT| Cutoffs: density                                              1.000000E-10
 DFT|          gradient                                             1.000000E-10
 DFT|          tau                                                  1.000000E-10
 DFT|          cutoff_smoothing_range                               0.000000E+00
 DFT| XC density smoothing                                                  NONE
 DFT| XC derivatives                                                          PW
 FUNCTIONAL| ROUTINE=NEW
 FUNCTIONAL| PBE:
 FUNCTIONAL| J.P.Perdew, K.Burke, M.Ernzerhof, Phys. Rev. Letter, vol. 77, n 18,
 FUNCTIONAL|  pp. 3865-3868, (1996){spin polarized}                             
 vdW POTENTIAL|                                                   Pair Potential
 vdW POTENTIAL|          DFT-D3 (Version 3.1)
 vdW POTENTIAL|          Potential Form: S. Grimme et al, JCP 132: 154104 (2010)
 vdW POTENTIAL|          Zero Damping
 vdW POTENTIAL|          Cutoff Radius [Bohr]:                             18.90
 vdW POTENTIAL|          s6 Scaling Factor:                               1.0000
 vdW POTENTIAL|          sr6 Scaling Factor:                              1.2170
 vdW POTENTIAL|          s8 Scaling Factor:                               0.7220
 vdW POTENTIAL|          Cutoff for CN calculation:                   0.1000E-05

 QS| Method:                                                                 GPW
 QS| Density plane wave grid type                        NON-SPHERICAL FULLSPACE
 QS| Number of grid levels:                                                    5
 QS| Density cutoff [a.u.]:                                                600.0
 QS| Multi grid cutoff [a.u.]: 1) grid level                               600.0
 QS|                           2) grid level                               200.0
 QS|                           3) grid level                                66.7
 QS|                           4) grid level                                22.2
 QS|                           5) grid level                                 7.4
 QS| Grid level progression factor:                                          3.0
 QS| Relative density cutoff [a.u.]:                                        20.0
 QS| Consistent realspace mapping and integration 
 QS| Interaction thresholds: eps_pgf_orb:                                1.0E-07
 QS|                         eps_filter_matrix:                          0.0E+00
 QS|                         eps_core_charge:                            1.0E-16
 QS|                         eps_rho_gspace:                             1.0E-14
 QS|                         eps_rho_rspace:                             1.0E-14
 QS|                         eps_gvg_rspace:                             1.0E-07
 QS|                         eps_ppl:                                    1.0E-02
 QS|                         eps_ppnl:                                   1.0E-09


 ATOMIC KIND INFORMATION

  1. Atomic kind: N                                     Number of atoms:     100

     Orbital Basis Set                                        DZVP-MOLOPT-SR-GTH

       Number of orbital shell sets:                                           1
       Number of orbital shells:                                               5
       Number of primitive Cartesian functions:                                5
       Number of Cartesian basis functions:                                   14
       Number of spherical basis functions:                                   13
       Norm type:                                                              2

       Normalised Cartesian orbitals:

                        Set   Shell   Orbital            Exponent    Coefficient

                          1       1    2s                7.341988       0.360561
                                                         2.542637       0.139177
                                                         0.888575      -0.289383
                                                         0.333802      -0.182244
                                                         0.112012      -0.019197

                          1       2    3s                7.341988       0.282000
                                                         2.542637       0.177875
                                                         0.888575      -0.278381
                                                         0.333802       0.008577
                                                         0.112012       0.154176

                          1       3    3px               7.341988      -1.188719
                                                         2.542637      -0.973969
                                                         0.888575      -0.501079
                                                         0.333802      -0.144894
                                                         0.112012      -0.013986
                          1       3    3py               7.341988      -1.188719
                                                         2.542637      -0.973969
                                                         0.888575      -0.501079
                                                         0.333802      -0.144894
                                                         0.112012      -0.013986
                          1       3    3pz               7.341988      -1.188719
                                                         2.542637      -0.973969
                                                         0.888575      -0.501079
                                                         0.333802      -0.144894
                                                         0.112012      -0.013986

                          1       4    4px               7.341988      -0.094798
                                                         2.542637       0.050069
                                                         0.888575      -0.114797
                                                         0.333802       0.144793
                                                         0.112012       0.066710
                          1       4    4py               7.341988      -0.094798
                                                         2.542637       0.050069
                                                         0.888575      -0.114797
                                                         0.333802       0.144793
                                                         0.112012       0.066710
                          1       4    4pz               7.341988      -0.094798
                                                         2.542637       0.050069
                                                         0.888575      -0.114797
                                                         0.333802       0.144793
                                                         0.112012       0.066710

                          1       5    4dx2              7.341988       1.354688
                                                         2.542637       0.690378
                                                         0.888575       0.855359
                                                         0.333802       0.091746
                                                         0.112012       0.001253
                          1       5    4dxy              7.341988       2.346389
                                                         2.542637       1.195770
                                                         0.888575       1.481524
                                                         0.333802       0.158910
                                                         0.112012       0.002169
                          1       5    4dxz              7.341988       2.346389
                                                         2.542637       1.195770
                                                         0.888575       1.481524
                                                         0.333802       0.158910
                                                         0.112012       0.002169
                          1       5    4dy2              7.341988       1.354688
                                                         2.542637       0.690378
                                                         0.888575       0.855359
                                                         0.333802       0.091746
                                                         0.112012       0.001253
                          1       5    4dyz              7.341988       2.346389
                                                         2.542637       1.195770
                                                         0.888575       1.481524
                                                         0.333802       0.158910
                                                         0.112012       0.002169
                          1       5    4dz2              7.341988       1.354688
                                                         2.542637       0.690378
                                                         0.888575       0.855359
                                                         0.333802       0.091746
                                                         0.112012       0.001253

     GTH Potential information for                                    GTH-PBE-q5

       Description:                       Goedecker-Teter-Hutter pseudopotential
                                           Goedecker et al., PRB 54, 1703 (1996)
                                          Hartwigsen et al., PRB 58, 3641 (1998)
                                                      Krack, TCA 114, 145 (2005)

       Gaussian exponent of the core charge distribution:               6.208322
       Electronic configuration (s p d ...):                               2   3

       Parameters of the local part of the GTH pseudopotential:

                          rloc        C1          C2          C3          C4
                        0.283791  -12.415226    1.868096

       Parameters of the non-local part of the GTH pseudopotential:

                   l      r(l)      h(i,j,l)

                   0    0.255405   13.630263
                   1    0.245495

  2. Atomic kind: Ga                                    Number of atoms:     100

     Orbital Basis Set                                        DZVP-MOLOPT-SR-GTH

       Number of orbital shell sets:                                           1
       Number of orbital shells:                                               7
       Number of primitive Cartesian functions:                                6
       Number of Cartesian basis functions:                                   30
       Number of spherical basis functions:                                   25
       Norm type:                                                              2

       Normalised Cartesian orbitals:

                        Set   Shell   Orbital            Exponent    Coefficient

                          1       1    2s                7.066654       0.013136
                                                         3.428369      -0.094392
                                                         1.430064       0.265435
                                                         0.571611       0.056465
                                                         0.232197      -0.192187
                                                         0.076562      -0.044987

                          1       2    3s                7.066654      -0.098564
                                                         3.428369       0.010390
                                                         1.430064       0.351249
                                                         0.571611       0.182615
                                                         0.232197      -0.425358
                                                         0.076562       0.190349

                          1       3    3px               7.066654       0.002364
                                                         3.428369       0.019222
                                                         1.430064       0.250132
                                                         0.571611      -0.058486
                                                         0.232197      -0.159451
                                                         0.076562      -0.020696
                          1       3    3py               7.066654       0.002364
                                                         3.428369       0.019222
                                                         1.430064       0.250132
                                                         0.571611      -0.058486
                                                         0.232197      -0.159451
                                                         0.076562      -0.020696
                          1       3    3pz               7.066654       0.002364
                                                         3.428369       0.019222
                                                         1.430064       0.250132
                                                         0.571611      -0.058486
                                                         0.232197      -0.159451
                                                         0.076562      -0.020696

                          1       4    4px               7.066654       0.492448
                                                         3.428369      -0.614736
                                                         1.430064      -0.191654
                                                         0.571611       0.037801
                                                         0.232197       0.302315
                                                         0.076562      -0.071336
                          1       4    4py               7.066654       0.492448
                                                         3.428369      -0.614736
                                                         1.430064      -0.191654
                                                         0.571611       0.037801
                                                         0.232197       0.302315
                                                         0.076562      -0.071336
                          1       4    4pz               7.066654       0.492448
                                                         3.428369      -0.614736
                                                         1.430064      -0.191654
                                                         0.571611       0.037801
                                                         0.232197       0.302315
                                                         0.076562      -0.071336

                          1       5    4dx2              7.066654     -15.264855
                                                         3.428369      -5.345726
                                                         1.430064      -1.022732
                                                         0.571611      -0.123148
                                                         0.232197      -0.006983
                                                         0.076562      -0.000022
                          1       5    4dxy              7.066654     -26.439504
                                                         3.428369      -9.259069
                                                         1.430064      -1.771423
                                                         0.571611      -0.213299
                                                         0.232197      -0.012094
                                                         0.076562      -0.000037
                          1       5    4dxz              7.066654     -26.439504
                                                         3.428369      -9.259069
                                                         1.430064      -1.771423
                                                         0.571611      -0.213299
                                                         0.232197      -0.012094
                                                         0.076562      -0.000037
                          1       5    4dy2              7.066654     -15.264855
                                                         3.428369      -5.345726
                                                         1.430064      -1.022732
                                                         0.571611      -0.123148
                                                         0.232197      -0.006983
                                                         0.076562      -0.000022
                          1       5    4dyz              7.066654     -26.439504
                                                         3.428369      -9.259069
                                                         1.430064      -1.771423
                                                         0.571611      -0.213299
                                                         0.232197      -0.012094
                                                         0.076562      -0.000037
                          1       5    4dz2              7.066654     -15.264855
                                                         3.428369      -5.345726
                                                         1.430064      -1.022732
                                                         0.571611      -0.123148
                                                         0.232197      -0.006983
                                                         0.076562      -0.000022

                          1       6    5dx2              7.066654      -5.739265
                                                         3.428369      -2.129289
                                                         1.430064      -0.700423
                                                         0.571611       0.161606
                                                         0.232197       0.043513
                                                         0.076562       0.011205
                          1       6    5dxy              7.066654      -9.940698
                                                         3.428369      -3.688037
                                                         1.430064      -1.213168
                                                         0.571611       0.279909
                                                         0.232197       0.075368
                                                         0.076562       0.019407
                          1       6    5dxz              7.066654      -9.940698
                                                         3.428369      -3.688037
                                                         1.430064      -1.213168
                                                         0.571611       0.279909
                                                         0.232197       0.075368
                                                         0.076562       0.019407
                          1       6    5dy2              7.066654      -5.739265
                                                         3.428369      -2.129289
                                                         1.430064      -0.700423
                                                         0.571611       0.161606
                                                         0.232197       0.043513
                                                         0.076562       0.011205
                          1       6    5dyz              7.066654      -9.940698
                                                         3.428369      -3.688037
                                                         1.430064      -1.213168
                                                         0.571611       0.279909
                                                         0.232197       0.075368
                                                         0.076562       0.019407
                          1       6    5dz2              7.066654      -5.739265
                                                         3.428369      -2.129289
                                                         1.430064      -0.700423
                                                         0.571611       0.161606
                                                         0.232197       0.043513
                                                         0.076562       0.011205

                          1       7    5fx3              7.066654       0.705879
                                                         3.428369      -0.273976
                                                         1.430064       0.113667
                                                         0.571611       0.132480
                                                         0.232197       0.012437
                                                         0.076562       0.003241
                          1       7    5fx2y             7.066654       1.578393
                                                         3.428369      -0.612629
                                                         1.430064       0.254167
                                                         0.571611       0.296234
                                                         0.232197       0.027811
                                                         0.076562       0.007246
                          1       7    5fx2z             7.066654       1.578393
                                                         3.428369      -0.612629
                                                         1.430064       0.254167
                                                         0.571611       0.296234
                                                         0.232197       0.027811
                                                         0.076562       0.007246
                          1       7    5fxy2             7.066654       1.578393
                                                         3.428369      -0.612629
                                                         1.430064       0.254167
                                                         0.571611       0.296234
                                                         0.232197       0.027811
                                                         0.076562       0.007246
                          1       7    5fxyz             7.066654       2.733856
                                                         3.428369      -1.061105
                                                         1.430064       0.440230
                                                         0.571611       0.513092
                                                         0.232197       0.048170
                                                         0.076562       0.012551
                          1       7    5fxz2             7.066654       1.578393
                                                         3.428369      -0.612629
                                                         1.430064       0.254167
                                                         0.571611       0.296234
                                                         0.232197       0.027811
                                                         0.076562       0.007246
                          1       7    5fy3              7.066654       0.705879
                                                         3.428369      -0.273976
                                                         1.430064       0.113667
                                                         0.571611       0.132480
                                                         0.232197       0.012437
                                                         0.076562       0.003241
                          1       7    5fy2z             7.066654       1.578393
                                                         3.428369      -0.612629
                                                         1.430064       0.254167
                                                         0.571611       0.296234
                                                         0.232197       0.027811
                                                         0.076562       0.007246
                          1       7    5fyz2             7.066654       1.578393
                                                         3.428369      -0.612629
                                                         1.430064       0.254167
                                                         0.571611       0.296234
                                                         0.232197       0.027811
                                                         0.076562       0.007246
                          1       7    5fz3              7.066654       0.705879
                                                         3.428369      -0.273976
                                                         1.430064       0.113667
                                                         0.571611       0.132480
                                                         0.232197       0.012437
                                                         0.076562       0.003241

     GTH Potential information for                                   GTH-PBE-q13

       Description:                       Goedecker-Teter-Hutter pseudopotential
                                           Goedecker et al., PRB 54, 1703 (1996)
                                          Hartwigsen et al., PRB 58, 3641 (1998)
                                                      Krack, TCA 114, 145 (2005)

       Gaussian exponent of the core charge distribution:               2.082466
       Electronic configuration (s p d ...):                           2   1  10

       Parameters of the local part of the GTH pseudopotential:

                          rloc        C1          C2          C3          C4
                        0.490000

       Parameters of the non-local part of the GTH pseudopotential:

                   l      r(l)      h(i,j,l)

                   0    0.416777   10.475690   -4.921768    0.870706
                                   -4.921768    7.770178   -2.248152
                                    0.870706   -2.248152    1.784415
                   1    0.569627    1.777985    0.195860
                                    0.195860   -0.231744
                   2    0.238126  -16.248680

  3. Atomic kind: O                                     Number of atoms:       1

     Orbital Basis Set                                     DZVP-MOLOPT-SR-GTH-q6

       Number of orbital shell sets:                                           1
       Number of orbital shells:                                               5
       Number of primitive Cartesian functions:                                5
       Number of Cartesian basis functions:                                   14
       Number of spherical basis functions:                                   13
       Norm type:                                                              2

       Normalised Cartesian orbitals:

                        Set   Shell   Orbital            Exponent    Coefficient

                          1       1    2s               10.389228       0.396646
                                                         3.849621       0.208811
                                                         1.388401      -0.301641
                                                         0.496955      -0.274061
                                                         0.162492      -0.033677

                          1       2    3s               10.389228       0.303673
                                                         3.849621       0.240943
                                                         1.388401      -0.313066
                                                         0.496955      -0.043055
                                                         0.162492       0.213991

                          1       3    3px              10.389228      -1.530415
                                                         3.849621      -1.371928
                                                         1.388401      -0.761951
                                                         0.496955      -0.253695
                                                         0.162492      -0.035541
                          1       3    3py              10.389228      -1.530415
                                                         3.849621      -1.371928
                                                         1.388401      -0.761951
                                                         0.496955      -0.253695
                                                         0.162492      -0.035541
                          1       3    3pz              10.389228      -1.530415
                                                         3.849621      -1.371928
                                                         1.388401      -0.761951
                                                         0.496955      -0.253695
                                                         0.162492      -0.035541

                          1       4    4px              10.389228      -0.565392
                                                         3.849621      -0.038231
                                                         1.388401      -0.382373
                                                         0.496955       0.179070
                                                         0.162492       0.122714
                          1       4    4py              10.389228      -0.565392
                                                         3.849621      -0.038231
                                                         1.388401      -0.382373
                                                         0.496955       0.179070
                                                         0.162492       0.122714
                          1       4    4pz              10.389228      -0.565392
                                                         3.849621      -0.038231
                                                         1.388401      -0.382373
                                                         0.496955       0.179070
                                                         0.162492       0.122714

                          1       5    4dx2             10.389228       1.867377
                                                         3.849621       0.670994
                                                         1.388401       1.353441
                                                         0.496955       0.273538
                                                         0.162492       0.006620
                          1       5    4dxy             10.389228       3.234392
                                                         3.849621       1.162195
                                                         1.388401       2.344229
                                                         0.496955       0.473781
                                                         0.162492       0.011466
                          1       5    4dxz             10.389228       3.234392
                                                         3.849621       1.162195
                                                         1.388401       2.344229
                                                         0.496955       0.473781
                                                         0.162492       0.011466
                          1       5    4dy2             10.389228       1.867377
                                                         3.849621       0.670994
                                                         1.388401       1.353441
                                                         0.496955       0.273538
                                                         0.162492       0.006620
                          1       5    4dyz             10.389228       3.234392
                                                         3.849621       1.162195
                                                         1.388401       2.344229
                                                         0.496955       0.473781
                                                         0.162492       0.011466
                          1       5    4dz2             10.389228       1.867377
                                                         3.849621       0.670994
                                                         1.388401       1.353441
                                                         0.496955       0.273538
                                                         0.162492       0.006620

     GTH Potential information for                                    GTH-PBE-q6

       Description:                       Goedecker-Teter-Hutter pseudopotential
                                           Goedecker et al., PRB 54, 1703 (1996)
                                          Hartwigsen et al., PRB 58, 3641 (1998)
                                                      Krack, TCA 114, 145 (2005)

       Gaussian exponent of the core charge distribution:               8.360253
       Electronic configuration (s p d ...):                               2   4

       Parameters of the local part of the GTH pseudopotential:

                          rloc        C1          C2          C3          C4
                        0.244554  -16.667215    2.487311

       Parameters of the non-local part of the GTH pseudopotential:

                   l      r(l)      h(i,j,l)

                   0    0.220956   18.337458
                   1    0.211332

  4. Atomic kind: C                                     Number of atoms:       2

     Orbital Basis Set                                     DZVP-MOLOPT-SR-GTH-q4

       Number of orbital shell sets:                                           1
       Number of orbital shells:                                               5
       Number of primitive Cartesian functions:                                5
       Number of Cartesian basis functions:                                   14
       Number of spherical basis functions:                                   13
       Norm type:                                                              2

       Normalised Cartesian orbitals:

                        Set   Shell   Orbital            Exponent    Coefficient

                          1       1    2s                5.605331       0.322515
                                                         2.113016       0.213043
                                                         0.769911      -0.209686
                                                         0.348157      -0.219794
                                                         0.128212      -0.022789

                          1       2    3s                5.605331       0.552234
                                                         2.113016       0.082072
                                                         0.769911       0.007843
                                                         0.348157       0.136893
                                                         0.128212       0.074283

                          1       3    3px               5.605331      -0.703879
                                                         2.113016      -0.642521
                                                         0.769911      -0.374851
                                                         0.348157      -0.139743
                                                         0.128212      -0.027849
                          1       3    3py               5.605331      -0.703879
                                                         2.113016      -0.642521
                                                         0.769911      -0.374851
                                                         0.348157      -0.139743
                                                         0.128212      -0.027849
                          1       3    3pz               5.605331      -0.703879
                                                         2.113016      -0.642521
                                                         0.769911      -0.374851
                                                         0.348157      -0.139743
                                                         0.128212      -0.027849

                          1       4    4px               5.605331      -0.480376
                                                         2.113016      -0.552894
                                                         0.769911      -0.316145
                                                         0.348157       0.210505
                                                         0.128212       0.076095
                          1       4    4py               5.605331      -0.480376
                                                         2.113016      -0.552894
                                                         0.769911      -0.316145
                                                         0.348157       0.210505
                                                         0.128212       0.076095
                          1       4    4pz               5.605331      -0.480376
                                                         2.113016      -0.552894
                                                         0.769911      -0.316145
                                                         0.348157       0.210505
                                                         0.128212       0.076095

                          1       5    4dx2              5.605331       0.640026
                                                         2.113016       0.274300
                                                         0.769911       0.446711
                                                         0.348157       0.028674
                                                         0.128212       0.029790
                          1       5    4dxy              5.605331       1.108557
                                                         2.113016       0.475102
                                                         0.769911       0.773726
                                                         0.348157       0.049666
                                                         0.128212       0.051599
                          1       5    4dxz              5.605331       1.108557
                                                         2.113016       0.475102
                                                         0.769911       0.773726
                                                         0.348157       0.049666
                                                         0.128212       0.051599
                          1       5    4dy2              5.605331       0.640026
                                                         2.113016       0.274300
                                                         0.769911       0.446711
                                                         0.348157       0.028674
                                                         0.128212       0.029790
                          1       5    4dyz              5.605331       1.108557
                                                         2.113016       0.475102
                                                         0.769911       0.773726
                                                         0.348157       0.049666
                                                         0.128212       0.051599
                          1       5    4dz2              5.605331       0.640026
                                                         2.113016       0.274300
                                                         0.769911       0.446711
                                                         0.348157       0.028674
                                                         0.128212       0.029790

     GTH Potential information for                                    GTH-PBE-q4

       Description:                       Goedecker-Teter-Hutter pseudopotential
                                           Goedecker et al., PRB 54, 1703 (1996)
                                          Hartwigsen et al., PRB 58, 3641 (1998)
                                                      Krack, TCA 114, 145 (2005)

       Gaussian exponent of the core charge distribution:               4.364419
       Electronic configuration (s p d ...):                               2   2

       Parameters of the local part of the GTH pseudopotential:

                          rloc        C1          C2          C3          C4
                        0.338471   -8.803674    1.339211

       Parameters of the non-local part of the GTH pseudopotential:

                   l      r(l)      h(i,j,l)

                   0    0.302576    9.622487
                   1    0.291507

  5. Atomic kind: H                                     Number of atoms:       6

     Orbital Basis Set                                     DZVP-MOLOPT-SR-GTH-q1

       Number of orbital shell sets:                                           1
       Number of orbital shells:                                               3
       Number of primitive Cartesian functions:                                5
       Number of Cartesian basis functions:                                    5
       Number of spherical basis functions:                                    5
       Norm type:                                                              2

       Normalised Cartesian orbitals:

                        Set   Shell   Orbital            Exponent    Coefficient

                          1       1    2s               10.068468      -0.133023
                                                         2.680223      -0.177618
                                                         0.791502      -0.258419
                                                         0.239116      -0.107525
                                                         0.082193      -0.014019

                          1       2    3s               10.068468       0.344673
                                                         2.680223       1.819821
                                                         0.791502      -0.999069
                                                         0.239116       0.017430
                                                         0.082193       0.082660

                          1       3    3px              10.068468       0.155326
                                                         2.680223       0.367157
                                                         0.791502       0.311480
                                                         0.239116       0.080105
                                                         0.082193       0.033440
                          1       3    3py              10.068468       0.155326
                                                         2.680223       0.367157
                                                         0.791502       0.311480
                                                         0.239116       0.080105
                                                         0.082193       0.033440
                          1       3    3pz              10.068468       0.155326
                                                         2.680223       0.367157
                                                         0.791502       0.311480
                                                         0.239116       0.080105
                                                         0.082193       0.033440

     GTH Potential information for                                    GTH-PBE-q1

       Description:                       Goedecker-Teter-Hutter pseudopotential
                                           Goedecker et al., PRB 54, 1703 (1996)
                                          Hartwigsen et al., PRB 58, 3641 (1998)
                                                      Krack, TCA 114, 145 (2005)

       Gaussian exponent of the core charge distribution:              12.500000
       Electronic configuration (s p d ...):                                   1

       Parameters of the local part of the GTH pseudopotential:

                          rloc        C1          C2          C3          C4
                        0.200000   -4.178900    0.724463


 MOLECULE KIND INFORMATION


 All atoms are their own molecule, skipping detailed information


 TOTAL NUMBERS AND MAXIMUM NUMBERS

  Total number of            - Atomic kinds:                                   5
                             - Atoms:                                        209
                             - Shell sets:                                   209
                             - Shells:                                      1233
                             - Primitive Cartesian functions:               1145
                             - Cartesian basis functions:                   4472
                             - Spherical basis functions:                   3869

  Maximum angular momentum of- Orbital basis functions:                        3
                             - Local part of the GTH pseudopotential:          2
                             - Non-local part of the GTH pseudopotential:      4


 MODULE QUICKSTEP:  ATOMIC COORDINATES IN angstrom

  Atom  Kind  Element       X           Y           Z          Z(eff)       Mass

       1     1 N    7    0.065774    2.115554    2.561266      5.00      14.0067
       2     2 Ga  31    0.054451    0.143401    2.953280     13.00      69.7230
       3     1 N    7    0.060584    0.139342    5.117618      5.00      14.0067
       4     2 Ga  31    0.061265    1.952657    5.874448     13.00      69.7230
       5     1 N    7    0.079200    1.977337    7.863798      5.00      14.0067
       6     2 Ga  31    0.079204    0.123587    8.489446     13.00      69.7230
       7     1 N    7    0.078628    0.125824   10.466250      5.00      14.0067
       8     2 Ga  31    0.076417    1.965572   11.118175     13.00      69.7230
       9     1 N    7    0.076183    1.947517   13.113819      5.00      14.0067
      10     2 Ga  31    0.076447    0.126682   13.915739     13.00      69.7230
      11     1 N    7    0.076665    0.126126   16.118793      5.00      14.0067
      12     2 Ga  31    0.074621    2.162473   16.526540     13.00      69.7230
      13     2 Ga  31    0.032987    3.849426    1.385743     13.00      69.7230
      14     1 N    7   -1.414907    4.705907    2.565844      5.00      14.0067
      15     2 Ga  31   -1.616425    2.871227    3.329995     13.00      69.7230
      16     1 N    7   -1.528559    2.917022    5.313675      5.00      14.0067
      17     2 Ga  31   -1.564564    4.781843    5.860724     13.00      69.7230
      18     1 N    7   -1.538795    4.777199    7.857338      5.00      14.0067
      19     2 Ga  31   -1.525585    2.919475    8.492216     13.00      69.7230
      20     1 N    7   -1.520279    2.919773   10.486623      5.00      14.0067
      21     2 Ga  31   -1.547196    4.779762   11.117680     13.00      69.7230
      22     1 N    7   -1.563831    4.788959   13.113026      5.00      14.0067
      23     2 Ga  31   -1.520946    2.920210   13.668863     13.00      69.7230
      24     1 N    7   -1.548477    2.906468   15.632304      5.00      14.0067
      25     2 Ga  31   -1.372318    4.677283   16.526880     13.00      69.7230
      26     1 N    7    0.082210    3.836751   17.660700      5.00      14.0067
      27     1 N    7   -3.140115    7.617444    2.520651      5.00      14.0067
      28     2 Ga  31   -3.139301    5.681410    2.910467     13.00      69.7230
      29     1 N    7   -3.140418    5.685591    5.092197      5.00      14.0067
      30     2 Ga  31   -3.139813    7.522603    5.816026     13.00      69.7230
      31     1 N    7   -3.139564    7.548360    7.825994      5.00      14.0067
      32     2 Ga  31   -3.139543    5.705158    8.489362     13.00      69.7230
      33     1 N    7   -3.139593    5.701354   10.466889      5.00      14.0067
      34     2 Ga  31   -3.139317    7.539460   11.117369     13.00      69.7230
      35     1 N    7   -3.140111    7.519726   13.112179      5.00      14.0067
      36     2 Ga  31   -3.139661    5.699492   13.914898     13.00      69.7230
      37     1 N    7   -3.139904    5.698814   16.118887      5.00      14.0067
      38     2 Ga  31   -3.141058    7.740629   16.532047     13.00      69.7230
      39     2 Ga  31   -3.142436    9.128481    0.755511     13.00      69.7230
      40     1 N    7   -4.729177   10.316008    2.543957      5.00      14.0067
      41     2 Ga  31   -4.731621    8.493600    3.256531     13.00      69.7230
      42     1 N    7   -4.756652    8.478250    5.245580      5.00      14.0067
      43     2 Ga  31   -4.790058   10.351646    5.827211     13.00      69.7230
      44     1 N    7   -4.751814   10.344210    7.828790      5.00      14.0067
      45     2 Ga  31   -4.732713    8.489772    8.479204     13.00      69.7230
      46     1 N    7   -4.735453    8.490444   10.475185      5.00      14.0067
      47     2 Ga  31   -4.762154   10.347596   11.117701     13.00      69.7230
      48     1 N    7   -4.779298   10.358308   13.111782      5.00      14.0067
      49     2 Ga  31   -4.737219    8.490310   13.670373     13.00      69.7230
      50     1 N    7   -4.765478    8.475475   15.631693      5.00      14.0067
      51     2 Ga  31   -4.583026   10.244234   16.533154     13.00      69.7230
      52     1 N    7   -3.133580    9.408190   17.667312      5.00      14.0067
      53     1 N    7    3.292137    2.176990    2.528935      5.00      14.0067
      54     2 Ga  31    3.292461   -0.131625    3.302791     13.00      69.7230
      55     1 N    7    3.292461    0.141148    5.237019      5.00      14.0067
      56     2 Ga  31    3.292942    1.968939    5.930996     13.00      69.7230
      57     1 N    7    3.292659    1.978706    7.895271      5.00      14.0067
      58     2 Ga  31    3.292873    0.109396    8.485028     13.00      69.7230
      59     1 N    7    3.292719    0.114035   10.477676      5.00      14.0067
      60     2 Ga  31    3.293118    1.981783   11.079408     13.00      69.7230
      61     1 N    7    3.291709    1.983549   13.050211      5.00      14.0067
      62     2 Ga  31    3.291618    0.113932   13.671437     13.00      69.7230
      63     1 N    7    3.289635    0.146973   15.632655      5.00      14.0067
      64     2 Ga  31    3.291259    1.984670   15.912142     13.00      69.7230
      65     1 N    7    1.559538    4.702453    2.559558      5.00      14.0067
      66     2 Ga  31    1.611921    2.921280    3.386166     13.00      69.7230
      67     1 N    7    1.700077    2.901876    5.305955      5.00      14.0067
      68     2 Ga  31    1.715628    4.791555    5.864013     13.00      69.7230
      69     1 N    7    1.693091    4.772202    7.852443      5.00      14.0067
      70     2 Ga  31    1.675950    2.916547    8.496808     13.00      69.7230
      71     1 N    7    1.676340    2.918773   10.486313      5.00      14.0067
      72     2 Ga  31    1.699425    4.778760   11.121235     13.00      69.7230
      73     1 N    7    1.715629    4.788392   13.115324      5.00      14.0067
      74     2 Ga  31    1.672207    2.919324   13.670427     13.00      69.7230
      75     1 N    7    1.698845    2.904630   15.634833      5.00      14.0067
      76     2 Ga  31    1.527898    4.681013   16.527101     13.00      69.7230
      77     1 N    7    0.084323    7.551560    2.715412      5.00      14.0067
      78     2 Ga  31    0.063087    5.711611    3.369736     13.00      69.7230
      79     1 N    7    0.078080    5.711872    5.309197      5.00      14.0067
      80     2 Ga  31    0.065961    7.566000    5.926935     13.00      69.7230
      81     1 N    7    0.074852    7.557571    7.897549      5.00      14.0067
      82     2 Ga  31    0.074660    5.688923    8.491026     13.00      69.7230
      83     1 N    7    0.077816    5.686396   10.483262      5.00      14.0067
      84     2 Ga  31    0.075546    7.555882   11.075158     13.00      69.7230
      85     1 N    7    0.075044    7.555296   13.047696      5.00      14.0067
      86     2 Ga  31    0.075045    5.686262   13.669547     13.00      69.7230
      87     1 N    7    0.073597    5.716205   15.632805      5.00      14.0067
      88     2 Ga  31    0.075394    7.555780   15.911535     13.00      69.7230
      89     1 N    7   -1.550338   10.316695    2.543293      5.00      14.0067
      90     2 Ga  31   -1.548523    8.494303    3.255907     13.00      69.7230
      91     1 N    7   -1.523002    8.478429    5.245192      5.00      14.0067
      92     2 Ga  31   -1.489244   10.352008    5.826469     13.00      69.7230
      93     1 N    7   -1.527087   10.344277    7.828270      5.00      14.0067
      94     2 Ga  31   -1.546486    8.490027    8.479348     13.00      69.7230
      95     1 N    7   -1.542937    8.490150   10.475559      5.00      14.0067
      96     2 Ga  31   -1.517197   10.347252   11.118281     13.00      69.7230
      97     1 N    7   -1.501032   10.358292   13.112773      5.00      14.0067
      98     2 Ga  31   -1.543667    8.490159   13.670869     13.00      69.7230
      99     1 N    7   -1.516046    8.473519   15.633367      5.00      14.0067
     100     2 Ga  31   -1.692548   10.248168   16.532278     13.00      69.7230
     101     1 N    7    6.519409    2.117328    2.558569      5.00      14.0067
     102     2 Ga  31    6.530958    0.142869    2.951633     13.00      69.7230
     103     1 N    7    6.524850    0.139959    5.116433      5.00      14.0067
     104     2 Ga  31    6.523891    1.952843    5.874433     13.00      69.7230
     105     1 N    7    6.506296    1.977335    7.863631      5.00      14.0067
     106     2 Ga  31    6.506367    0.123557    8.489295     13.00      69.7230
     107     1 N    7    6.506410    0.125638   10.466166      5.00      14.0067
     108     2 Ga  31    6.509288    1.965547   11.118192     13.00      69.7230
     109     1 N    7    6.507784    1.947397   13.113851      5.00      14.0067
     110     2 Ga  31    6.508507    0.126580   13.916326     13.00      69.7230
     111     1 N    7    6.508489    0.126389   16.119161      5.00      14.0067
     112     2 Ga  31    6.507735    2.164454   16.528064     13.00      69.7230
     113     2 Ga  31    6.557260    3.842128    1.379687     13.00      69.7230
     114     1 N    7    5.024522    4.701961    2.561416      5.00      14.0067
     115     2 Ga  31    4.972405    2.923241    3.385017     13.00      69.7230
     116     1 N    7    4.885523    2.901336    5.305277      5.00      14.0067
     117     2 Ga  31    4.869710    4.791376    5.862766     13.00      69.7230
     118     1 N    7    4.892222    4.772173    7.851641      5.00      14.0067
     119     2 Ga  31    4.909452    2.916544    8.496441     13.00      69.7230
     120     1 N    7    4.909447    2.918989   10.485771      5.00      14.0067
     121     2 Ga  31    4.885647    4.779019   11.120850     13.00      69.7230
     122     1 N    7    4.868311    4.788258   13.114500      5.00      14.0067
     123     2 Ga  31    4.910850    2.919173   13.670363     13.00      69.7230
     124     1 N    7    4.882434    2.905646   15.633125      5.00      14.0067
     125     2 Ga  31    5.062516    4.676269   16.529426     13.00      69.7230
     126     1 N    7    6.514931    3.836757   17.660236      5.00      14.0067
     127     1 N    7    3.292737    7.652675    2.565540      5.00      14.0067
     128     1 N    7    3.292164    5.689500    5.087751      5.00      14.0067
     129     2 Ga  31    3.292298    7.519931    5.848453     13.00      69.7230
     130     1 N    7    3.292614    7.543663    7.844880      5.00      14.0067
     131     2 Ga  31    3.292765    5.699068    8.496375     13.00      69.7230
     132     1 N    7    3.292427    5.697985   10.469287      5.00      14.0067
     133     2 Ga  31    3.292866    7.537566   11.121120     13.00      69.7230
     134     1 N    7    3.291914    7.518486   13.114830      5.00      14.0067
     135     2 Ga  31    3.292364    5.698961   13.917472     13.00      69.7230
     136     1 N    7    3.292809    5.698471   16.119818      5.00      14.0067
     137     2 Ga  31    3.291319    7.740439   16.531614     13.00      69.7230
     138     2 Ga  31    3.293370    9.493907    1.301396     13.00      69.7230
     139     1 N    7    1.788888   10.288409    2.581891      5.00      14.0067
     140     2 Ga  31    1.688504    8.486891    3.338616     13.00      69.7230
     141     1 N    7    1.674840    8.475682    5.290826      5.00      14.0067
     142     2 Ga  31    1.667775   10.357426    5.858162     13.00      69.7230
     143     1 N    7    1.677096   10.340955    7.856035      5.00      14.0067
     144     2 Ga  31    1.694477    8.488222    8.490860     13.00      69.7230
     145     1 N    7    1.695871    8.487752   10.483243      5.00      14.0067
     146     2 Ga  31    1.669293   10.348524   11.117246     13.00      69.7230
     147     1 N    7    1.651814   10.358429   13.112374      5.00      14.0067
     148     2 Ga  31    1.694027    8.490318   13.669910     13.00      69.7230
     149     1 N    7    1.666613    8.475414   15.631736      5.00      14.0067
     150     2 Ga  31    1.848568   10.245211   16.531695     13.00      69.7230
     151     1 N    7    3.298621    9.408569   17.667291      5.00      14.0067
     152     1 N    7    9.724419    1.989766    2.695392      5.00      14.0067
     153     2 Ga  31    9.724832    0.222627    3.318911     13.00      69.7230
     154     1 N    7    9.724945    0.126412    5.306667      5.00      14.0067
     155     2 Ga  31    9.725111    1.984789    5.916349     13.00      69.7230
     156     1 N    7    9.724920    1.984205    7.902870      5.00      14.0067
     157     2 Ga  31    9.725133    0.117951    8.490093     13.00      69.7230
     158     1 N    7    9.725013    0.115136   10.485374      5.00      14.0067
     159     2 Ga  31    9.725742    1.984187   11.078107     13.00      69.7230
     160     1 N    7    9.724648    1.984732   13.050958      5.00      14.0067
     161     2 Ga  31    9.723918    0.114424   13.669652     13.00      69.7230
     162     1 N    7    9.722127    0.146627   15.631689      5.00      14.0067
     163     2 Ga  31    9.723955    1.984752   15.909657     13.00      69.7230
     164     1 N    7    7.998025    4.703101    2.559487      5.00      14.0067
     165     2 Ga  31    8.201453    2.870947    3.331402     13.00      69.7230
     166     1 N    7    8.113712    2.917299    5.313768      5.00      14.0067
     167     2 Ga  31    8.149128    4.782175    5.861481     13.00      69.7230
     168     1 N    7    8.124079    4.777116    7.857660      5.00      14.0067
     169     2 Ga  31    8.111091    2.919447    8.492511     13.00      69.7230
     170     1 N    7    8.106492    2.919364   10.487088      5.00      14.0067
     171     2 Ga  31    8.132663    4.779553   11.118095     13.00      69.7230
     172     1 N    7    8.148146    4.789038   13.113811      5.00      14.0067
     173     2 Ga  31    8.104848    2.919884   13.669492     13.00      69.7230
     174     1 N    7    8.132261    2.904264   15.633770      5.00      14.0067
     175     2 Ga  31    7.958770    4.679847   16.527895     13.00      69.7230
     176     1 N    7    6.500751    7.550536    2.715064      5.00      14.0067
     177     2 Ga  31    6.520056    5.709531    3.366892     13.00      69.7230
     178     1 N    7    6.507481    5.711290    5.307344      5.00      14.0067
     179     2 Ga  31    6.519169    7.564897    5.926530     13.00      69.7230
     180     1 N    7    6.510389    7.557289    7.897354      5.00      14.0067
     181     2 Ga  31    6.510683    5.688753    8.491031     13.00      69.7230
     182     1 N    7    6.507604    5.686330   10.483241      5.00      14.0067
     183     2 Ga  31    6.510952    7.556004   11.075007     13.00      69.7230
     184     1 N    7    6.509122    7.555613   13.047213      5.00      14.0067
     185     2 Ga  31    6.508262    5.686603   13.669832     13.00      69.7230
     186     1 N    7    6.505985    5.717175   15.632716      5.00      14.0067
     187     2 Ga  31    6.507732    7.556033   15.911567     13.00      69.7230
     188     1 N    7    4.796445   10.288384    2.581841      5.00      14.0067
     189     2 Ga  31    4.897288    8.486654    3.338627     13.00      69.7230
     190     1 N    7    4.910207    8.475198    5.290871      5.00      14.0067
     191     2 Ga  31    4.917606   10.356988    5.858562     13.00      69.7230
     192     1 N    7    4.908452   10.340921    7.856289      5.00      14.0067
     193     2 Ga  31    4.890935    8.488269    8.490898     13.00      69.7230
     194     1 N    7    4.890011    8.487528   10.483509      5.00      14.0067
     195     2 Ga  31    4.916128   10.348325   11.117555     13.00      69.7230
     196     1 N    7    4.932274   10.358580   13.113066      5.00      14.0067
     197     2 Ga  31    4.889441    8.490260   13.670307     13.00      69.7230
     198     1 N    7    4.915790    8.474076   15.633349      5.00      14.0067
     199     2 Ga  31    4.739890   10.248756   16.531121     13.00      69.7230
     200     3 O    8    0.137923    3.779042   -0.424368      6.00      15.9994
     201     4 C    6   -0.982950    3.167117   -1.088696      4.00      12.0107
     202     5 H    1   -1.186155    2.148119   -0.719495      1.00       1.0079
     203     5 H    1   -1.903418    3.763234   -0.976535      1.00       1.0079
     204     5 H    1   -0.735994    3.107580   -2.158551      1.00       1.0079
     205     2 Ga  31    3.294578    5.688387    2.910214     13.00      69.7230
     206     5 H    1    0.117800    7.518265    1.689492      1.00       1.0079
     207     4 C    6    3.289569    1.931690    1.259510      4.00      12.0107
     208     5 H    1    4.228600    1.817217    0.698755      1.00       1.0079
     209     5 H    1    2.347884    1.814919    0.703281      1.00       1.0079




 SCF PARAMETERS         Density guess:                                    ATOMIC
                        --------------------------------------------------------
                        max_scf:                                              80
                        max_scf_history:                                       0
                        max_diis:                                              4
                        --------------------------------------------------------
                        eps_scf:                                        5.00E-06
                        eps_scf_history:                                0.00E+00
                        eps_diis:                                       1.00E-01
                        eps_eigval:                                     1.00E-05
                        --------------------------------------------------------
                        level_shift [a.u.]:                                 0.00
                        --------------------------------------------------------
                        Outer loop SCF in use 
                        No variables optimised in outer loop
                        eps_scf                                         5.00E-06
                        max_scf                                                4
                        No outer loop optimization
                        step_size                                       5.00E-01

 PW_GRID| Information for grid number                                          1
 PW_GRID| Grid distributed over                                    80 processors
 PW_GRID| Real space group dimensions                                    80    1
 PW_GRID| the grid is blocked:                                                NO
 PW_GRID| Cutoff [a.u.]                                                    600.0
 PW_GRID| spherical cutoff:                                                   NO
 PW_GRID|   Bounds   1           -144     143                Points:         288
 PW_GRID|   Bounds   2           -144     143                Points:         288
 PW_GRID|   Bounds   3           -337     337                Points:         675
 PW_GRID| Volume element (a.u.^3)  0.5630E-03     Volume (a.u.^3)     31519.8467
 PW_GRID| Grid span                                                    FULLSPACE
 PW_GRID|   Distribution                         Average         Max         Min
 PW_GRID|   G-Vectors                           699840.0      699840      699840
 PW_GRID|   G-Rays                                2430.0        2430        2430
 PW_GRID|   Real Space Points                   699840.0      777600      583200

 PW_GRID| Information for grid number                                          2
 PW_GRID| Grid distributed over                                    80 processors
 PW_GRID| Real space group dimensions                                    80    1
 PW_GRID| the grid is blocked:                                                NO
 PW_GRID| Cutoff [a.u.]                                                    200.0
 PW_GRID| spherical cutoff:                                                   NO
 PW_GRID|   Bounds   1            -80      79                Points:         160
 PW_GRID|   Bounds   2            -80      79                Points:         160
 PW_GRID|   Bounds   3           -200     199                Points:         400
 PW_GRID| Volume element (a.u.^3)  0.3078E-02     Volume (a.u.^3)     31519.8467
 PW_GRID| Grid span                                                    FULLSPACE
 PW_GRID|   Distribution                         Average         Max         Min
 PW_GRID|   G-Vectors                           128000.0      128160      127840
 PW_GRID|   G-Rays                                 800.0         801         799
 PW_GRID|   Real Space Points                   128000.0      128000      128000

 PW_GRID| Information for grid number                                          3
 PW_GRID| Grid distributed over                                    80 processors
 PW_GRID| Real space group dimensions                                    80    1
 PW_GRID| the grid is blocked:                                                NO
 PW_GRID| Cutoff [a.u.]                                                     66.7
 PW_GRID| spherical cutoff:                                                   NO
 PW_GRID|   Bounds   1            -48      47                Points:          96
 PW_GRID|   Bounds   2            -48      47                Points:          96
 PW_GRID|   Bounds   3           -112     112                Points:         225
 PW_GRID| Volume element (a.u.^3)  0.1520E-01     Volume (a.u.^3)     31519.8467
 PW_GRID| Grid span                                                    FULLSPACE
 PW_GRID|   Distribution                         Average         Max         Min
 PW_GRID|   G-Vectors                            25920.0       26688       24864
 PW_GRID|   G-Rays                                 270.0         278         259
 PW_GRID|   Real Space Points                    25920.0       43200       21600

 PW_GRID| Information for grid number                                          4
 PW_GRID| Grid distributed over                                    80 processors
 PW_GRID| Real space group dimensions                                     8   10
 PW_GRID| the grid is blocked:                                                NO
[...]
     50       N      1       5.000    2.053   2.048            0.005      0.899
     51       Ga     2      13.000    6.915   6.910            0.006     -0.825
     52       N      1       5.000    2.291   2.170            0.122      0.539
     53       N      1       5.000    2.244   2.244           -0.000      0.512
     54       Ga     2      13.000    6.954   6.954           -0.001     -0.908
     55       N      1       5.000    2.059   2.060           -0.000      0.881
     56       Ga     2      13.000    6.954   6.955           -0.001     -0.909
     57       N      1       5.000    2.057   2.057           -0.001      0.886
     58       Ga     2      13.000    6.939   6.940           -0.001     -0.879
     59       N      1       5.000    2.062   2.062           -0.000      0.875
     60       Ga     2      13.000    6.947   6.947           -0.000     -0.894
     61       N      1       5.000    2.063   2.061            0.001      0.876
     62       Ga     2      13.000    6.951   6.950            0.001     -0.900
     63       N      1       5.000    2.055   2.045            0.010      0.900
     64       Ga     2      13.000    6.858   6.856            0.002     -0.714
     65       N      1       5.000    2.107   2.107            0.000      0.785
     66       Ga     2      13.000    6.986   6.986           -0.000     -0.973
     67       N      1       5.000    2.050   2.051           -0.000      0.899
     68       Ga     2      13.000    6.937   6.939           -0.002     -0.876
     69       N      1       5.000    2.060   2.061           -0.001      0.880
     70       Ga     2      13.000    6.938   6.939           -0.001     -0.878
     71       N      1       5.000    2.061   2.062           -0.000      0.877
     72       Ga     2      13.000    6.939   6.939           -0.000     -0.878
     73       N      1       5.000    2.060   2.060           -0.000      0.880
     74       Ga     2      13.000    6.950   6.950            0.000     -0.900
     75       N      1       5.000    2.053   2.048            0.005      0.900
     76       Ga     2      13.000    6.917   6.908            0.009     -0.825
     77       N      1       5.000    2.235   2.235           -0.000      0.530
     78       Ga     2      13.000    6.990   6.990           -0.000     -0.979
     79       N      1       5.000    2.051   2.051           -0.000      0.899
     80       Ga     2      13.000    6.946   6.946           -0.000     -0.892
     81       N      1       5.000    2.056   2.056           -0.000      0.889
     82       Ga     2      13.000    6.938   6.938           -0.000     -0.876
     83       N      1       5.000    2.061   2.062           -0.000      0.877
     84       Ga     2      13.000    6.946   6.947           -0.000     -0.893
     85       N      1       5.000    2.062   2.061            0.001      0.877
     86       Ga     2      13.000    6.950   6.949            0.001     -0.899
     87       N      1       5.000    2.056   2.044            0.011      0.900
     88       Ga     2      13.000    6.858   6.857            0.001     -0.715
     89       N      1       5.000    2.134   2.139           -0.005      0.727
     90       Ga     2      13.000    7.000   7.001           -0.001     -1.001
     91       N      1       5.000    2.060   2.061           -0.001      0.879
     92       Ga     2      13.000    6.931   6.933           -0.002     -0.864
     93       N      1       5.000    2.063   2.063           -0.000      0.874
     94       Ga     2      13.000    6.938   6.939           -0.001     -0.877
     95       N      1       5.000    2.062   2.062           -0.000      0.876
     96       Ga     2      13.000    6.939   6.940           -0.000     -0.879
     97       N      1       5.000    2.060   2.060           -0.000      0.880
     98       Ga     2      13.000    6.951   6.950            0.001     -0.901
     99       N      1       5.000    2.053   2.048            0.005      0.900
    100       Ga     2      13.000    6.915   6.909            0.006     -0.824
    101       N      1       5.000    2.076   2.132           -0.056      0.792
    102       Ga     2      13.000    6.946   6.956           -0.009     -0.902
    103       N      1       5.000    2.084   2.090           -0.005      0.826
    104       Ga     2      13.000    6.942   6.944           -0.002     -0.886
    105       N      1       5.000    2.059   2.060           -0.001      0.882
    106       Ga     2      13.000    6.947   6.948           -0.001     -0.894
    107       N      1       5.000    2.052   2.052           -0.000      0.896
    108       Ga     2      13.000    6.938   6.939           -0.000     -0.877
    109       N      1       5.000    2.060   2.060           -0.000      0.880
    110       Ga     2      13.000    6.873   6.874           -0.001     -0.746
    111       N      1       5.000    2.135   2.136           -0.001      0.728
    112       Ga     2      13.000    6.916   6.907            0.008     -0.823
    113       Ga     2      13.000    6.558   6.926           -0.368     -0.484
    114       N      1       5.000    2.077   2.137           -0.060      0.785
    115       Ga     2      13.000    6.986   6.995           -0.009     -0.981
    116       N      1       5.000    2.048   2.053           -0.006      0.899
    117       Ga     2      13.000    6.937   6.940           -0.003     -0.877
    118       N      1       5.000    2.060   2.062           -0.001      0.878
    119       Ga     2      13.000    6.939   6.940           -0.001     -0.879
    120       N      1       5.000    2.061   2.062           -0.000      0.877
    121       Ga     2      13.000    6.939   6.939           -0.000     -0.878
    122       N      1       5.000    2.060   2.060           -0.000      0.880
    123       Ga     2      13.000    6.950   6.950            0.000     -0.900
    124       N      1       5.000    2.053   2.048            0.005      0.900
    125       Ga     2      13.000    6.917   6.908            0.008     -0.825
    126       N      1       5.000    2.313   2.155            0.157      0.532
    127       N      1       5.000    2.101   2.103           -0.002      0.796
    128       N      1       5.000    2.092   2.100           -0.008      0.808
    129       Ga     2      13.000    6.941   6.943           -0.002     -0.884
    130       N      1       5.000    2.060   2.061           -0.001      0.879
    131       Ga     2      13.000    6.950   6.950           -0.001     -0.900
    132       N      1       5.000    2.052   2.052           -0.000      0.897
    133       Ga     2      13.000    6.939   6.939           -0.000     -0.878
    134       N      1       5.000    2.060   2.060            0.000      0.881
    135       Ga     2      13.000    6.872   6.874           -0.001     -0.746
    136       N      1       5.000    2.135   2.136           -0.001      0.729
    137       Ga     2      13.000    6.915   6.909            0.006     -0.825
    138       Ga     2      13.000    6.716   6.734           -0.018     -0.451
    139       N      1       5.000    2.095   2.097           -0.002      0.808
    140       Ga     2      13.000    6.983   6.984           -0.001     -0.967
    141       N      1       5.000    2.049   2.049           -0.000      0.902
    142       Ga     2      13.000    6.945   6.947           -0.002     -0.892
    143       N      1       5.000    2.058   2.059           -0.001      0.883
    144       Ga     2      13.000    6.939   6.940           -0.001     -0.879
    145       N      1       5.000    2.061   2.061           -0.000      0.878
    146       Ga     2      13.000    6.938   6.938           -0.000     -0.876
    147       N      1       5.000    2.060   2.060           -0.000      0.880
    148       Ga     2      13.000    6.950   6.950            0.001     -0.900
    149       N      1       5.000    2.053   2.047            0.005      0.900
    150       Ga     2      13.000    6.915   6.909            0.006     -0.824
    151       N      1       5.000    2.295   2.167            0.128      0.539
    152       N      1       5.000    2.122   2.122           -0.000      0.756
    153       Ga     2      13.000    6.960   6.960           -0.001     -0.920
    154       N      1       5.000    2.049   2.050           -0.000      0.901
    155       Ga     2      13.000    6.932   6.933           -0.001     -0.865
    156       N      1       5.000    2.056   2.057           -0.001      0.887
    157       Ga     2      13.000    6.939   6.939           -0.001     -0.878
    158       N      1       5.000    2.061   2.061           -0.000      0.878
    159       Ga     2      13.000    6.946   6.947           -0.000     -0.893
    160       N      1       5.000    2.062   2.061            0.002      0.877
    161       Ga     2      13.000    6.950   6.949            0.001     -0.899
    162       N      1       5.000    2.055   2.045            0.011      0.900
    163       Ga     2      13.000    6.858   6.856            0.002     -0.714
    164       N      1       5.000    2.059   2.126           -0.067      0.816
    165       Ga     2      13.000    6.963   6.971           -0.008     -0.934
    166       N      1       5.000    2.050   2.055           -0.004      0.895
    167       Ga     2      13.000    6.945   6.947           -0.002     -0.892
    168       N      1       5.000    2.060   2.060           -0.001      0.880
    169       Ga     2      13.000    6.938   6.939           -0.001     -0.878
    170       N      1       5.000    2.061   2.061           -0.000      0.877
    171       Ga     2      13.000    6.938   6.939           -0.000     -0.877
    172       N      1       5.000    2.060   2.060           -0.000      0.880
    173       Ga     2      13.000    6.950   6.950            0.000     -0.900
    174       N      1       5.000    2.053   2.048            0.005      0.899
    175       Ga     2      13.000    6.917   6.908            0.008     -0.825
    176       N      1       5.000    2.122   2.121            0.000      0.757
    177       Ga     2      13.000    6.962   6.971           -0.008     -0.933
    178       N      1       5.000    2.051   2.057           -0.006      0.892
    179       Ga     2      13.000    6.933   6.935           -0.001     -0.868
    180       N      1       5.000    2.057   2.058           -0.001      0.884
    181       Ga     2      13.000    6.937   6.938           -0.001     -0.875
    182       N      1       5.000    2.062   2.062           -0.000      0.876
    183       Ga     2      13.000    6.946   6.946           -0.000     -0.892
    184       N      1       5.000    2.063   2.061            0.001      0.876
    185       Ga     2      13.000    6.950   6.949            0.001     -0.900
    186       N      1       5.000    2.056   2.045            0.011      0.900
    187       Ga     2      13.000    6.858   6.857            0.001     -0.715
    188       N      1       5.000    2.090   2.092           -0.002      0.818
    189       Ga     2      13.000    6.953   6.954           -0.001     -0.906
    190       N      1       5.000    2.052   2.052           -0.000      0.896
    191       Ga     2      13.000    6.948   6.948           -0.000     -0.895
    192       N      1       5.000    2.059   2.060           -0.000      0.881
    193       Ga     2      13.000    6.938   6.939           -0.001     -0.877
    194       N      1       5.000    2.061   2.062           -0.000      0.877
    195       Ga     2      13.000    6.938   6.938           -0.000     -0.876
    196       N      1       5.000    2.060   2.060           -0.000      0.880
    197       Ga     2      13.000    6.950   6.950            0.001     -0.900
    198       N      1       5.000    2.053   2.048            0.005      0.899
    199       Ga     2      13.000    6.915   6.909            0.006     -0.825
    200       O      3       6.000    3.014   3.015           -0.000     -0.029
    201       C      4       4.000    2.436   2.436           -0.000     -0.873
    202       H      5       1.000    0.280   0.280           -0.000      0.440
    203       H      5       1.000    0.281   0.281           -0.000      0.439
    204       H      5       1.000    0.280   0.280           -0.000      0.440
    205       Ga     2      13.000    6.905   6.914           -0.009     -0.819
    206       H      5       1.000    0.233   0.233           -0.000      0.533
    207       C      4       4.000    2.112   2.112           -0.000     -0.224
    208       H      5       1.000    0.269   0.269           -0.000      0.462
    209       H      5       1.000    0.267   0.267            0.000      0.467

  Total Charge                                                            0.002
 !-----------------------------------------------------------------------------!

 ENERGY| Total FORCE_EVAL ( QS ) energy (a.u.):            -8487.514100916447205


 --------  Informations at step =    14 ------------
  Optimization Method        =                 BFGS
  Total Energy               =     -8487.5141009164
  Real energy change         =        -0.0048506710
  Predicted change in energy =        -0.0000472318
  Scaling factor             =         0.0000000000
  Step size                  =         0.0935734653
  Trust radius               =         0.4724315332
  Decrease in energy         =                  YES
  Used time                  =              501.718

  Convergence check :
  Max. step size             =         0.0935734653
  Conv. limit for step size  =         0.0030000000
  Convergence in step size   =                   NO
  RMS step size              =         0.0056027972
  Conv. limit for RMS step   =         0.0015000000
  Convergence in RMS step    =                   NO
  Max. gradient              =         0.0038420216
  Conv. limit for gradients  =         0.0004500000
  Conv. for gradients        =                   NO
  RMS gradient               =         0.0006869281
  Conv. limit for RMS grad.  =         0.0003000000
  Conv. for gradients        =                   NO
 ---------------------------------------------------

 --------------------------
 OPTIMIZATION STEP:     15
 --------------------------

  Step is scaled; Scaling factor =  0.01179

 Spin 1

 Number of electrons:                                                        910
 Number of occupied orbitals:                                                910
 Number of molecular orbitals:                                               910

 Spin 2

 Number of electrons:                                                        910
 Number of occupied orbitals:                                                910
 Number of molecular orbitals:                                               910

 Number of orbital functions:                                               3869
 Number of independent orbital functions:                                   3869

 Parameters for the always stable predictor-corrector (ASPC) method:

  ASPC order: 3

  B(1) =   3.000000
  B(2) =  -3.428571
  B(3) =   1.928571
  B(4) =  -0.571429
  B(5) =   0.071429

 Parameters for the always stable predictor-corrector (ASPC) method:

  ASPC order: 3

  B(1) =   3.000000
  B(2) =  -3.428571
  B(3) =   1.928571
  B(4) =  -0.571429
  B(5) =   0.071429

 Extrapolation method: ASPC


 SCF WAVEFUNCTION OPTIMIZATION

  ----------------------------------- OT ---------------------------------------
  Minimizer      : CG                  : conjugate gradient
  Preconditioner : FULL_ALL            : diagonalization, state selective
  Precond_solver : DEFAULT
  Line search    : 2PNT                : 2 energies, one gradient
  stepsize       :    0.15000000                  energy_gap     :    0.08000000
  eps_taylor     :   0.10000E-15                  max_taylor     :             4
  ----------------------------------- OT ---------------------------------------

  Step     Update method      Time    Convergence         Total energy    Change
  ------------------------------------------------------------------------------
     1 OT CG       0.15E+00   27.2     0.00118328     -8486.4227291981 -8.49E+03
     2 OT LS       0.58E-01    8.2                    -8485.9966250494
     3 OT CG       0.58E-01   18.0     0.00057522     -8486.7103258055 -2.88E-01
     4 OT LS       0.23E+00    8.2                    -8486.8232443773
     5 OT CG       0.23E+00   17.9     0.00042321     -8487.0063272322 -2.96E-01
     6 OT LS       0.10E+00    8.4                    -8486.9681320085
     7 OT CG       0.10E+00   18.2     0.00026656     -8487.0740953989 -6.78E-02
     8 OT LS       0.11E+00    8.4                    -8487.1001810950
     9 OT CG       0.11E+00   17.7     0.00016943     -8487.1002358929 -2.61E-02
    10 OT LS       0.15E+00    8.3                    -8487.1142481553
    11 OT CG       0.15E+00   18.2     0.00010285     -8487.1154429420 -1.52E-02
    12 OT LS       0.14E+00    8.3                    -8487.1207221921
    13 OT CG       0.14E+00   18.1     0.00009095     -8487.1207328062 -5.29E-03
    14 OT LS       0.17E+00    8.3                    -8487.1254531671
    15 OT CG       0.17E+00   17.9     0.00010007     -8487.1254250385 -4.69E-03
    16 OT LS       0.14E+00    8.4                    -8487.1295566989
    17 OT CG       0.14E+00   18.3     0.00011270     -8487.1297755688 -4.35E-03
    18 OT LS       0.80E-01    7.6                    -8487.1312945750
    19 OT CG       0.80E-01   17.0     0.00007786     -8487.1332556192 -3.48E-03
    20 OT LS       0.19E+00    8.3                    -8487.1359155463
    21 OT CG       0.19E+00   17.9     0.00007858     -8487.1370716299 -3.82E-03
    22 OT LS       0.18E+00    8.4                    -8487.1406280811
    23 OT CG       0.18E+00   18.2     0.00006470     -8487.1406412142 -3.57E-03
    24 OT LS       0.14E+00    8.3                    -8487.1425832227
    25 OT CG       0.14E+00   17.9     0.00005062     -8487.1427114905 -2.07E-03
    26 OT LS       0.24E+00    8.4                    -8487.1444942324
    27 OT CG       0.24E+00   18.5     0.00007823     -8487.1448026058 -2.09E-03
    28 OT LS       0.21E+00    8.0                    -8487.1490236156
    29 OT CG       0.21E+00   16.6     0.00009340     -8487.1491407229 -4.34E-03
    30 OT LS       0.12E+00    7.4                    -8487.1508971231
    31 OT CG       0.12E+00   17.2     0.00007516     -8487.1529405909 -3.80E-03
    32 OT LS       0.28E+00    8.5                    -8487.1567433681
    33 OT CG       0.28E+00   18.2     0.00008047     -8487.1584676515 -5.53E-03
    34 OT LS       0.24E+00    8.1                    -8487.1635608294
    35 OT CG       0.24E+00   16.1     0.00007680     -8487.1638099198 -5.34E-03
    36 OT LS       0.21E+00    7.0                    -8487.1678841943
    37 OT CG       0.21E+00   18.5     0.00006557     -8487.1680157826 -4.21E-03
    38 OT LS       0.18E+00    8.4                    -8487.1705759359
    39 OT CG       0.18E+00   17.8     0.00005988     -8487.1706782421 -2.66E-03
    40 OT LS       0.18E+00    8.4                    -8487.1729706751
    41 OT CG       0.18E+00   14.8     0.00004447     -8487.1729792163 -2.30E-03
    42 OT LS       0.17E+00    7.0                    -8487.1741592562
    43 OT CG       0.17E+00   15.4     0.00003314     -8487.1741691546 -1.19E-03
    44 OT LS       0.22E+00    8.6                    -8487.1749688289
    45 OT CG       0.22E+00   18.2     0.00002800     -8487.1750132224 -8.44E-04
    46 OT LS       0.22E+00    8.7                    -8487.1756101156
    47 OT CG       0.22E+00   18.3     0.00002441     -8487.1756102066 -5.97E-04
    48 OT LS       0.19E+00    8.2                    -8487.1760113343
    49 OT CG       0.19E+00   18.0     0.00002039     -8487.1760161069 -4.06E-04
