     209
 i =        1, E =     -8487.5007609800
  N         0.0649775951        2.1110554812        2.5597284351
 Ga         0.0608428458        0.1336913628        2.9484777966
  N         0.0591968923        0.1406670090        5.1136767770
 Ga         0.0615807460        1.9522336159        5.8747668123
  N         0.0789708343        1.9779653910        7.8625609076
 Ga         0.0794019257        0.1244507787        8.4908990859
  N         0.0780989965        0.1262743579       10.4661587294
 Ga         0.0763781671        1.9659687394       11.1189685945
  N         0.0761405806        1.9472679978       13.1124167748
 Ga         0.0763616540        0.1273149899       13.9174683095
  N         0.0758753367        0.1280311385       16.1169747348
 Ga         0.0769091195        2.1668567042       16.5294890299
 Ga         0.0318723075        3.8485501251        1.3889232551
  N        -1.4172464159        4.7065184807        2.5646773390
 Ga        -1.6144661898        2.8719569909        3.3296731030
  N        -1.5285799347        2.9170647166        5.3117758393
 Ga        -1.5636188912        4.7820801936        5.8613364462
  N        -1.5383484274        4.7766211097        7.8563236339
 Ga        -1.5257666786        2.9193406952        8.4930557973
  N        -1.5206154952        2.9195060714       10.4854765008
 Ga        -1.5470894277        4.7794795437       11.1184027506
  N        -1.5640619903        4.7890144734       13.1120957989
 Ga        -1.5210114982        2.9196552039       13.6689860703
  N        -1.5465847188        2.9032889345       15.6309237659
 Ga        -1.3738124439        4.6759414398       16.5287770655
  N         0.0786419538        3.8424458326       17.6678071750
  N        -3.1367247194        7.6318533333        2.5232086025
 Ga        -3.1324263497        5.7019312308        2.9092818132
  N        -3.1395444270        5.6839113409        5.0898285374
 Ga        -3.1387437268        7.5244941671        5.8157855571
  N        -3.1373329643        7.5466500044        7.8263066293
 Ga        -3.1383476329        5.7050642416        8.4911685957
  N        -3.1397848214        5.7006127539       10.4669689867
 Ga        -3.1389497292        7.5392896502       11.1178207993
  N        -3.1401713883        7.5189315346       13.1111788465
 Ga        -3.1400395610        5.6991315596       13.9163584190
  N        -3.1406597802        5.7006794694       16.1167454789
 Ga        -3.1390576976        7.7445485949       16.5350912500
 Ga        -3.1558884653        9.1190734516        0.7713186508
  N        -4.7208487395       10.3135771300        2.5483825437
 Ga        -4.7727615538        8.4701321305        3.2376917906
  N        -4.7410374354        8.4876312328        5.2452374741
 Ga        -4.7892024395       10.3520704018        5.8271161615
  N        -4.7521880681       10.3470599701        7.8292057658
 Ga        -4.7338747174        8.4891517978        8.4754992981
  N        -4.7352384155        8.4904585710       10.4732640003
 Ga        -4.7620758936       10.3479352276       11.1182941855
  N        -4.7796115191       10.3584896199       13.1113282260
 Ga        -4.7371039236        8.4898569079       13.6706728538
  N        -4.7645982202        8.4726488049       15.6307446048
 Ga        -4.5846054787       10.2434630914       16.5348090736
  N        -3.1369860418        9.4132028883       17.6682463263
  N         3.2891927395        2.1768733882        2.5252879031
 Ga         3.2924418380       -0.1365470181        3.3071884494
  N         3.2953335497        0.1425210443        5.2377755001
 Ga         3.2923405382        1.9680041357        5.9306079395
  N         3.2934875877        1.9794180597        7.8931077040
 Ga         3.2936080237        0.1093326949        8.4853192424
  N         3.2932266747        0.1146302323       10.4767697589
 Ga         3.2930061354        1.9822967483       11.0798821331
  N         3.2922452705        1.9834998951       13.0487499939
 Ga         3.2918489734        0.1139538420       13.6728691056
  N         3.2914011688        0.1469523638       15.6341442765
 Ga         3.2914189736        1.9848951665       15.9132272439
  N         1.5620018710        4.7031213407        2.5571265044
 Ga         1.6085893613        2.9212432590        3.3856397224
  N         1.7008704896        2.9023892119        5.3038992902
 Ga         1.7147736199        4.7916764215        5.8649705369
  N         1.6925972455        4.7717227671        7.8516286348
 Ga         1.6760524634        2.9161506548        8.4975529316
  N         1.6762346429        2.9189168242       10.4850523030
 Ga         1.6992937763        4.7785830996       11.1220332439
  N         1.7159918497        4.7885650927       13.1142429641
 Ga         1.6725168978        2.9188597827       13.6694064459
  N         1.6987978726        2.9026089696       15.6302584569
 Ga         1.5280717793        4.6762294779       16.5297092017
  N         0.0840074311        7.5505984435        2.7146508468
 Ga         0.0624346843        5.7112623793        3.3683871337
  N         0.0786336281        5.7123390467        5.3066262627
 Ga         0.0652155646        7.5660120339        5.9266022851
  N         0.0753806892        7.5577533835        7.8954811710
 Ga         0.0744826881        5.6894507431        8.4919226248
  N         0.0778632161        5.6864098137       10.4825120370
 Ga         0.0753708988        7.5561923322       11.0754787745
  N         0.0753657483        7.5551381461       13.0460094060
 Ga         0.0752525405        5.6861884102       13.6706921965
  N         0.0755592936        5.7153798083       15.6341547846
 Ga         0.0755482199        7.5554621902       15.9144061073
  N        -1.5510270769       10.3158980887        2.5428367035
 Ga        -1.5469958643        8.4936318207        3.2563108646
  N        -1.5201538452        8.4790192899        5.2429508686
 Ga        -1.4901469752       10.3504213455        5.8274853688
  N        -1.5260149672       10.3449107889        7.8270864851
 Ga        -1.5459854124        8.4905825984        8.4798054895
  N        -1.5427747647        8.4905508975       10.4744462163
 Ga        -1.5167939839       10.3474418115       11.1189788141
  N        -1.5005699531       10.3586318258       13.1119055594
 Ga        -1.5435258696        8.4898157676       13.6700887892
  N        -1.5154037774        8.4718059448       15.6295614798
 Ga        -1.6923195790       10.2443039696       16.5346432869
  N         6.5188222019        2.1027895974        2.5560982640
 Ga         6.5256509671        0.1272656432        2.9612185190
  N         6.5254467125        0.1405600181        5.1154992097
 Ga         6.5233263859        1.9501714032        5.8799864354
  N         6.5065686680        1.9773307613        7.8643615347
 Ga         6.5061330507        0.1229906549        8.4904228572
  N         6.5067080509        0.1261874054       10.4650252728
 Ga         6.5094181925        1.9654424452       11.1194346413
  N         6.5078067492        1.9472984825       13.1124433678
 Ga         6.5083636577        0.1274341089       13.9179475608
  N         6.5072053287        0.1279060736       16.1173440910
 Ga         6.5094812461        2.1680169564       16.5304886130
 Ga         6.5635940153        3.8597923905        1.4077228821
  N         5.0125394280        4.7016414637        2.5774402410
 Ga         4.9655478999        2.9163163873        3.3819647123
  N         4.8883237190        2.9004144085        5.2992742214
 Ga         4.8670056203        4.7912378384        5.8662210158
  N         4.8912237428        4.7705656888        7.8532233977
 Ga         4.9093799072        2.9153233536        8.4991619657
  N         4.9099887536        2.9188463135       10.4855585420
 Ga         4.8855705543        4.7786477213       11.1222591889
  N         4.8682927326        4.7883101175       13.1139591983
 Ga         4.9112255639        2.9188678374       13.6706148130
  N         4.8845664326        2.9028288721       15.6316709363
 Ga         5.0605191715        4.6750610134       16.5306769305
  N         6.5117521975        3.8422270480       17.6667763751
  N         3.2872589778        7.6643862005        2.5683757230
  N         3.2908856883        5.6889936137        5.0843872301
 Ga         3.2903309576        7.5197406080        5.8504836252
  N         3.2910260874        7.5433363176        7.8456069110
 Ga         3.2915569538        5.6987387295        8.4980134097
  N         3.2925719264        5.6977429124       10.4691401047
 Ga         3.2925223255        7.5374514225       11.1222655085
  N         3.2919376571        7.5177943767       13.1141416442
 Ga         3.2924440670        5.6986247209       13.9188254410
  N         3.2914458423        5.6999513874       16.1176365930
 Ga         3.2933584480        7.7434190798       16.5342290830
 Ga         3.3104805714        9.4770497966        1.3448062443
  N         1.7883950693       10.2901807832        2.5743877676
 Ga         1.6813468829        8.4858826029        3.3402899724
  N         1.6740735857        8.4776100883        5.2885019654
 Ga         1.6665509718       10.3570028104        5.8619209376
  N         1.6770062943       10.3414182113        7.8558111922
 Ga         1.6934600227        8.4887967469        8.4925500523
  N         1.6959407744        8.4881261554       10.4826878419
 Ga         1.6690460676       10.3487663556       11.1183356088
  N         1.6515534869       10.3586503747       13.1118980316
 Ga         1.6942422249        8.4899511494       13.6703906423
  N         1.6680237345        8.4725910300       15.6312156301
 Ga         1.8460462813       10.2447846401       16.5330813412
  N         3.2952427652        9.4136652678       17.6668920176
  N         9.7287884974        1.9890828134        2.6881138104
 Ga         9.7242281589        0.2278738918        3.3213027856
  N         9.7224167151        0.1251586759        5.3048150704
 Ga         9.7255328940        1.9849979973        5.9149402505
  N         9.7241635979        1.9842841661        7.8998100504
 Ga         9.7242059001        0.1184206197        8.4920689330
  N         9.7246686320        0.1156974155       10.4849977299
 Ga         9.7254351083        1.9846659967       11.0789430722
  N         9.7243959944        1.9844308180       13.0495724408
 Ga         9.7241522615        0.1143641994       13.6710515845
  N         9.7238341817        0.1462438338       15.6335650597
 Ga         9.7239621951        1.9849352245       15.9109971961
  N         8.0101052260        4.7033158352        2.5806203735
 Ga         8.2098856376        2.8650460794        3.3274894584
  N         8.1093944907        2.9166935505        5.3064744636
 Ga         8.1513459059        4.7825407255        5.8651141130
  N         8.1250012617        4.7751683555        7.8593629977
 Ga         8.1112078939        2.9183319100        8.4955846603
  N         8.1060960044        2.9191025723       10.4867419978
 Ga         8.1327843833        4.7789951613       11.1193743193
  N         8.1482102081        4.7890769790       13.1128346196
 Ga         8.1048208354        2.9196734035       13.6686074615
  N         8.1315518894        2.9023536063       15.6295977557
 Ga         7.9596024148        4.6759398221       16.5296897716
  N         6.5022102276        7.5531674362        2.7129924587
 Ga         6.5199791855        5.7667896058        3.3413030260
  N         6.5065125985        5.6904390100        5.2970900576
 Ga         6.5206462594        7.5657557285        5.8905220261
  N         6.5095139918        7.5563160230        7.8764603999
 Ga         6.5107849728        5.6907457419        8.4912168834
  N         6.5076302777        5.6855305045       10.4829647342
 Ga         6.5107321477        7.5561653059       11.0754112621
  N         6.5090811592        7.5551876092       13.0461367748
 Ga         6.5085601051        5.6862794336       13.6709561094
  N         6.5074174827        5.7161108728       15.6339059127
 Ga         6.5077911961        7.5556139719       15.9144899171
  N         4.7892707650       10.2906174986        2.5922099180
 Ga         4.9447829335        8.4600286103        3.3176413717
  N         4.8936111795        8.4839144135        5.2852707565
 Ga         4.9181828899       10.3584260196        5.8609560654
  N         4.9074684490       10.3427095554        7.8573179337
 Ga         4.8927334326        8.4873962348        8.4898618490
  N         4.8892367663        8.4878802116       10.4825770538
 Ga         4.9158501860       10.3486492952       11.1188168258
  N         4.9325926820       10.3588049739       13.1125848168
 Ga         4.8895217667        8.4900026122       13.6694964005
  N         4.9161670880        8.4721948955       15.6297267071
 Ga         4.7412258860       10.2452821945       16.5329957247
  O         0.1388704399        3.7788020086       -0.4222635375
  C        -0.9816327787        3.1681452572       -1.0886007524
  H        -1.1856288598        2.1495474657       -0.7201266196
  H        -1.9028396728        3.7618845917       -0.9766221831
  H        -0.7370558666        3.1068515385       -2.1583343649
 Ga         3.2879419777        5.7027383959        2.9110355093
  H         0.1166768081        7.5177735705        1.6896859790
  C         3.2863918967        1.9350760016        1.2574352852
  H         4.2268292886        1.8131834292        0.7015164796
  H         2.3466076732        1.8135391698        0.7020695075
     209
 i =        2, E =     -8487.5052660729
  N         0.0641234004        2.1152448963        2.5550372361
 Ga         0.0723159489        0.1343787173        2.9464122438
  N         0.0567190529        0.1383560238        5.1103312200
 Ga         0.0608043552        1.9493052703        5.8741219772
  N         0.0788349806        1.9774756877        7.8596617758
 Ga         0.0799497672        0.1238121553        8.4927774048
  N         0.0780047846        0.1263544893       10.4657358309
 Ga         0.0761326947        1.9656917173       11.1206603849
  N         0.0763448702        1.9475480337       13.1109889675
 Ga         0.0763343360        0.1280200892       13.9213176570
  N         0.0759713605        0.1272740317       16.1175201259
 Ga         0.0767816351        2.1708418771       16.5311759210
 Ga         0.0294629660        3.8477400632        1.3848945066
  N        -1.4141024037        4.7057390159        2.5601449835
 Ga        -1.6142484113        2.8730500248        3.3299046550
  N        -1.5286896688        2.9172057580        5.3091077579
 Ga        -1.5656878982        4.7827797443        5.8618161340
  N        -1.5382631700        4.7766508582        7.8540133104
 Ga        -1.5254779402        2.9195275381        8.4931274395
  N        -1.5210249718        2.9197083557       10.4830721203
 Ga        -1.5468454167        4.7796470273       11.1212663898
  N        -1.5635012673        4.7884574942       13.1125751777
 Ga        -1.5206645159        2.9187723117       13.6713000189
  N        -1.5456821808        2.9017613403       15.6305526755
 Ga        -1.3730013654        4.6756941127       16.5306016083
  N         0.0760418580        3.8466932778       17.6724985665
  N        -3.1354870425        7.6366737243        2.5218843231
 Ga        -3.1194120186        5.7161978049        2.9174020921
  N        -3.1397861300        5.6858728433        5.0905996365
 Ga        -3.1427015505        7.5304570562        5.8164528494
  N        -3.1351464220        7.5455050736        7.8262895289
 Ga        -3.1384580289        5.7058700322        8.4921156992
  N        -3.1390607207        5.7001389345       10.4659647901
 Ga        -3.1405801487        7.5401894963       11.1175364365
  N        -3.1397088569        7.5190882366       13.1093920497
 Ga        -3.1400317965        5.6995217272       13.9197071973
  N        -3.1400074618        5.6991203330       16.1170256667
 Ga        -3.1389098090        7.7476401980       16.5355759848
 Ga        -3.1826772669        9.1033571278        0.7799891704
  N        -4.7195269285       10.3129082347        2.5442423586
 Ga        -4.8218167408        8.4452542388        3.2186348980
  N        -4.7313770498        8.4930107443        5.2498585694
 Ga        -4.7879252440       10.3461155434        5.8263963392
  N        -4.7527664788       10.3497112353        7.8285528070
 Ga        -4.7377572614        8.4869869442        8.4651409861
  N        -4.7361878814        8.4902717472       10.4647699242
 Ga        -4.7619340765       10.3463466539       11.1189672730
  N        -4.7794468689       10.3584321534       13.1110043055
 Ga        -4.7370502559        8.4890537349       13.6725405402
  N        -4.7647504663        8.4705542516       15.6306924679
 Ga        -4.5844077142       10.2437460785       16.5348120638
  N        -3.1395596464        9.4165521966       17.6657007933
  N         3.2875129644        2.1826035737        2.5201370380
 Ga         3.2868639797       -0.1530949661        3.3157124801
  N         3.2972906082        0.1448831761        5.2401270320
 Ga         3.2900923407        1.9669232206        5.9314261007
  N         3.2946753318        1.9800464635        7.8909848592
 Ga         3.2920555557        0.1088514121        8.4861837025
  N         3.2936383438        0.1147876828       10.4753044883
 Ga         3.2926353254        1.9819390844       11.0817243667
  N         3.2923119055        1.9834667788       13.0476963024
 Ga         3.2924320455        0.1136887941       13.6747004071
  N         3.2926075870        0.1478906473       15.6338677606
 Ga         3.2922434980        1.9843744245       15.9111116759
  N         1.5583236061        4.7029115955        2.5512978329
 Ga         1.6064948577        2.9215825587        3.3868389990
  N         1.7000317927        2.9024251430        5.3026511500
 Ga         1.7150574093        4.7916820451        5.8651319693
  N         1.6931157829        4.7721923814        7.8490853016
 Ga         1.6758901688        2.9161451115        8.4978553564
  N         1.6760725212        2.9193297759       10.4829837151
 Ga         1.6989084125        4.7788989693       11.1244606131
  N         1.7159244212        4.7881206412       13.1137377513
 Ga         1.6728367362        2.9183032735       13.6714794077
  N         1.6988459696        2.9015157423       15.6295629675
 Ga         1.5257432463        4.6751555699       16.5314310131
  N         0.0823695850        7.5514389393        2.7120004810
 Ga         0.0610546680        5.7109008072        3.3699409538
  N         0.0786114440        5.7111974920        5.3058889669
 Ga         0.0630142995        7.5639620717        5.9293340580
  N         0.0762679787        7.5584303171        7.8947634525
 Ga         0.0743792263        5.6895500838        8.4929262074
  N         0.0777835742        5.6867043370       10.4807261305
 Ga         0.0751160818        7.5564767936       11.0774662239
  N         0.0756435464        7.5547924011       13.0444196013
 Ga         0.0758178519        5.6863651645       13.6728652327
  N         0.0764758877        5.7146466767       15.6337716485
 Ga         0.0762229324        7.5532948786       15.9146197213
  N        -1.5484921176       10.3165876659        2.5454158568
 Ga        -1.5533299200        8.4930737261        3.2611457634
  N        -1.5165249228        8.4786116855        5.2443638939
 Ga        -1.4925441863       10.3487124354        5.8302391039
  N        -1.5256135173       10.3447448046        7.8267633026
 Ga        -1.5470294459        8.4893163042        8.4815334568
  N        -1.5423280242        8.4910851961       10.4734145226
 Ga        -1.5171647654       10.3475834653       11.1216160634
  N        -1.5000445948       10.3583415420       13.1118308019
 Ga        -1.5426637724        8.4890642113       13.6720406670
  N        -1.5141835585        8.4704175452       15.6290768291
 Ga        -1.6939429999       10.2435340402       16.5348869005
  N         6.5177677378        2.0949807594        2.5527392503
 Ga         6.5193625206        0.1169291665        2.9684303361
  N         6.5276595537        0.1394197228        5.1118477078
 Ga         6.5234871530        1.9512146982        5.8813282206
  N         6.5067143195        1.9771519773        7.8615633423
 Ga         6.5053316341        0.1221936628        8.4935621107
  N         6.5071097697        0.1255996435       10.4646878452
 Ga         6.5091556713        1.9647060498       11.1224361338
  N         6.5080389981        1.9469498778       13.1118204079
 Ga         6.5079054300        0.1278889502       13.9223211585
  N         6.5083416138        0.1271327347       16.1173755742
 Ga         6.5094368820        2.1714093541       16.5316371145
 Ga         6.5715606915        3.8816688093        1.4540498160
  N         5.0024982683        4.7068786604        2.5845403539
 Ga         4.9574895645        2.9151396557        3.3842215306
  N         4.8875537240        2.8973524554        5.2960546471
 Ga         4.8727910314        4.7925910087        5.8618992648
  N         4.8889534594        4.7695827182        7.8482387403
 Ga         4.9088308830        2.9169198340        8.5017541702
  N         4.9101536284        2.9188533532       10.4850100614
 Ga         4.8865764563        4.7798076194       11.1242154224
  N         4.8682716884        4.7878623103       13.1141553900
 Ga         4.9114764032        2.9179226653       13.6726630787
  N         4.8859703662        2.9013536407       15.6312427383
 Ga         5.0604993237        4.6749580300       16.5316931088
  N         6.5092620638        3.8465705746       17.6726060408
  N         3.2856627145        7.6728909136        2.5610084807
  N         3.2900894804        5.6937209241        5.0820726988
 Ga         3.2947527204        7.5261899208        5.8534416458
  N         3.2888546936        7.5422380535        7.8454484641
 Ga         3.2917715626        5.6988295614        8.5005861122
  N         3.2921808306        5.6975534176       10.4690100812
 Ga         3.2936032476        7.5381338470       11.1230811564
  N         3.2918800720        7.5177686555       13.1128249003
 Ga         3.2919646251        5.6987704694       13.9224866424
  N         3.2919656136        5.6989565893       16.1177499431
 Ga         3.2930694637        7.7473481433       16.5345189135
 Ga         3.3321483808        9.4516684711        1.4306336908
  N         1.7874180856       10.2898995374        2.5658405637
 Ga         1.6750682324        8.4825994761        3.3489005316
  N         1.6716907566        8.4780312710        5.2893980516
 Ga         1.6685170083       10.3564468368        5.8673561074
  N         1.6771480030       10.3413271488        7.8559050034
 Ga         1.6941486342        8.4875938081        8.4960714135
  N         1.6956079641        8.4888358931       10.4824350863
 Ga         1.6690449453       10.3487756702       11.1224246068
  N         1.6513076563       10.3584655203       13.1131672176
 Ga         1.6940809197        8.4889905893       13.6724453654
  N         1.6672587451        8.4703796314       15.6306635435
 Ga         1.8469104596       10.2443885359       16.5332290191
  N         3.2927281013        9.4172435671       17.6645877358
  N         9.7313605619        1.9877400516        2.6760238454
 Ga         9.7276051804        0.2336223891        3.3271340409
  N         9.7207887378        0.1273753271        5.3030206222
 Ga         9.7274773179        1.9865105925        5.9165853633
  N         9.7227856457        1.9839097883        7.8971283230
 Ga         9.7256891040        0.1180073382        8.4948995372
  N         9.7238430134        0.1158517352       10.4842994451
 Ga         9.7257584498        1.9845074633       11.0817519450
  N         9.7246377950        1.9841410713       13.0488990492
 Ga         9.7244205034        0.1140678541       13.6731321118
  N         9.7247089184        0.1477959834       15.6331684640
 Ga         9.7247682582        1.9846364261       15.9096594332
  N         8.0215947094        4.7103521969        2.5941109878
 Ga         8.2210708647        2.8634319889        3.3291163938
  N         8.1098473667        2.9137493118        5.3010121423
 Ga         8.1464979967        4.7839745044        5.8611617974
  N         8.1264160937        4.7738748549        7.8544948666
 Ga         8.1114240342        2.9202098098        8.4983410941
  N         8.1060252055        2.9186481018       10.4860991100
 Ga         8.1318480735        4.7804632374       11.1206593636
  N         8.1481574859        4.7883098744       13.1122895685
 Ga         8.1051790423        2.9187004057       13.6707668696
  N         8.1311885583        2.9014043656       15.6289408688
 Ga         7.9581372196        4.6749024831       16.5309724649
  N         6.5064060398        7.5546741459        2.6763033806
 Ga         6.5195502447        5.8404959335        3.3210997418
  N         6.5065083830        5.6781998408        5.2941969687
 Ga         6.5221952323        7.5664823961        5.8628962006
  N         6.5086736820        7.5554356511        7.8607132282
 Ga         6.5106755652        5.6953046851        8.4827951882
  N         6.5073110227        5.6865401500       10.4755002721
 Ga         6.5109992685        7.5569645721       11.0752860111
  N         6.5091057579        7.5550502067       13.0439418259
 Ga         6.5088337833        5.6864510971       13.6730591554
  N         6.5085291328        5.7148918967       15.6339032259
 Ga         6.5087316145        7.5534563834       15.9142821508
  N         4.7900732964       10.2893900684        2.5928664936
 Ga         5.0106444503        8.4241125060        3.3006008398
  N         4.8830763109        8.4899933721        5.2854600604
 Ga         4.9168562708       10.3533744906        5.8618752180
  N         4.9070601390       10.3446869014        7.8560677138
 Ga         4.8969239333        8.4849362919        8.4815945369
  N         4.8895974972        8.4877001476       10.4750787213
 Ga         4.9159766222       10.3475772937       11.1199980825
  N         4.9325742232       10.3585861165       13.1120100202
 Ga         4.8900434990        8.4891857232       13.6713880464
  N         4.9178742532        8.4703401768       15.6291015557
 Ga         4.7388031294       10.2442117830       16.5331119095
  O         0.1407050610        3.7791711884       -0.4269700017
  C        -0.9817683512        3.1673757784       -1.0877662423
  H        -1.1842444214        2.1482897502       -0.7191815586
  H        -1.9020961307        3.7629502676       -0.9757623473
  H        -0.7349812022        3.1081646201       -2.1575350847
 Ga         3.2761651112        5.7069794405        2.9169801548
  H         0.1144048478        7.5167130405        1.6863644619
  C         3.2815021720        1.9264033646        1.2564958420
  H         4.2237777674        1.8084831019        0.7025814586
  H         2.3429194257        1.8142131588        0.6972039343
     209
 i =        3, E =     -8487.5071334151
  N         0.0644335131        2.1172173163        2.5540504061
 Ga         0.0711715410        0.1399641930        2.9473590938
  N         0.0569612226        0.1385804715        5.1082967371
 Ga         0.0604390654        1.9494345618        5.8742306827
  N         0.0787278590        1.9772394283        7.8593031485
 Ga         0.0796199339        0.1234247615        8.4925732248
  N         0.0781062113        0.1261552165       10.4652315976
 Ga         0.0761959479        1.9653353585       11.1207083800
  N         0.0763880640        1.9470524381       13.1109122275
 Ga         0.0765283076        0.1273468794       13.9216661490
  N         0.0761881339        0.1270370588       16.1166055382
 Ga         0.0765198574        2.1707673297       16.5320838841
 Ga         0.0298951941        3.8487942717        1.3855031145
  N        -1.4132140548        4.7056153599        2.5600404904
 Ga        -1.6137893254        2.8734760486        3.3294738617
  N        -1.5293350570        2.9170192368        5.3080878604
 Ga        -1.5656716379        4.7825605663        5.8625543136
  N        -1.5383915598        4.7767360916        7.8539978518
 Ga        -1.5252857484        2.9197121933        8.4935431926
  N        -1.5208294277        2.9196389790       10.4830552753
 Ga        -1.5473638258        4.7797981159       11.1210036771
  N        -1.5637961552        4.7886270248       13.1120759428
 Ga        -1.5204164686        2.9189848000       13.6713957965
  N        -1.5457794300        2.9020898692       15.6305622274
 Ga        -1.3727795887        4.6759195742       16.5316584726
  N         0.0763330453        3.8462652774       17.6724562502
  N        -3.1328951532        7.6299942654        2.5175175880
 Ga        -3.1178030176        5.7108825891        2.9188294053
  N        -3.1390211162        5.6860925592        5.0889236259
 Ga        -3.1433197423        7.5295701781        5.8167424779
  N        -3.1361254780        7.5463019157        7.8258678789
 Ga        -3.1391481560        5.7056567664        8.4915982486
  N        -3.1394191189        5.7004466355       10.4652896888
 Ga        -3.1411571932        7.5401756001       11.1172708233
  N        -3.1400566537        7.5189781468       13.1088256302
 Ga        -3.1401550634        5.6995443133       13.9201422904
  N        -3.1399373335        5.6991521397       16.1163616071
 Ga        -3.1392714073        7.7479539799       16.5360643761
 Ga        -3.1862563765        9.1006736430        0.7758938769
  N        -4.7232327998       10.3175174822        2.5393530193
 Ga        -4.8028673254        8.4559340937        3.2187371947