 DBCSR| Multiplication driver                                               BLAS
 DBCSR| Multrec recursion limit                                              512
 DBCSR| Multiplication stack size                                           1000
 DBCSR| Maximum elements for images                                    UNLIMITED
 DBCSR| Multiplicative factor virtual images                                   1
 DBCSR| Multiplication size stacks                                             3
 DBCSR| Number of 3D layers                                               SINGLE
 DBCSR| Use MPI memory allocation                                              T
 DBCSR| Use RMA algorithm                                                      F
 DBCSR| Use Communication thread                                               T
 DBCSR| Communication thread load                                             87


  **** **** ******  **  PROGRAM STARTED AT               2019-05-23 12:29:25.004
 ***** ** ***  *** **   PROGRAM STARTED ON        blg9114.int.ets1.calculquebec.
 **    ****   ******    PROGRAM STARTED BY                                   rzk
 ***** **    ** ** **   PROGRAM PROCESS ID                                178554
  **** **  *******  **  PROGRAM STARTED IN /lustre03/project/6004141/rzk/GaN-car
                                           bene/02-Water/01-O-ads

 CP2K| version string:                    CP2K version 7.0 (Development Version)
 CP2K| source code revision number:                                    svn:18619
 CP2K| cp2kflags: libint fftw3 libxc parallel mpi3 scalapack mkl                
 CP2K| is freely available from                            https://www.cp2k.org/
 CP2K| Program compiled at                          Sun Apr  7 00:48:11 EDT 2019
 CP2K| Program compiled on                      beluga2.int.ets1.calculquebec.ca
 CP2K| Program compiled for                    Beluga-Linux-x86-64-intel-openmpi
 CP2K| Data directory path    /home/rzk/projects/def-rzk/group/cp2k/cp2k-mcgill/
 CP2K| Input file name                                                 start.inp
 
 GLOBAL| Force Environment number                                              1
 GLOBAL| Basis set file name                                        BASIS_MOLOPT
 GLOBAL| Potential file name                                      GTH_POTENTIALS
 GLOBAL| MM Potential file name                                     MM_POTENTIAL
 GLOBAL| Coordinate file name                                      __STD_INPUT__
 GLOBAL| Method name                                                        CP2K
 GLOBAL| Project name                                                       TEST
 GLOBAL| Preferred FFT library                                             FFTW3
 GLOBAL| Preferred diagonalization lib.                                       SL
 GLOBAL| Run type                                                        GEO_OPT
 GLOBAL| All-to-all communication in single precision                          F
 GLOBAL| FFTs using library dependent lengths                                  F
 GLOBAL| Global print level                                               MEDIUM
 GLOBAL| MPI I/O enabled                                                       T
 GLOBAL| Total number of message passing processes                            80
 GLOBAL| Number of threads for this process                                    1
 GLOBAL| This output is from process                                           0
 GLOBAL| CPU model name :  Intel(R) Xeon(R) Gold 6148 CPU @ 2.40GHz

 MEMORY| system memory details [Kb]
 MEMORY|                        rank 0           min           max       average
 MEMORY| MemTotal            196614300     196614300     196614300     196614300
 MEMORY| MemFree             144717280     109330260     144717280     127058263
 MEMORY| Buffers                     0             0             0             0
 MEMORY| Cached               30859820      30859820      62568104      46712551
 MEMORY| Slab                  6752004       6752004       9165616       7958790
 MEMORY| SReclaimable           576488        367168        576488        471840
 MEMORY| MemLikelyFree       176153588     172265596     176153588     174242654


 *** Fundamental physical constants (SI units) ***

 *** Literature: B. J. Mohr and B. N. Taylor,
 ***             CODATA recommended values of the fundamental physical
 ***             constants: 2006, Web Version 5.1
 ***             http://physics.nist.gov/constants

 Speed of light in vacuum [m/s]                             2.99792458000000E+08
 Magnetic constant or permeability of vacuum [N/A**2]       1.25663706143592E-06
 Electric constant or permittivity of vacuum [F/m]          8.85418781762039E-12
 Planck constant (h) [J*s]                                  6.62606896000000E-34
 Planck constant (h-bar) [J*s]                              1.05457162825177E-34
 Elementary charge [C]                                      1.60217648700000E-19
 Electron mass [kg]                                         9.10938215000000E-31
 Electron g factor [ ]                                     -2.00231930436220E+00
 Proton mass [kg]                                           1.67262163700000E-27
 Fine-structure constant                                    7.29735253760000E-03
 Rydberg constant [1/m]                                     1.09737315685270E+07
 Avogadro constant [1/mol]                                  6.02214179000000E+23
 Boltzmann constant [J/K]                                   1.38065040000000E-23
 Atomic mass unit [kg]                                      1.66053878200000E-27
 Bohr radius [m]                                            5.29177208590000E-11

 *** Conversion factors ***

 [u] -> [a.u.]                                              1.82288848426455E+03
 [Angstrom] -> [Bohr] = [a.u.]                              1.88972613288564E+00
 [a.u.] = [Bohr] -> [Angstrom]                              5.29177208590000E-01
 [a.u.] -> [s]                                              2.41888432650478E-17
 [a.u.] -> [fs]                                             2.41888432650478E-02
 [a.u.] -> [J]                                              4.35974393937059E-18
 [a.u.] -> [N]                                              8.23872205491840E-08
 [a.u.] -> [K]                                              3.15774647902944E+05
 [a.u.] -> [kJ/mol]                                         2.62549961709828E+03
 [a.u.] -> [kcal/mol]                                       6.27509468713739E+02
 [a.u.] -> [Pa]                                             2.94210107994716E+13
 [a.u.] -> [bar]                                            2.94210107994716E+08
 [a.u.] -> [atm]                                            2.90362800883016E+08
 [a.u.] -> [eV]                                             2.72113838565563E+01
 [a.u.] -> [Hz]                                             6.57968392072181E+15
 [a.u.] -> [1/cm] (wave numbers)                            2.19474631370540E+05
 [a.u./Bohr**2] -> [1/cm]                                   5.14048714338585E+03
 

 CELL_TOP| Volume [angstrom^3]:                                         2519.385
 CELL_TOP| Vector a [angstrom     9.737     0.000     0.000    |a| =       9.737
 CELL_TOP| Vector b [angstrom    -4.859     8.416     0.000    |b| =       9.718
 CELL_TOP| Vector c [angstrom     0.000     0.000    30.744    |c| =      30.744
 CELL_TOP| Angle (b,c), alpha [degree]:                                   90.000
 CELL_TOP| Angle (a,c), beta  [degree]:                                   90.000
 CELL_TOP| Angle (a,b), gamma [degree]:                                  120.000
 CELL_TOP| Numerically orthorhombic:                                          NO
 
 GENERATE|  Preliminary Number of Bonds generated:                             0
 GENERATE|  Achieved consistency in connectivity generation.

 CELL| Volume [angstrom^3]:                                             2519.385
 CELL| Vector a [angstrom]:       9.737     0.000     0.000    |a| =       9.737
 CELL| Vector b [angstrom]:      -4.859     8.416     0.000    |b| =       9.718
 CELL| Vector c [angstrom]:       0.000     0.000    30.744    |c| =      30.744
 CELL| Angle (b,c), alpha [degree]:                                       90.000
 CELL| Angle (a,c), beta  [degree]:                                       90.000
 CELL| Angle (a,b), gamma [degree]:                                      120.000
 CELL| Numerically orthorhombic:                                              NO

 CELL_REF| Volume [angstrom^3]:                                         2432.344
 CELL_REF| Vector a [angstrom     9.558     0.000     0.000    |a| =       9.558
 CELL_REF| Vector b [angstrom    -4.779     8.277     0.000    |b| =       9.558
 CELL_REF| Vector c [angstrom     0.000     0.000    30.744    |c| =      30.744
 CELL_REF| Angle (b,c), alpha [degree]:                                   90.000
 CELL_REF| Angle (a,c), beta  [degree]:                                   90.000
 CELL_REF| Angle (a,b), gamma [degree]:                                  120.000
 CELL_REF| Numerically orthorhombic:                                          NO

 *******************************************************************************
 *******************************************************************************
 **                                                                           **
 **     #####                         ##              ##                      **
 **    ##   ##            ##          ##              ##                      **
 **   ##     ##                       ##            ######                    **
 **   ##     ##  ##   ##  ##   #####  ##  ##   ####   ##    #####    #####    **
 **   ##     ##  ##   ##  ##  ##      ## ##   ##      ##   ##   ##  ##   ##   **
 **   ##  ## ##  ##   ##  ##  ##      ####     ###    ##   ######   ######    **
 **    ##  ###   ##   ##  ##  ##      ## ##      ##   ##   ##       ##        **
 **     #######   #####   ##   #####  ##  ##  ####    ##    #####   ##        **
 **           ##                                                    ##        **
 **                                                                           **
 **                                                ... make the atoms dance   **
 **                                                                           **
 **            Copyright (C) by CP2K developers group (2000 - 2018)           **
 **                                                                           **
 *******************************************************************************

 DFT| Spin restricted Kohn-Sham (RKS) calculation                            RKS
 DFT| Multiplicity                                                             1
 DFT| Number of spin states                                                    1
 DFT| Charge                                                                   0
 DFT| Self-interaction correction (SIC)                                       NO
 DFT| Cutoffs: density                                              1.000000E-10
 DFT|          gradient                                             1.000000E-10
 DFT|          tau                                                  1.000000E-10
 DFT|          cutoff_smoothing_range                               0.000000E+00
 DFT| XC density smoothing                                                  NONE
 DFT| XC derivatives                                                          PW
 FUNCTIONAL| ROUTINE=NEW
 FUNCTIONAL| PBE:
 FUNCTIONAL| J.P.Perdew, K.Burke, M.Ernzerhof, Phys. Rev. Letter, vol. 77, n 18,
 FUNCTIONAL|  pp. 3865-3868, (1996){spin unpolarized}                           
 vdW POTENTIAL|                                                   Pair Potential
 vdW POTENTIAL|          DFT-D3 (Version 3.1)
 vdW POTENTIAL|          Potential Form: S. Grimme et al, JCP 132: 154104 (2010)
 vdW POTENTIAL|          Zero Damping
 vdW POTENTIAL|          Cutoff Radius [Bohr]:                             18.90
 vdW POTENTIAL|          s6 Scaling Factor:                               1.0000
 vdW POTENTIAL|          sr6 Scaling Factor:                              1.2170
 vdW POTENTIAL|          s8 Scaling Factor:                               0.7220
 vdW POTENTIAL|          Cutoff for CN calculation:                   0.1000E-05

 QS| Method:                                                                 GPW
 QS| Density plane wave grid type                        NON-SPHERICAL FULLSPACE
 QS| Number of grid levels:                                                    5
 QS| Density cutoff [a.u.]:                                                600.0
 QS| Multi grid cutoff [a.u.]: 1) grid level                               600.0
 QS|                           2) grid level                               200.0
 QS|                           3) grid level                                66.7
 QS|                           4) grid level                                22.2
 QS|                           5) grid level                                 7.4
 QS| Grid level progression factor:                                          3.0
 QS| Relative density cutoff [a.u.]:                                        20.0
 QS| Consistent realspace mapping and integration 
 QS| Interaction thresholds: eps_pgf_orb:                                1.0E-07
 QS|                         eps_filter_matrix:                          0.0E+00
 QS|                         eps_core_charge:                            1.0E-16
 QS|                         eps_rho_gspace:                             1.0E-14
 QS|                         eps_rho_rspace:                             1.0E-14
 QS|                         eps_gvg_rspace:                             1.0E-07
 QS|                         eps_ppl:                                    1.0E-02
 QS|                         eps_ppnl:                                   1.0E-09


 ATOMIC KIND INFORMATION

  1. Atomic kind: Ga                                    Number of atoms:      72

     Orbital Basis Set                                    DZVP-MOLOPT-SR-GTH-q13

       Number of orbital shell sets:                                           1
       Number of orbital shells:                                               7
       Number of primitive Cartesian functions:                                6
       Number of Cartesian basis functions:                                   30
       Number of spherical basis functions:                                   25
       Norm type:                                                              2

       Normalised Cartesian orbitals:

                        Set   Shell   Orbital            Exponent    Coefficient

                          1       1    2s                7.066654       0.013136
                                                         3.428369      -0.094392
                                                         1.430064       0.265435
                                                         0.571611       0.056465
                                                         0.232197      -0.192187
                                                         0.076562      -0.044987

                          1       2    3s                7.066654      -0.098564
                                                         3.428369       0.010390
                                                         1.430064       0.351249
                                                         0.571611       0.182615
                                                         0.232197      -0.425358
                                                         0.076562       0.190349

                          1       3    3px               7.066654       0.002364
                                                         3.428369       0.019222
                                                         1.430064       0.250132
                                                         0.571611      -0.058486
                                                         0.232197      -0.159451
                                                         0.076562      -0.020696
                          1       3    3py               7.066654       0.002364
                                                         3.428369       0.019222
                                                         1.430064       0.250132
                                                         0.571611      -0.058486
                                                         0.232197      -0.159451
                                                         0.076562      -0.020696
                          1       3    3pz               7.066654       0.002364
                                                         3.428369       0.019222
                                                         1.430064       0.250132
                                                         0.571611      -0.058486
                                                         0.232197      -0.159451
                                                         0.076562      -0.020696

                          1       4    4px               7.066654       0.492448
                                                         3.428369      -0.614736
                                                         1.430064      -0.191654
                                                         0.571611       0.037801
                                                         0.232197       0.302315
                                                         0.076562      -0.071336
                          1       4    4py               7.066654       0.492448
                                                         3.428369      -0.614736
                                                         1.430064      -0.191654
                                                         0.571611       0.037801
                                                         0.232197       0.302315
                                                         0.076562      -0.071336
                          1       4    4pz               7.066654       0.492448
                                                         3.428369      -0.614736
                                                         1.430064      -0.191654
                                                         0.571611       0.037801
                                                         0.232197       0.302315
                                                         0.076562      -0.071336

                          1       5    4dx2              7.066654     -15.264855
                                                         3.428369      -5.345726
                                                         1.430064      -1.022732
                                                         0.571611      -0.123148
                                                         0.232197      -0.006983
                                                         0.076562      -0.000022
                          1       5    4dxy              7.066654     -26.439504
                                                         3.428369      -9.259069
                                                         1.430064      -1.771423
                                                         0.571611      -0.213299
                                                         0.232197      -0.012094
                                                         0.076562      -0.000037
                          1       5    4dxz              7.066654     -26.439504
                                                         3.428369      -9.259069
                                                         1.430064      -1.771423
                                                         0.571611      -0.213299
                                                         0.232197      -0.012094
                                                         0.076562      -0.000037
                          1       5    4dy2              7.066654     -15.264855
                                                         3.428369      -5.345726
                                                         1.430064      -1.022732
                                                         0.571611      -0.123148
                                                         0.232197      -0.006983
                                                         0.076562      -0.000022
                          1       5    4dyz              7.066654     -26.439504
                                                         3.428369      -9.259069
                                                         1.430064      -1.771423
                                                         0.571611      -0.213299
                                                         0.232197      -0.012094
                                                         0.076562      -0.000037
                          1       5    4dz2              7.066654     -15.264855
                                                         3.428369      -5.345726
                                                         1.430064      -1.022732
                                                         0.571611      -0.123148
                                                         0.232197      -0.006983
                                                         0.076562      -0.000022

                          1       6    5dx2              7.066654      -5.739265
                                                         3.428369      -2.129289
                                                         1.430064      -0.700423
                                                         0.571611       0.161606
                                                         0.232197       0.043513
                                                         0.076562       0.011205
                          1       6    5dxy              7.066654      -9.940698
                                                         3.428369      -3.688037
                                                         1.430064      -1.213168
                                                         0.571611       0.279909
                                                         0.232197       0.075368
                                                         0.076562       0.019407
                          1       6    5dxz              7.066654      -9.940698
                                                         3.428369      -3.688037
                                                         1.430064      -1.213168
                                                         0.571611       0.279909
                                                         0.232197       0.075368
                                                         0.076562       0.019407
                          1       6    5dy2              7.066654      -5.739265
                                                         3.428369      -2.129289
                                                         1.430064      -0.700423
                                                         0.571611       0.161606
                                                         0.232197       0.043513
                                                         0.076562       0.011205
                          1       6    5dyz              7.066654      -9.940698
                                                         3.428369      -3.688037
                                                         1.430064      -1.213168
                                                         0.571611       0.279909
                                                         0.232197       0.075368
                                                         0.076562       0.019407
                          1       6    5dz2              7.066654      -5.739265
                                                         3.428369      -2.129289
                                                         1.430064      -0.700423
                                                         0.571611       0.161606
                                                         0.232197       0.043513
                                                         0.076562       0.011205

                          1       7    5fx3              7.066654       0.705879
                                                         3.428369      -0.273976
                                                         1.430064       0.113667
                                                         0.571611       0.132480
                                                         0.232197       0.012437
                                                         0.076562       0.003241
                          1       7    5fx2y             7.066654       1.578393
                                                         3.428369      -0.612629
                                                         1.430064       0.254167
                                                         0.571611       0.296234
                                                         0.232197       0.027811
                                                         0.076562       0.007246
                          1       7    5fx2z             7.066654       1.578393
                                                         3.428369      -0.612629
                                                         1.430064       0.254167
                                                         0.571611       0.296234
                                                         0.232197       0.027811
                                                         0.076562       0.007246
                          1       7    5fxy2             7.066654       1.578393
                                                         3.428369      -0.612629
                                                         1.430064       0.254167
                                                         0.571611       0.296234
                                                         0.232197       0.027811
                                                         0.076562       0.007246
                          1       7    5fxyz             7.066654       2.733856
                                                         3.428369      -1.061105
                                                         1.430064       0.440230
                                                         0.571611       0.513092
                                                         0.232197       0.048170
                                                         0.076562       0.012551
                          1       7    5fxz2             7.066654       1.578393
                                                         3.428369      -0.612629
                                                         1.430064       0.254167
                                                         0.571611       0.296234
                                                         0.232197       0.027811
                                                         0.076562       0.007246
                          1       7    5fy3              7.066654       0.705879
                                                         3.428369      -0.273976
                                                         1.430064       0.113667
                                                         0.571611       0.132480
                                                         0.232197       0.012437
                                                         0.076562       0.003241
                          1       7    5fy2z             7.066654       1.578393
                                                         3.428369      -0.612629
                                                         1.430064       0.254167
                                                         0.571611       0.296234
                                                         0.232197       0.027811
                                                         0.076562       0.007246
                          1       7    5fyz2             7.066654       1.578393
                                                         3.428369      -0.612629
                                                         1.430064       0.254167
                                                         0.571611       0.296234
                                                         0.232197       0.027811
                                                         0.076562       0.007246
                          1       7    5fz3              7.066654       0.705879
                                                         3.428369      -0.273976
                                                         1.430064       0.113667
                                                         0.571611       0.132480
                                                         0.232197       0.012437
                                                         0.076562       0.003241

     GTH Potential information for                                   GTH-PBE-q13

       Description:                       Goedecker-Teter-Hutter pseudopotential
                                           Goedecker et al., PRB 54, 1703 (1996)
                                          Hartwigsen et al., PRB 58, 3641 (1998)
                                                      Krack, TCA 114, 145 (2005)

       Gaussian exponent of the core charge distribution:               2.082466
       Electronic configuration (s p d ...):                           2   1  10

       Parameters of the local part of the GTH pseudopotential:

                          rloc        C1          C2          C3          C4
                        0.490000

       Parameters of the non-local part of the GTH pseudopotential:

                   l      r(l)      h(i,j,l)

                   0    0.416777   10.475690   -4.921768    0.870706
                                   -4.921768    7.770178   -2.248152
                                    0.870706   -2.248152    1.784415
                   1    0.569627    1.777985    0.195860
                                    0.195860   -0.231744
                   2    0.238126  -16.248680

  2. Atomic kind: N                                     Number of atoms:      72

     Orbital Basis Set                                     DZVP-MOLOPT-SR-GTH-q5

       Number of orbital shell sets:                                           1
       Number of orbital shells:                                               5
       Number of primitive Cartesian functions:                                5
       Number of Cartesian basis functions:                                   14
       Number of spherical basis functions:                                   13
       Norm type:                                                              2

       Normalised Cartesian orbitals:

                        Set   Shell   Orbital            Exponent    Coefficient

                          1       1    2s                7.341988       0.360561
                                                         2.542637       0.139177
                                                         0.888575      -0.289383
                                                         0.333802      -0.182244
                                                         0.112012      -0.019197

                          1       2    3s                7.341988       0.282000
                                                         2.542637       0.177875
                                                         0.888575      -0.278381
                                                         0.333802       0.008577
                                                         0.112012       0.154176

                          1       3    3px               7.341988      -1.188719
                                                         2.542637      -0.973969
                                                         0.888575      -0.501079
                                                         0.333802      -0.144894
                                                         0.112012      -0.013986
                          1       3    3py               7.341988      -1.188719
                                                         2.542637      -0.973969
                                                         0.888575      -0.501079
                                                         0.333802      -0.144894
                                                         0.112012      -0.013986
                          1       3    3pz               7.341988      -1.188719
                                                         2.542637      -0.973969
                                                         0.888575      -0.501079
                                                         0.333802      -0.144894
                                                         0.112012      -0.013986

                          1       4    4px               7.341988      -0.094798
                                                         2.542637       0.050069
                                                         0.888575      -0.114797
                                                         0.333802       0.144793
                                                         0.112012       0.066710
                          1       4    4py               7.341988      -0.094798
                                                         2.542637       0.050069
                                                         0.888575      -0.114797
                                                         0.333802       0.144793
                                                         0.112012       0.066710
                          1       4    4pz               7.341988      -0.094798
                                                         2.542637       0.050069
                                                         0.888575      -0.114797
                                                         0.333802       0.144793
                                                         0.112012       0.066710

                          1       5    4dx2              7.341988       1.354688
                                                         2.542637       0.690378
                                                         0.888575       0.855359
                                                         0.333802       0.091746
                                                         0.112012       0.001253
                          1       5    4dxy              7.341988       2.346389
                                                         2.542637       1.195770
                                                         0.888575       1.481524
                                                         0.333802       0.158910
                                                         0.112012       0.002169
                          1       5    4dxz              7.341988       2.346389
                                                         2.542637       1.195770
                                                         0.888575       1.481524
                                                         0.333802       0.158910
                                                         0.112012       0.002169
                          1       5    4dy2              7.341988       1.354688
                                                         2.542637       0.690378
                                                         0.888575       0.855359
                                                         0.333802       0.091746
                                                         0.112012       0.001253
                          1       5    4dyz              7.341988       2.346389
                                                         2.542637       1.195770
                                                         0.888575       1.481524
                                                         0.333802       0.158910
                                                         0.112012       0.002169
                          1       5    4dz2              7.341988       1.354688
                                                         2.542637       0.690378
                                                         0.888575       0.855359
                                                         0.333802       0.091746
                                                         0.112012       0.001253

     GTH Potential information for                                    GTH-PBE-q5

       Description:                       Goedecker-Teter-Hutter pseudopotential
                                           Goedecker et al., PRB 54, 1703 (1996)
                                          Hartwigsen et al., PRB 58, 3641 (1998)
                                                      Krack, TCA 114, 145 (2005)

       Gaussian exponent of the core charge distribution:               6.208322
       Electronic configuration (s p d ...):                               2   3

       Parameters of the local part of the GTH pseudopotential:

                          rloc        C1          C2          C3          C4
                        0.283791  -12.415226    1.868096

       Parameters of the non-local part of the GTH pseudopotential:

                   l      r(l)      h(i,j,l)

                   0    0.255405   13.630263
                   1    0.245495

  3. Atomic kind: O                                     Number of atoms:       1

     Orbital Basis Set                                     DZVP-MOLOPT-SR-GTH-q6

       Number of orbital shell sets:                                           1
       Number of orbital shells:                                               5
       Number of primitive Cartesian functions:                                5
       Number of Cartesian basis functions:                                   14
       Number of spherical basis functions:                                   13
       Norm type:                                                              2

       Normalised Cartesian orbitals:

                        Set   Shell   Orbital            Exponent    Coefficient

                          1       1    2s               10.389228       0.396646
                                                         3.849621       0.208811
                                                         1.388401      -0.301641
                                                         0.496955      -0.274061
                                                         0.162492      -0.033677

                          1       2    3s               10.389228       0.303673
                                                         3.849621       0.240943
                                                         1.388401      -0.313066
                                                         0.496955      -0.043055
                                                         0.162492       0.213991

                          1       3    3px              10.389228      -1.530415
                                                         3.849621      -1.371928
                                                         1.388401      -0.761951
                                                         0.496955      -0.253695
                                                         0.162492      -0.035541
                          1       3    3py              10.389228      -1.530415
                                                         3.849621      -1.371928
                                                         1.388401      -0.761951
                                                         0.496955      -0.253695
                                                         0.162492      -0.035541
                          1       3    3pz              10.389228      -1.530415
                                                         3.849621      -1.371928
                                                         1.388401      -0.761951
                                                         0.496955      -0.253695
                                                         0.162492      -0.035541

                          1       4    4px              10.389228      -0.565392
                                                         3.849621      -0.038231
                                                         1.388401      -0.382373
                                                         0.496955       0.179070
                                                         0.162492       0.122714
                          1       4    4py              10.389228      -0.565392
                                                         3.849621      -0.038231
                                                         1.388401      -0.382373
                                                         0.496955       0.179070
                                                         0.162492       0.122714
                          1       4    4pz              10.389228      -0.565392
                                                         3.849621      -0.038231
                                                         1.388401      -0.382373
                                                         0.496955       0.179070
                                                         0.162492       0.122714

                          1       5    4dx2             10.389228       1.867377
                                                         3.849621       0.670994
                                                         1.388401       1.353441
                                                         0.496955       0.273538
                                                         0.162492       0.006620
                          1       5    4dxy             10.389228       3.234392
                                                         3.849621       1.162195
                                                         1.388401       2.344229
                                                         0.496955       0.473781
                                                         0.162492       0.011466
                          1       5    4dxz             10.389228       3.234392
                                                         3.849621       1.162195
                                                         1.388401       2.344229
                                                         0.496955       0.473781
                                                         0.162492       0.011466
                          1       5    4dy2             10.389228       1.867377
                                                         3.849621       0.670994
                                                         1.388401       1.353441
                                                         0.496955       0.273538
                                                         0.162492       0.006620
                          1       5    4dyz             10.389228       3.234392
                                                         3.849621       1.162195
                                                         1.388401       2.344229
                                                         0.496955       0.473781
                                                         0.162492       0.011466
                          1       5    4dz2             10.389228       1.867377
                                                         3.849621       0.670994
                                                         1.388401       1.353441
                                                         0.496955       0.273538
                                                         0.162492       0.006620

     GTH Potential information for                                    GTH-PBE-q6

       Description:                       Goedecker-Teter-Hutter pseudopotential
                                           Goedecker et al., PRB 54, 1703 (1996)
                                          Hartwigsen et al., PRB 58, 3641 (1998)
                                                      Krack, TCA 114, 145 (2005)

       Gaussian exponent of the core charge distribution:               8.360253
       Electronic configuration (s p d ...):                               2   4

       Parameters of the local part of the GTH pseudopotential:

                          rloc        C1          C2          C3          C4
                        0.244554  -16.667215    2.487311

       Parameters of the non-local part of the GTH pseudopotential:

                   l      r(l)      h(i,j,l)

                   0    0.220956   18.337458
                   1    0.211332

  4. Atomic kind: H                                     Number of atoms:       2

     Orbital Basis Set                                     DZVP-MOLOPT-SR-GTH-q1

       Number of orbital shell sets:                                           1
       Number of orbital shells:                                               3
       Number of primitive Cartesian functions:                                5
       Number of Cartesian basis functions:                                    5
       Number of spherical basis functions:                                    5
       Norm type:                                                              2

       Normalised Cartesian orbitals:

                        Set   Shell   Orbital            Exponent    Coefficient

                          1       1    2s               10.068468      -0.133023
                                                         2.680223      -0.177618
                                                         0.791502      -0.258419
                                                         0.239116      -0.107525
                                                         0.082193      -0.014019

                          1       2    3s               10.068468       0.344673
                                                         2.680223       1.819821
                                                         0.791502      -0.999069
                                                         0.239116       0.017430
                                                         0.082193       0.082660

                          1       3    3px              10.068468       0.155326
                                                         2.680223       0.367157
                                                         0.791502       0.311480
                                                         0.239116       0.080105
                                                         0.082193       0.033440
                          1       3    3py              10.068468       0.155326
                                                         2.680223       0.367157
                                                         0.791502       0.311480
                                                         0.239116       0.080105
                                                         0.082193       0.033440
                          1       3    3pz              10.068468       0.155326
                                                         2.680223       0.367157
                                                         0.791502       0.311480
                                                         0.239116       0.080105
                                                         0.082193       0.033440

     GTH Potential information for                                    GTH-PBE-q1

       Description:                       Goedecker-Teter-Hutter pseudopotential
                                           Goedecker et al., PRB 54, 1703 (1996)
                                          Hartwigsen et al., PRB 58, 3641 (1998)
                                                      Krack, TCA 114, 145 (2005)

       Gaussian exponent of the core charge distribution:              12.500000
       Electronic configuration (s p d ...):                                   1

       Parameters of the local part of the GTH pseudopotential:

                          rloc        C1          C2          C3          C4
                        0.200000   -4.178900    0.724463


 MOLECULE KIND INFORMATION


 All atoms are their own molecule, skipping detailed information


 TOTAL NUMBERS AND MAXIMUM NUMBERS

  Total number of            - Atomic kinds:                                   4
                             - Atoms:                                        147
                             - Shell sets:                                   147
                             - Shells:                                       875
                             - Primitive Cartesian functions:                807
                             - Cartesian basis functions:                   3192
                             - Spherical basis functions:                   2759

  Maximum angular momentum of- Orbital basis functions:                        3
                             - Local part of the GTH pseudopotential:          2
                             - Non-local part of the GTH pseudopotential:      4


 MODULE QUICKSTEP:  ATOMIC COORDINATES IN angstrom

  Atom  Kind  Element       X           Y           Z          Z(eff)       Mass

       1     1 Ga  31    0.000360   -0.002487   -0.587894     13.00      69.7230
       2     2 N    7    0.003347    1.871515    0.566332      5.00      14.0067
       3     1 Ga  31    0.002818    1.839149    2.596260     13.00      69.7230
       4     2 N    7   -0.000026   -0.003698    3.229868      5.00      14.0067
       5     1 Ga  31    0.000554   -0.003207    5.220727     13.00      69.7230
       6     2 N    7    0.003200    1.871609    5.807480      5.00      14.0067
       7     1 Ga  31    0.002713    1.870134    7.805998     13.00      69.7230
       8     2 N    7   -0.000031   -0.003041    8.408967      5.00      14.0067
       9     1 Ga  31   -0.000186   -0.000964   10.406371     13.00      69.7230
      10     2 N    7    0.002660    1.871331   11.010597      5.00      14.0067
      11     1 Ga  31    0.002162    1.877771   13.003938     13.00      69.7230
      12     2 N    7   -0.001053    0.008021   13.608321      5.00      14.0067
      13     1 Ga  31   -0.003586    0.017478   15.611338     13.00      69.7230
      14     2 N    7    0.001984    1.883587   16.265172      5.00      14.0067
      15     1 Ga  31    0.007350    1.895829   18.386242     13.00      69.7230
      16     2 N    7    0.003201    0.000926   18.659710      5.00      14.0067
      17     1 Ga  31   -1.618091    2.802783    0.280660     13.00      69.7230
      18     2 N    7   -1.621656    4.671868    0.566100      5.00      14.0067
      19     1 Ga  31   -1.592904    4.687638    2.595742     13.00      69.7230
      20     2 N    7   -1.619448    2.802043    3.187948      5.00      14.0067
      21     1 Ga  31   -1.618937    2.802725    5.198711     13.00      69.7230
      22     2 N    7   -1.619258    4.672840    5.807515      5.00      14.0067
      23     1 Ga  31   -1.618485    4.673120    7.806158     13.00      69.7230
      24     2 N    7   -1.619979    2.802404    8.410675      5.00      14.0067
      25     1 Ga  31   -1.619583    2.803819   10.405985     13.00      69.7230
      26     2 N    7   -1.612939    4.674395   11.013700      5.00      14.0067
      27     1 Ga  31   -1.608417    4.673976   13.008992     13.00      69.7230
      28     2 N    7   -1.617628    2.805347   13.623149      5.00      14.0067
      29     1 Ga  31   -1.619239    2.804736   15.631565     13.00      69.7230
      30     2 N    7   -1.621860    4.682361   16.214071      5.00      14.0067
      31     1 Ga  31   -1.616308    4.670930   18.295916     13.00      69.7230
      32     2 N    7   -1.622959    2.811046   18.747260      5.00      14.0067
      33     1 Ga  31   -3.238991    5.609007    0.280185     13.00      69.7230
      34     2 N    7   -3.233108    7.478336    0.566128      5.00      14.0067
      35     1 Ga  31   -3.261648    7.493168    2.595995     13.00      69.7230
      36     2 N    7   -3.239588    5.607693    3.188508      5.00      14.0067
      37     1 Ga  31   -3.239269    5.608423    5.199334     13.00      69.7230
      38     2 N    7   -3.233490    7.477896    5.808811      5.00      14.0067
      39     1 Ga  31   -3.234753    7.477734    7.807924     13.00      69.7230
      40     2 N    7   -3.238893    5.607358    8.415191      5.00      14.0067
      41     1 Ga  31   -3.238436    5.608703   10.412584     13.00      69.7230
      42     2 N    7   -3.237007    7.482657   11.012975      5.00      14.0067
      43     1 Ga  31   -3.236686    7.486776   13.008515     13.00      69.7230
      44     2 N    7   -3.236174    5.607466   13.589808      5.00      14.0067
      45     1 Ga  31   -3.236242    5.609858   15.582405     13.00      69.7230
      46     2 N    7   -3.243494    7.481934   16.155652      5.00      14.0067
      47     1 Ga  31   -3.251582    7.489763   18.205733     13.00      69.7230
      48     2 N    7   -3.251198    5.612851   18.596616      5.00      14.0067
      49     1 Ga  31    3.246046   -0.003955    0.280782     13.00      69.7230
      50     2 N    7    3.245382    1.867233    0.565225      5.00      14.0067
      51     1 Ga  31    3.272073    1.881816    2.598031     13.00      69.7230
      52     2 N    7    3.245183   -0.003573    3.187981      5.00      14.0067
      53     1 Ga  31    3.245629   -0.003058    5.198664     13.00      69.7230
      54     2 N    7    3.246202    1.867022    5.807241      5.00      14.0067
      55     1 Ga  31    3.246955    1.866736    7.806095     13.00      69.7230
      56     2 N    7    3.246186   -0.003450    8.412543      5.00      14.0067
      57     1 Ga  31    3.246132   -0.001817   10.408957     13.00      69.7230
      58     2 N    7    3.246422    1.869779   11.014616      5.00      14.0067
      59     1 Ga  31    3.241602    1.869001   13.011485     13.00      69.7230
      60     2 N    7    3.246402   -0.001066   13.623593      5.00      14.0067
      61     1 Ga  31    3.254814    0.000043   15.627316     13.00      69.7230
      62     2 N    7    3.230138    1.881168   16.202750      5.00      14.0067
      63     1 Ga  31    3.233541    1.885488   18.270085     13.00      69.7230
      64     2 N    7    3.237905   -0.007852   18.575037      5.00      14.0067
      65     1 Ga  31    1.624786    2.803278    0.280888     13.00      69.7230
      66     2 N    7    1.633452    4.672437    0.566286      5.00      14.0067
      67     1 Ga  31    1.604475    4.687678    2.595848     13.00      69.7230
      68     2 N    7    1.625708    2.801979    3.188146      5.00      14.0067
      69     1 Ga  31    1.626189    2.802679    5.198983     13.00      69.7230
      70     2 N    7    1.631984    4.672886    5.807609      5.00      14.0067
      71     1 Ga  31    1.630445    4.673166    7.806376     13.00      69.7230
      72     2 N    7    1.626135    2.802315    8.410521      5.00      14.0067
      73     1 Ga  31    1.625762    2.803807   10.405879     13.00      69.7230
      74     2 N    7    1.624428    4.674608   11.012947      5.00      14.0067
      75     1 Ga  31    1.617732    4.674666   13.008104     13.00      69.7230
      76     2 N    7    1.621543    2.806078   13.620734      5.00      14.0067
      77     1 Ga  31    1.620550    2.805986   15.628301     13.00      69.7230
      78     2 N    7    1.632548    4.682252   16.214539      5.00      14.0067
      79     1 Ga  31    1.642439    4.669710   18.296372     13.00      69.7230
      80     2 N    7    1.634737    2.808994   18.747091      5.00      14.0067
      81     1 Ga  31    0.006664    5.608915   -0.585853     13.00      69.7230
      82     2 N    7    0.009483    7.483863    0.566574      5.00      14.0067
      83     1 Ga  31    0.008963    7.450743    2.596037     13.00      69.7230
      84     2 N    7    0.006095    5.607184    3.228726      5.00      14.0067
      85     1 Ga  31    0.006675    5.608134    5.219347     13.00      69.7230
      86     2 N    7    0.009418    7.482791    5.806759      5.00      14.0067
      87     1 Ga  31    0.009027    7.481022    7.805241     13.00      69.7230
      88     2 N    7    0.006193    5.608293    8.407349      5.00      14.0067
      89     1 Ga  31    0.006041    5.610831   10.403930     13.00      69.7230
      90     2 N    7    0.008999    7.480181   11.016630      5.00      14.0067
      91     1 Ga  31    0.008089    7.481358   13.014892     13.00      69.7230
      92     2 N    7    0.004661    5.615077   13.636789      5.00      14.0067
      93     1 Ga  31    0.004787    5.625443   15.648097     13.00      69.7230
      94     2 N    7    0.007134    7.494603   16.229312      5.00      14.0067
      95     1 Ga  31    0.015810    7.470789   18.297690     13.00      69.7230
      96     2 N    7    0.011365    5.587628   18.657261      5.00      14.0067
      97     1 Ga  31    6.491258   -0.003519    0.280651     13.00      69.7230
      98     2 N    7    6.497149    1.867735    0.565198      5.00      14.0067
      99     1 Ga  31    6.470102    1.881958    2.598062     13.00      69.7230
     100     2 N    7    6.491516   -0.003527    3.188074      5.00      14.0067
     101     1 Ga  31    6.492164   -0.003065    5.198712     13.00      69.7230
     102     2 N    7    6.497163    1.867113    5.807093      5.00      14.0067
     103     1 Ga  31    6.495596    1.866802    7.805806     13.00      69.7230
     104     2 N    7    6.490764   -0.003381    8.412331      5.00      14.0067
     105     1 Ga  31    6.490866   -0.001840   10.408800     13.00      69.7230
     106     2 N    7    6.496320    1.869433   11.015090      5.00      14.0067
     107     1 Ga  31    6.499458    1.868210   13.011833     13.00      69.7230
     108     2 N    7    6.488080   -0.001295   13.625235      5.00      14.0067
     109     1 Ga  31    6.479218   -0.001296   15.629768     13.00      69.7230
     110     2 N    7    6.509976    1.877688   16.208351      5.00      14.0067
     111     1 Ga  31    6.519534    1.884775   18.278542     13.00      69.7230
     112     2 N    7    6.505787   -0.007525   18.584359      5.00      14.0067
     113     1 Ga  31    4.871889    2.803069   -0.559252     13.00      69.7230
     114     2 N    7    4.874805    4.676590    0.565258      5.00      14.0067
     115     1 Ga  31    4.874313    4.645974    2.597941     13.00      69.7230
     116     2 N    7    4.871395    2.802090    3.229176      5.00      14.0067
     117     1 Ga  31    4.871933    2.802946    5.220696     13.00      69.7230
     118     2 N    7    4.874741    4.677229    5.809600      5.00      14.0067
     119     1 Ga  31    4.874309    4.675048    7.809448     13.00      69.7230
     120     2 N    7    4.871667    2.800688    8.409624      5.00      14.0067
     121     1 Ga  31    4.871882    2.800447   10.407653     13.00      69.7230
     122     2 N    7    4.874386    4.671207   11.011614      5.00      14.0067
     123     1 Ga  31    4.873623    4.666926   13.006634     13.00      69.7230
     124     2 N    7    4.871198    2.789711   13.614257      5.00      14.0067
     125     1 Ga  31    4.869308    2.783661   15.615531     13.00      69.7230
     126     2 N    7    4.872039    4.674823   16.115264      5.00      14.0067
     127     1 Ga  31    4.880031    4.684568   18.151247     13.00      69.7230
     128     2 N    7    4.874364    2.810854   18.564256      5.00      14.0067
     129     1 Ga  31    3.251808    5.608458    0.280250     13.00      69.7230
     130     2 N    7    3.251160    7.477717    0.566051      5.00      14.0067
     131     1 Ga  31    3.279297    7.492985    2.595984     13.00      69.7230
     132     2 N    7    3.251986    5.607511    3.188427      5.00      14.0067
     133     1 Ga  31    3.252659    5.608277    5.199230     13.00      69.7230
     134     2 N    7    3.252407    7.477780    5.808697      5.00      14.0067
     135     1 Ga  31    3.252750    7.477639    7.807730     13.00      69.7230
     136     2 N    7    3.251445    5.607395    8.415312      5.00      14.0067
     137     1 Ga  31    3.251044    5.608891   10.412750     13.00      69.7230
     138     2 N    7    3.254657    7.482714   11.013486      5.00      14.0067
     139     1 Ga  31    3.252803    7.486261   13.009443     13.00      69.7230
     140     2 N    7    3.246472    5.606835   13.588854      5.00      14.0067
     141     1 Ga  31    3.243271    5.610640   15.581266     13.00      69.7230
     142     2 N    7    3.259363    7.481180   16.158075      5.00      14.0067
     143     1 Ga  31    3.278537    7.489335   18.208218     13.00      69.7230
     144     2 N    7    3.272135    5.613377   18.601627      5.00      14.0067
     145     3 O    8    1.658770    4.679267   20.304183      6.00      15.9994
     146     4 H    1    1.373578    5.538911   20.622425      1.00       1.0079
     147     4 H    1    1.062142    4.002516   20.632272      1.00       1.0079




 SCF PARAMETERS         Density guess:                                    ATOMIC
                        --------------------------------------------------------
                        max_scf:                                             100
                        max_scf_history:                                       0
                        max_diis:                                              4
                        --------------------------------------------------------
                        eps_scf:                                        5.00E-06
                        eps_scf_history:                                0.00E+00
                        eps_diis:                                       1.00E-01
                        eps_eigval:                                     1.00E-05
                        --------------------------------------------------------
                        level_shift [a.u.]:                                 0.00
                        --------------------------------------------------------
                        Outer loop SCF in use 
                        No variables optimised in outer loop
                        eps_scf                                         5.00E-06
                        max_scf                                               10
                        No outer loop optimization
                        step_size                                       5.00E-01

 PW_GRID| Information for grid number                                          1
 PW_GRID| Grid distributed over                                    80 processors
 PW_GRID| Real space group dimensions                                    80    1
 PW_GRID| the grid is blocked:                                                NO
 PW_GRID| Cutoff [a.u.]                                                    600.0
 PW_GRID| spherical cutoff:                                                   NO
 PW_GRID|   Bounds   1           -100      99                Points:         200
 PW_GRID|   Bounds   2           -100      99                Points:         200
 PW_GRID|   Bounds   3           -324     323                Points:         648
 PW_GRID| Volume element (a.u.^3)  0.6333E-03     Volume (a.u.^3)     16414.2734
 PW_GRID| Grid span                                                    FULLSPACE
 PW_GRID|   Distribution                         Average         Max         Min
 PW_GRID|   G-Vectors                           324000.0      324000      324000
 PW_GRID|   G-Rays                                1620.0        1620        1620
 PW_GRID|   Real Space Points                   324000.0      388800      259200

 PW_GRID| Information for grid number                                          2
 PW_GRID| Grid distributed over                                    80 processors
 PW_GRID| Real space group dimensions                                    80    1
 PW_GRID| the grid is blocked:                                                NO
 PW_GRID| Cutoff [a.u.]                                                    200.0
 PW_GRID| spherical cutoff:                                                   NO
 PW_GRID|   Bounds   1            -60      59                Points:         120
 PW_GRID|   Bounds   2            -60      59                Points:         120
 PW_GRID|   Bounds   3           -187     187                Points:         375
 PW_GRID| Volume element (a.u.^3)  0.3040E-02     Volume (a.u.^3)     16414.2734
 PW_GRID| Grid span                                                    FULLSPACE
 PW_GRID|   Distribution                         Average         Max         Min
 PW_GRID|   G-Vectors                            67500.0       68520       66240
 PW_GRID|   G-Rays                                 562.5         571         552
 PW_GRID|   Real Space Points                    67500.0       90000       45000

 PW_GRID| Information for grid number                                          3
 PW_GRID| Grid distributed over                                    80 processors
 PW_GRID| Real space group dimensions                                     8   10
 PW_GRID| the grid is blocked:                                                NO
 PW_GRID| Cutoff [a.u.]                                                     66.7
 PW_GRID| spherical cutoff:                                                   NO
 PW_GRID|   Bounds   1            -36      35                Points:          72
 PW_GRID|   Bounds   2            -36      35                Points:          72
 PW_GRID|   Bounds   3           -108     107                Points:         216
 PW_GRID| Volume element (a.u.^3)  0.1466E-01     Volume (a.u.^3)     16414.2734
 PW_GRID| Grid span                                                    FULLSPACE
 PW_GRID|   Distribution                         Average         Max         Min
 PW_GRID|   G-Vectors                            13996.8       14976       12816
 PW_GRID|   G-Rays                                 194.4         208         178
 PW_GRID|   Real Space Points                    13996.8       15552       13608

 PW_GRID| Information for grid number                                          4
 PW_GRID| Grid distributed over                                    80 processors
 PW_GRID| Real space group dimensions                                     8   10
 PW_GRID| the grid is blocked:                                                NO
 PW_GRID| Cutoff [a.u.]                                                     22.2
 PW_GRID| spherical cutoff:                                                   NO
 PW_GRID|   Bounds   1            -20      19                Points:          40
 PW_GRID|   Bounds   2            -20      19                Points:          40
 PW_GRID|   Bounds   3            -62      62                Points:         125
 PW_GRID| Volume element (a.u.^3)  0.8207E-01     Volume (a.u.^3)     16414.2734
 PW_GRID| Grid span                                                    FULLSPACE
 PW_GRID|   Distribution                         Average         Max         Min
 PW_GRID|   G-Vectors                             2500.0        2960        2040
 PW_GRID|   G-Rays                                  62.5          74          51
 PW_GRID|   Real Space Points                     2500.0        2500        2500

 PW_GRID| Information for grid number                                          5
 PW_GRID| Grid distributed over                                    80 processors
 PW_GRID| Real space group dimensions                                     8   10
 PW_GRID| the grid is blocked:                                                NO
 PW_GRID| Cutoff [a.u.]                                                      7.4
 PW_GRID| spherical cutoff:                                                   NO
 PW_GRID|   Bounds   1            -12      11                Points:          24
 PW_GRID|   Bounds   2            -12      11                Points:          24
 PW_GRID|   Bounds   3            -36      35                Points:          72
 PW_GRID| Volume element (a.u.^3)  0.3958         Volume (a.u.^3)     16414.2734
 PW_GRID| Grid span                                                    FULLSPACE
 PW_GRID|   Distribution                         Average         Max         Min
 PW_GRID|   G-Vectors                              518.4         648         240
 PW_GRID|   G-Rays                                  21.6          27          10
 PW_GRID|   Real Space Points                      518.4         648         432

 POISSON| Solver                                                        PERIODIC
 POISSON| Periodicity                                                        XYZ

 RS_GRID| Information for grid number                                          1
 RS_GRID|   Bounds   1           -100      99                Points:         200
 RS_GRID|   Bounds   2           -100      99                Points:         200
 RS_GRID|   Bounds   3           -324     323                Points:         648
 RS_GRID| Real space distribution over                                 80 groups
 RS_GRID| Real space distribution along direction                              3
 RS_GRID| Border size                                                         73
 RS_GRID|   Distribution                         Average         Max         Min
 RS_GRID|   Planes                                 154.1         155         154

 RS_GRID| Information for grid number                                          2
 RS_GRID|   Bounds   1            -60      59                Points:         120
 RS_GRID|   Bounds   2            -60      59                Points:         120
 RS_GRID|   Bounds   3           -187     187                Points:         375
 RS_GRID| Real space distribution over                                 80 groups
 RS_GRID| Real space distribution along direction                              3
 RS_GRID| Border size                                                         45
 RS_GRID|   Distribution                         Average         Max         Min
 RS_GRID|   Planes                                  94.7          95          94

 RS_GRID| Information for grid number                                          3
 RS_GRID|   Bounds   1            -36      35                Points:          72
 RS_GRID|   Bounds   2            -36      35                Points:          72
 RS_GRID|   Bounds   3           -108     107                Points:         216
 RS_GRID| Real space fully replicated
 RS_GRID| Group size                                                           1

 RS_GRID| Information for grid number                                          4
 RS_GRID|   Bounds   1            -20      19                Points:          40
 RS_GRID|   Bounds   2            -20      19                Points:          40
 RS_GRID|   Bounds   3            -62      62                Points:         125
 RS_GRID| Real space fully replicated
 RS_GRID| Group size                                                           1

 RS_GRID| Information for grid number                                          5
 RS_GRID|   Bounds   1            -12      11                Points:          24
 RS_GRID|   Bounds   2            -12      11                Points:          24
 RS_GRID|   Bounds   3            -36      35                Points:          72
 RS_GRID| Real space fully replicated
 RS_GRID| Group size                                                           1

 BFGS| Use rational function optimization for step estimation:                NO
 BFGS| Use model Hessian for initial guess:                                  YES
 BFGS| Restart Hessian:                                                       NO
 BFGS| Trust radius:                                                       0.472

 *******************************************************************************
 ***                     STARTING GEOMETRY OPTIMIZATION                      ***
 ***                                   BFGS                                  ***
 *******************************************************************************

 Number of electrons:                                                       1304
 Number of occupied orbitals:                                                652
 Number of molecular orbitals:                                               652

 Number of orbital functions:                                               2759
 Number of independent orbital functions:                                   2759

 Extrapolation method: initial_guess

 Atomic guess: The first density matrix is obtained in terms of atomic orbitals
               and electronic configurations assigned to each atomic kind

 Guess for atomic kind: Ga

 Electronic structure
    Total number of core electrons                                         18.00
    Total number of valence electrons                                      13.00
    Total number of electrons                                              31.00
    Multiplicity                                                   not specified
    S   [  2.00  2.00  2.00] 2.00
    P   [  6.00  6.00] 1.00
    D     10.00
 

 *******************************************************************************
                  Iteration          Convergence                     Energy [au]
 *******************************************************************************
                          1         22.1524                     -44.516413224335
                          2         1.91043                     -73.305924441898
                          3        0.524291E-01                 -74.147756188929
                          4        0.359055E-02                 -74.148100266765
                          5        0.137660E-02                 -74.148101509825
                          6        0.820576E-03                 -74.148101603074
                          7        0.577059E-04                 -74.148101657024
                          8        0.577427E-08                 -74.148101657328

 Energy components [Hartree]           Total Energy ::          -74.148101657328
                                        Band Energy ::           -7.354344558070
                                     Kinetic Energy ::           99.564392614967
                                   Potential Energy ::         -173.712494272295
                                      Virial (-V/T) ::            1.744725094081
                                        Core Energy ::         -134.243973097364
                                          XC Energy ::           -9.781240980901
                                     Coulomb Energy ::           69.877112420937
                       Total Pseudopotential Energy ::         -233.873649274629
                       Local Pseudopotential Energy ::         -163.402683521975
                    Nonlocal Pseudopotential Energy ::          -70.470965752654
                                        Confinement ::            0.652835622975

 Orbital energies  State     L     Occupation   Energy[a.u.]          Energy[eV]

                       1     0          2.000      -0.307238           -8.360378
 
                       1     1          1.000      -0.061461           -1.672442
 
                       1     2         10.000      -0.667841          -18.172870
 

 Total Electron Density at R=0:                                         0.000004

 Guess for atomic kind: N

 Electronic structure
    Total number of core electrons                                          2.00
    Total number of valence electrons                                       5.00
    Total number of electrons                                               7.00
    Multiplicity                                                   not specified
    S   [  2.00] 2.00
    P      3.00
 

 *******************************************************************************
                  Iteration          Convergence                     Energy [au]
 *******************************************************************************
                          1        0.314603                      -9.513311037226
                          2        0.240982                      -9.524715106536
                          3        0.171660E-02                  -9.545365478140
                          4        0.189497E-03                  -9.545366407342
                          5        0.115171E-03                  -9.545366414563
                          6        0.842367E-04                  -9.545366416530
                          7        0.416372E-07                  -9.545366418792

 Energy components [Hartree]           Total Energy ::           -9.545366418792
                                        Band Energy ::           -2.053285301135
                                     Kinetic Energy ::            6.740378038236
                                   Potential Energy ::          -16.285744457028
                                      Virial (-V/T) ::            2.416147041701
                                        Core Energy ::          -15.542519058333
                                          XC Energy ::           -2.163416690174
                                     Coulomb Energy ::            8.160569329715
                       Total Pseudopotential Energy ::          -22.320027271038
                       Local Pseudopotential Energy ::          -23.240219346165
                    Nonlocal Pseudopotential Energy ::            0.920192075127
                                        Confinement ::            0.371301744695

 Orbital energies  State     L     Occupation   Energy[a.u.]          Energy[eV]

                       1     0          2.000      -0.663125          -18.044549
 
                       1     1          3.000      -0.242345           -6.594545
 

 Total Electron Density at R=0:                                         0.000019

 Guess for atomic kind: O

 Electronic structure
    Total number of core electrons                                          2.00
    Total number of valence electrons                                       6.00
    Total number of electrons                                               8.00
    Multiplicity                                                   not specified
    S   [  2.00] 2.00
    P      4.00
 

 *******************************************************************************
                  Iteration          Convergence                     Energy [au]
 *******************************************************************************
                          1        0.702811                     -15.577904332270
                          2        0.612408                     -15.588447180504
                          3        0.955344E-02                 -15.655871208406
                          4        0.223754E-02                 -15.655885053552
[...]
 flops     5 x    13 x    32           9013879680     100.0%      0.0%      0.0%
 flops   160 x    44 x    44          13978229760     100.0%      0.0%      0.0%
 flops   677 x    44 x    44          15974470336     100.0%      0.0%      0.0%
 flops   690 x    44 x    44          16281217920     100.0%      0.0%      0.0%
 flops    25 x     5 x    32          20093184000     100.0%      0.0%      0.0%
 flops     5 x    25 x    32          20093184000     100.0%      0.0%      0.0%
 flops   172 x    44 x   115          23195768640     100.0%      0.0%      0.0%
 flops   172 x    44 x   139          28036624704     100.0%      0.0%      0.0%
 flops   696 x    44 x    44          32845587456     100.0%      0.0%      0.0%
 flops    13 x    32 x     5          33676115200     100.0%      0.0%      0.0%
 flops     5 x    32 x    13          33676115200     100.0%      0.0%      0.0%
 flops   677 x    44 x   115          39093175440     100.0%      0.0%      0.0%
 flops   690 x    44 x   115          39843856800     100.0%      0.0%      0.0%
 flops   172 x    44 x   127          42693661120     100.0%      0.0%      0.0%
 flops   677 x    44 x   139          47251751184     100.0%      0.0%      0.0%
 flops   690 x    44 x   139          48159096480     100.0%      0.0%      0.0%
 flops    13 x    12 x    13          57150439320     100.0%      0.0%      0.0%
 flops    13 x    13 x    44          59773170600     100.0%      0.0%      0.0%
 flops   160 x    44 x   115          64732377600     100.0%      0.0%      0.0%
 flops   172 x    44 x    32          69213416448     100.0%      0.0%      0.0%
 flops   172 x    32 x    44          69213416448     100.0%      0.0%      0.0%
 flops   677 x    44 x   127          71954105520     100.0%      0.0%      0.0%
 flops   690 x    44 x   127          73335794400     100.0%      0.0%      0.0%
 flops    25 x    32 x     5          75409920000     100.0%      0.0%      0.0%
 flops     5 x    32 x    25          75409920000     100.0%      0.0%      0.0%
 flops   160 x    44 x   139          78241743360     100.0%      0.0%      0.0%
 flops   696 x    44 x   115          80380650240     100.0%      0.0%      0.0%
 flops   696 x    44 x   139          97155742464     100.0%      0.0%      0.0%
 flops   160 x    44 x   127         119145100800     100.0%      0.0%      0.0%
 flops    13 x    12 x    25         127290602400     100.0%      0.0%      0.0%
 flops    25 x    12 x    13         127290602400     100.0%      0.0%      0.0%
 flops    25 x    13 x    44         130119046200     100.0%      0.0%      0.0%
 flops    13 x    25 x    44         131691960400     100.0%      0.0%      0.0%
 flops   696 x    44 x   127         147946993920     100.0%      0.0%      0.0%
 flops   160 x    32 x    44         193153720320     100.0%      0.0%      0.0%
 flops   160 x    44 x    32         193153720320     100.0%      0.0%      0.0%
 flops   677 x    32 x    44         220738135552     100.0%      0.0%      0.0%
 flops   677 x    44 x    32         220738135552     100.0%      0.0%      0.0%
 flops   690 x    32 x    44         224976829440     100.0%      0.0%      0.0%
 flops   690 x    44 x    32         224976829440     100.0%      0.0%      0.0%
 flops    25 x    12 x    25         254508480000     100.0%      0.0%      0.0%
 flops    25 x    25 x    44         265375440000     100.0%      0.0%      0.0%
 flops   172 x    32 x   115         320523348480     100.0%      0.0%      0.0%
 flops   172 x    32 x   139         387415177728     100.0%      0.0%      0.0%
 flops   696 x    44 x    32         453866299392     100.0%      0.0%      0.0%
 flops   696 x    32 x    44         453866299392     100.0%      0.0%      0.0%
 flops   677 x    32 x   115         540196606080     100.0%      0.0%      0.0%
 flops   690 x    32 x   115         550569657600     100.0%      0.0%      0.0%
 flops   172 x    32 x   127         589948771840     100.0%      0.0%      0.0%
 flops   677 x    32 x   139         652933289088     100.0%      0.0%      0.0%
 flops   690 x    32 x   139         665471151360     100.0%      0.0%      0.0%
 flops    13 x    13 x    32         825956539200     100.0%      0.0%      0.0%
 flops   160 x    32 x   115         894483763200     100.0%      0.0%      0.0%
 flops   172 x    32 x    32         956403572736     100.0%      0.0%      0.0%
 flops   677 x    32 x   127         994274912640     100.0%      0.0%      0.0%
 flops   690 x    32 x   127        1013367340800     100.0%      0.0%      0.0%
 flops   160 x    32 x   139        1081158635520     100.0%      0.0%      0.0%
 flops   696 x    32 x   115        1110714439680     100.0%      0.0%      0.0%
 flops   696 x    32 x   139        1342515714048     100.0%      0.0%      0.0%
 flops   160 x    32 x   127        1646368665600     100.0%      0.0%      0.0%
 flops    25 x    13 x    32        1798008638400     100.0%      0.0%      0.0%
 flops    13 x    25 x    32        1819743452800     100.0%      0.0%      0.0%
 flops   696 x    32 x   127        2044358461440     100.0%      0.0%      0.0%
 flops   160 x    32 x    32        2669033226240     100.0%      0.0%      0.0%
 flops    13 x    32 x    13        3048023430400     100.0%      0.0%      0.0%
 flops   677 x    32 x    32        3050199691264     100.0%      0.0%      0.0%
 flops   690 x    32 x    32        3108770734080     100.0%      0.0%      0.0%
 flops    25 x    25 x    32        3667006080000     100.0%      0.0%      0.0%
 flops   696 x    32 x    32        6271607046144     100.0%      0.0%      0.0%
 flops    13 x    32 x    25        6788832128000     100.0%      0.0%      0.0%
 flops    25 x    32 x    13        6788832128000     100.0%      0.0%      0.0%
 flops    25 x    32 x    25       13573785600000     100.0%      0.0%      0.0%
 flops inhomo. stacks              16056710925696     100.0%      0.0%      0.0%
 flops total                        89.111923E+12     100.0%      0.0%      0.0%
 flops max/rank                      1.480626E+12     100.0%      0.0%      0.0%
 matmuls inhomo. stacks                   4567680     100.0%      0.0%      0.0%
 matmuls total                         1776721392     100.0%      0.0%      0.0%
 number of processed stacks              74512050     100.0%      0.0%      0.0%
 average stack size                                    23.8       0.0       0.0
 marketing flops                    98.769803E+12
 -------------------------------------------------------------------------------
 # multiplications                          25194
 max memory usage/rank             892.653568E+06
 # max total images/rank                        5
 # max 3D layers                                1
 # MPI messages exchanged               229769280
 MPI messages size (bytes):
  total size                        13.725608E+12
  min size                           0.000000E+00
  max size                         935.424000E+03
  average size                      59.736480E+03
 MPI breakdown and total messages size (bytes):
             size <=      128             1029420                        0
       128 < size <=     8192            93408028             765198565376
      8192 < size <=    32768            41998341            1110378060032
     32768 < size <=   131072            66566291            2621910738912
    131072 < size <=  4194304            26767200            9212904585304
   4194304 < size <= 16777216                   0                        0
  16777216 < size                               0                        0
 -------------------------------------------------------------------------------

 *** WARNING in dbcsr/mm/dbcsr_mm.F:268 :: Using a non-square number of ***
 *** MPI ranks might lead to poor performance.                          ***
 *** Used ranks: 80                                                     ***
 *** Suggested: 81 169                                                  ***

 -------------------------------------------------------------------------------
 
 MEMORY| Estimated peak process memory [MiB]                                 857

 -------------------------------------------------------------------------------
 ----                             MULTIGRID INFO                            ----
 -------------------------------------------------------------------------------
 count for grid        1:         902443          cutoff [a.u.]          600.00
 count for grid        2:        5478437          cutoff [a.u.]          200.00
 count for grid        3:        4889584          cutoff [a.u.]           66.67
 count for grid        4:        7359198          cutoff [a.u.]           22.22
 count for grid        5:        6924891          cutoff [a.u.]            7.41
 total gridlevel count  :       25554553

 -------------------------------------------------------------------------------
 -                                                                             -
 -                         MESSAGE PASSING PERFORMANCE                         -
 -                                                                             -
 -------------------------------------------------------------------------------

 ROUTINE             CALLS      AVE VOLUME [Bytes]
 MP_Group             1771
 MP_Bcast            25999                  29732.
 MP_Allreduce       200908                    159.
 MP_Sync               973
 MP_Alltoall        130527                2768641.
 MP_SendRecv         18960                   5258.
 MP_ISendRecv       645588                  49867.
 MP_Wait           5727777
 MP_comm_split         968
 MP_ISend          6534330                  56362.
 MP_IRecv          6534330                  56306.
 MP_Recv              1121                  81144.
 MP_Memory         2824084
 -------------------------------------------------------------------------------


 -------------------------------------------------------------------------------
 -                                                                             -
 -                           R E F E R E N C E S                               -
 -                                                                             -
 -------------------------------------------------------------------------------
 
 CP2K version 7.0 (Development Version), the CP2K developers group (2018).
 CP2K is freely available from https://www.cp2k.org/ .

 Schuett, Ole; Messmer, Peter; Hutter, Juerg; VandeVondele, Joost. 
 Electronic Structure Calculations on Graphics Processing Units, John Wiley & Sons, Ltd, 173-190 (2016). 
 GPU-Accelerated Sparse Matrix-Matrix Multiplication for Linear Scaling Density Functional Theory.
 http://dx.doi.org/10.1002/9781118670712.ch8


 Borstnik, U; VandeVondele, J; Weber, V; Hutter, J. 
 PARALLEL COMPUTING, 40 (5-6), 47-58 (2014). 
 Sparse matrix multiplication: The distributed block-compressed sparse
 row library.
 http://dx.doi.org/10.1016/j.parco.2014.03.012


 Hutter, J; Iannuzzi, M; Schiffmann, F; VandeVondele, J. 
 WILEY INTERDISCIPLINARY REVIEWS-COMPUTATIONAL MOLECULAR SCIENCE, 4 (1), 15-25 (2014). 
 CP2K: atomistic simulations of condensed matter systems.
 http://dx.doi.org/10.1002/wcms.1159


 Grimme, S; Ehrlich, S; Goerigk, L. 
 JOURNAL OF COMPUTATIONAL CHEMISTRY, 32, 1456 (2011). 
 Effect of the damping function in dispersion corrected density functional theory.
 http://dx.doi.org/10.1002/jcc.21759


 Grimme, S; Antony, J; Ehrlich, S; Krieg, H. 
 JOURNAL OF CHEMICAL PHYSICS, 132 (15), 154104 (2010). 
 A consistent and accurate ab initio parametrization of density
 functional dispersion correction (DFT-D) for the 94 elements H-Pu.
 http://dx.doi.org/10.1063/1.3382344


 VandeVondele, J; Hutter, J. 
 JOURNAL OF CHEMICAL PHYSICS, 127 (11), 114105 (2007). 
 Gaussian basis sets for accurate calculations on molecular systems in
 gas and condensed phases.
 http://dx.doi.org/10.1063/1.2770708


 Krack, M. 
 THEORETICAL CHEMISTRY ACCOUNTS, 114 (1-3), 145-152 (2005). 
 Pseudopotentials for H to Kr optimized for gradient-corrected
 exchange-correlation functionals.
 http://dx.doi.org/10.1007/s00214-005-0655-y


 VandeVondele, J; Krack, M; Mohamed, F; Parrinello, M; Chassaing, T;
 Hutter, J. COMPUTER PHYSICS COMMUNICATIONS, 167 (2), 103-128 (2005). 
 QUICKSTEP: Fast and accurate density functional calculations using a
 mixed Gaussian and plane waves approach.
 http://dx.doi.org/10.1016/j.cpc.2004.12.014


 Frigo, M; Johnson, SG. 
 PROCEEDINGS OF THE IEEE, 93 (2), 216-231 (2005). 
 The design and implementation of FFTW3.
 http://dx.doi.org/10.1109/JPROC.2004.840301


 Kolafa, J. 
 JOURNAL OF COMPUTATIONAL CHEMISTRY, 25 (3), 335-342 (2004). 
 Time-reversible always stable predictor-corrector method for molecular dynamics of polarizable molecules.
 http://dx.doi.org/10.1002/jcc.10385


 VandeVondele, J; Hutter, J. 
 JOURNAL OF CHEMICAL PHYSICS, 118 (10), 4365-4369 (2003). 
 An efficient orbital transformation method for electronic structure
 calculations.
 http://dx.doi.org/10.1063/1.1543154


 Hartwigsen, C; Goedecker, S; Hutter, J. 
 PHYSICAL REVIEW B, 58 (7), 3641-3662 (1998). 
 Relativistic separable dual-space Gaussian pseudopotentials from H to Rn.
 http://dx.doi.org/10.1103/PhysRevB.58.3641


 Lippert, G; Hutter, J; Parrinello, M. 
 MOLECULAR PHYSICS, 92 (3), 477-487 (1997). 
 A hybrid Gaussian and plane wave density functional scheme.
 http://dx.doi.org/10.1080/002689797170220


 Perdew, JP; Burke, K; Ernzerhof, M. 
 PHYSICAL REVIEW LETTERS, 77 (18), 3865-3868 (1996). 
 Generalized gradient approximation made simple.
 http://dx.doi.org/10.1103/PhysRevLett.77.3865


 Goedecker, S; Teter, M; Hutter, J. 
 PHYSICAL REVIEW B, 54 (3), 1703-1710 (1996). 
 Separable dual-space Gaussian pseudopotentials.
 http://dx.doi.org/10.1103/PhysRevB.54.1703


 -------------------------------------------------------------------------------
 -                                                                             -
 -                                T I M I N G                                  -
 -                                                                             -
 -------------------------------------------------------------------------------
 SUBROUTINE                       CALLS  ASD         SELF TIME        TOTAL TIME
                                MAXIMUM       AVERAGE  MAXIMUM  AVERAGE  MAXIMUM
 CP2K                                 1  1.0    0.156    0.204 7805.380 7805.429
 cp_geo_opt                           1  2.0    0.016    0.029 7804.419 7804.432
 geoopt_bfgs                          1  3.0    0.092    0.133 7804.403 7804.419
 cp_eval_at                          61  4.0    0.050    0.076 7778.432 7778.469
 qs_forces                           60  5.0    0.032    0.064 7738.792 7738.809
 qs_energies                         61  6.0    0.123    0.179 7272.469 7272.529
 scf_env_do_scf                      61  7.0    0.017    0.097 6954.972 6955.027
 scf_env_do_scf_inner_loop         1715  8.0    0.107    0.212 6462.976 6463.022
 rebuild_ks_matrix                 1775  9.9    0.007    0.008 3165.746 3166.332
 qs_ks_build_kohn_sham_matrix      1775 10.9    0.348    1.108 3165.739 3166.326
 qs_rho_update_rho                 1776  9.0    0.029    0.059 3033.846 3036.786
 calculate_rho_elec                1776 10.0 1664.023 2032.499 3033.817 3036.740
 qs_ks_update_qs_env               1778  9.0    0.029    0.056 2776.993 2777.837
 sum_up_and_integrate               948 11.8    3.221    4.057 1911.897 1912.375
 integrate_v_rspace                 948 12.8 1125.084 1368.440 1908.674 1909.661
 rs_pw_transfer                   13863 13.0    0.161    0.196 1303.715 1384.516
 pw_transfer                      29072 13.3    3.049    3.542 1376.087 1380.316
 fft_wrap_pw1pw2                  25522 14.4    0.307    0.352 1363.697 1367.694
 density_rs2pw                     1776 11.0    0.128    0.148 1248.925 1332.381
 fft_wrap_pw1pw2_600              14626 15.7   79.961   93.800 1235.568 1239.003
 fft3d_ps                         25522 16.4  276.446  319.057 1176.945 1198.498
 qs_vxc_create                     1775 11.9    0.033    0.062  998.491 1002.389
 dbcsr_multiply_generic           25194 13.8    1.513    2.175  971.165  972.800
 mp_waitany                      579996 14.9  840.675  963.862  840.675  963.862
 qs_scf_new_mos                    1715  9.0    0.030    0.048  935.790  936.844
 qs_scf_loop_do_ot                 1715 10.0    0.095    0.215  935.760  936.830
 mp_alltoall_z22v                 25522 18.4  785.605  858.190  785.605  858.190
 ot_scf_mini                       1715 11.0    0.110    0.235  855.328  856.523
 mp_waitall_1                   5147781 16.7  802.920  851.680  802.920  851.680
 rs_pw_transfer_RS2PW_600          1898 12.9  101.904  119.897  649.168  729.564
 xc_vxc_pw_create                   948 12.8   28.864   35.640  715.559  719.426
 multiply_cannon                  25194 14.8    7.627    8.051  704.206  718.471
 xc_rho_set_and_dset_create        1775 13.9    5.307    6.044  545.460  560.141
 potential_pw2rs                    948 13.8    0.415    0.531  499.373  500.362
 x_to_yz                           9945 18.0   41.680   52.548  477.342  494.732
 init_scf_loop                       63  8.0    0.019    0.039  491.181  491.213
 multiply_cannon_metrocomm3      503880 15.8    1.308    1.374  411.633  448.683
 ot_mini                           1715 12.0    0.009    0.013  434.797  435.518
 yz_to_x                           7405 17.1   28.826   36.396  375.313  415.534
 qs_ks_update_qs_env_forces          60  6.0    0.000    0.001  398.273  398.376
 mp_alltoall_d11v                 22624 15.4  338.483  393.553  338.483  393.553
 rs_distribute_matrix              2784 12.0    1.572    3.895  323.233  377.281
 prepare_preconditioner              63  9.0    0.001    0.001  304.037  304.167
 make_preconditioner                 63 10.0    0.004    0.017  285.210  285.276
 xc_exc_calc                        827 13.0    1.910    2.327  282.898  283.122
 qs_ot_get_derivative               888 13.0    0.032    0.065  271.231  271.999
 make_full_all                       63 11.0    0.033    0.057  269.224  269.316
 rs_pw_transfer_PW2RS_600          1069 15.3   90.894  101.464  253.794  255.165
 cp_fm_syevd                        968 13.8    0.008    0.015  241.209  253.892
 cp_fm_redistribute_end             968 14.8  126.275  238.650  129.056  244.225
 multiply_cannon_metrocomm1      503880 15.8    1.451    1.565  167.155  237.947
 cp_fm_syevd_base                   968 14.7  103.153  218.911  103.153  218.911
 mp_sum_d                         31121 14.3  173.396  218.205  173.396  218.205
 qs_ot_get_p                       1778 11.9    0.020    0.090  194.735  196.269
 init_scf_run                        61  7.0    0.004    0.011  169.549  169.574
 scf_env_initial_rho_setup           61  8.0    0.004    0.005  169.545  169.562
 wfi_extrapolate                     61  9.0    0.030    0.098  167.054  167.076
 apply_preconditioner_dbcsr         951 14.0    0.002    0.003  158.995  159.554
 apply_all                          951 15.0    0.066    0.121  158.993  159.551
 ot_new_cg_direction                888 13.0    0.012    0.048  159.078  159.135
 -------------------------------------------------------------------------------

 The number of warnings for this run is : 1
 
 -------------------------------------------------------------------------------
  **** **** ******  **  PROGRAM ENDED AT                 2019-05-23 14:39:59.492
 ***** ** ***  *** **   PROGRAM RAN ON            blg9114.int.ets1.calculquebec.
 **    ****   ******    PROGRAM RAN BY                                       rzk
 ***** **    ** ** **   PROGRAM PROCESS ID                                178554
  **** **  *******  **  PROGRAM STOPPED IN /lustre03/project/6004141/rzk/GaN-car
                                           bene/02-Water/01-O-ads
