     147
 i =        1, E =     -6105.6612952916
 Ga         0.0003895902       -0.0025160039       -0.5878102026
  N         0.0033690790        1.8715873094        0.5660576707
 Ga         0.0027847385        1.8392175347        2.5963908081
  N        -0.0000697166       -0.0036782073        3.2297493436
 Ga         0.0005303336       -0.0031904600        5.2207710433
  N         0.0032280401        1.8716470234        5.8069715929
 Ga         0.0027673014        1.8702477831        7.8057325737
  N        -0.0000894483       -0.0029884921        8.4087446544
 Ga        -0.0000054203       -0.0010056784       10.4065219874
  N         0.0025027698        1.8711384767       11.0112002660
 Ga         0.0007417253        1.8768516858       13.0047918530
  N        -0.0024841723        0.0074976877       13.6094194853
 Ga        -0.0003755635        0.0170038970       15.6116781647
  N         0.0001311288        1.8815723079       16.2610314801
 Ga        -0.0085792917        1.8831678290       18.3683427262
  N         0.0084663149       -0.0011501796       18.6634730910
 Ga        -1.6183216639        2.8027261387        0.2815894452
  N        -1.6212757225        4.6720735059        0.5659895336
 Ga        -1.5927575697        4.6876588535        2.5959614262
  N        -1.6193066364        2.8021675518        3.1879010981
 Ga        -1.6189131546        2.8027237745        5.1987345380
  N        -1.6192373597        4.6728757795        5.8070626918
 Ga        -1.6185218638        4.6731962550        7.8059746132
  N        -1.6199536047        2.8024461863        8.4106614361
 Ga        -1.6196245139        2.8036946822       10.4063730845
  N        -1.6128787863        4.6744483980       11.0130863053
 Ga        -1.6097857662        4.6738204210       13.0080962133
  N        -1.6179459607        2.8060664816       13.6243365294
 Ga        -1.6194915311        2.8017786681       15.6312945118
  N        -1.6227525723        4.6802111201       16.2069131087
 Ga        -1.6319909648        4.6662008885       18.2813301649
  N        -1.6252977255        2.8123388418       18.7549955683
 Ga        -3.2390938901        5.6087882552        0.2810570927
  N        -3.2330869032        7.4783019305        0.5658660035
 Ga        -3.2616102853        7.4932050637        2.5961828641
  N        -3.2393356274        5.6077395285        3.1883772152
 Ga        -3.2392029767        5.6084887409        5.1993101993
  N        -3.2335340360        7.4779439585        5.8084658001
 Ga        -3.2347171125        7.4777673820        7.8078782777
  N        -3.2389360567        5.6073540949        8.4152863045
 Ga        -3.2384960276        5.6089902872       10.4131579037
  N        -3.2371669296        7.4827716286       11.0142955940
 Ga        -3.2368204277        7.4868677917       13.0106302849
  N        -3.2357653837        5.6073553345       13.5897436114
 Ga        -3.2365984752        5.6126764056       15.5814721917
  N        -3.2446224063        7.4809170593       16.1534083552
 Ga        -3.2523575026        7.4912196617       18.1973834420
  N        -3.2521783874        5.6185185038       18.6020686515
 Ga         3.2461538764       -0.0038614336        0.2816116529
  N         3.2455358532        1.8672759857        0.5657342518
 Ga         3.2719092018        1.8817130002        2.5985335465
  N         3.2452842460       -0.0038086999        3.1878998882
 Ga         3.2455975594       -0.0031275126        5.1986850709
  N         3.2461040866        1.8670065761        5.8067515553
 Ga         3.2469081052        1.8668146727        7.8058888892
  N         3.2461855637       -0.0033723847        8.4125763235
 Ga         3.2457071711       -0.0017640218       10.4094113331
  N         3.2465517564        1.8698170806       11.0152983474
 Ga         3.2430466868        1.8683441191       13.0126526529
  N         3.2464895172       -0.0020144743       13.6225207408
 Ga         3.2459002610        0.0017231546       15.6254904353
  N         3.2351933386        1.8832842407       16.1994117596
 Ga         3.2466038728        1.8702632640       18.2595664939
  N         3.2326279287       -0.0142493750       18.5868043539
 Ga         1.6250051801        2.8032415354        0.2816845723
  N         1.6330702211        4.6726227187        0.5662242734
 Ga         1.6043993104        4.6877718431        2.5961211227
  N         1.6255060384        2.8021344044        3.1880510239
 Ga         1.6261531891        2.8027334113        5.1989923447
  N         1.6319232839        4.6729098890        5.8070958949
 Ga         1.6304387557        4.6732141182        7.8060509125
  N         1.6261056156        2.8024118424        8.4106226715
 Ga         1.6256891483        2.8035744646       10.4064912384
  N         1.6244709014        4.6748028554       11.0131180630
 Ga         1.6182476409        4.6746785545       13.0089330356
  N         1.6210842778        2.8049247458       13.6153383669
 Ga         1.6200860620        2.7980445503       15.6240443700
  N         1.6359834673        4.6781769551       16.2158878489
 Ga         1.6411687820        4.6638348040       18.3431450909
  N         1.6305178020        2.7646456747       18.6943559436
 Ga         0.0066678447        5.6089037964       -0.5859979551
  N         0.0095055583        7.4834115355        0.5664429694
 Ga         0.0089497564        7.4506352679        2.5962223188
  N         0.0060900054        5.6071921608        3.2286379804
 Ga         0.0066743622        5.6081263284        5.2193561791
  N         0.0094172367        7.4827921121        5.8063468675
 Ga         0.0090027660        7.4811187110        7.8051022365
  N         0.0062017016        5.6083146578        8.4070855756
 Ga         0.0059193929        5.6107917455       10.4038715599
  N         0.0090800400        7.4802661202       11.0157043892
 Ga         0.0080100972        7.4834239685       13.0133593470
  N         0.0030722761        5.6167288010       13.6338111356
 Ga         0.0031278891        5.6239184153       15.6462290589
  N         0.0031247344        7.4990930466       16.2174594920
 Ga         0.0161979963        7.4947867330       18.2801212280
  N        -0.0171184751        5.6113542465       18.5992177928
 Ga         6.4911038852       -0.0033648232        0.2815289657
  N         6.4969714544        1.8678376767        0.5657020895
 Ga         6.4703331263        1.8818721887        2.5984907641
  N         6.4914896008       -0.0037813359        3.1879425552
 Ga         6.4921483692       -0.0031108945        5.1987357502
  N         6.4972311157        1.8671033313        5.8066271687
 Ga         6.4955913379        1.8668342383        7.8056744751
  N         6.4907459018       -0.0033769113        8.4121718248
 Ga         6.4908978093       -0.0016745085       10.4087899750
  N         6.4963071183        1.8693297376       11.0156149616
 Ga         6.4997431863        1.8685234764       13.0127274786
  N         6.4877164261       -0.0012295824       13.6273387871
 Ga         6.4805153203        0.0019930448       15.6317178077
  N         6.5122019608        1.8772039472       16.2099409070
 Ga         6.5212710158        1.8830291545       18.2772989203
  N         6.5066333705       -0.0068832954       18.5980795221
 Ga         4.8718831521        2.8030923375       -0.5631965298
  N         4.8748502996        4.6763732478        0.5657696824
 Ga         4.8742891595        4.6462129817        2.5984572417
  N         4.8714302311        2.8020348792        3.2290855891
 Ga         4.8718913773        2.8029287308        5.2207270757
  N         4.8747643025        4.6773939605        5.8090776851
 Ga         4.8742925302        4.6751413563        7.8092420354
  N         4.8716330465        2.8007532931        8.4095766008
 Ga         4.8718679878        2.8003334552       10.4079993091
  N         4.8742644215        4.6712268836       11.0108866450
 Ga         4.8759811794        4.6664638599       13.0054322115
  N         4.8720618111        2.7904938563       13.6130185865
 Ga         4.8723026855        2.7807843564       15.6137380255
  N         4.8757519075        4.6724929284       16.1205242983
 Ga         4.8940298628        4.6793565965       18.1560161111
  N         4.8755904017        2.8067747279       18.5666031754
 Ga         3.2518944287        5.6081846114        0.2811572375
  N         3.2510955441        7.4776712040        0.5657755111
 Ga         3.2793637398        7.4930006505        2.5961214113
  N         3.2517403412        5.6076512991        3.1883979698
 Ga         3.2525368354        5.6083151086        5.1993120699
  N         3.2524386592        7.4778565600        5.8082733465
 Ga         3.2526931103        7.4776666350        7.8075700881
  N         3.2513944976        5.6074012177        8.4150776476
 Ga         3.2510982817        5.6089938544       10.4127828849
  N         3.2546154635        7.4828551643       11.0132362370
 Ga         3.2525764698        7.4877458505       13.0088214659
  N         3.2486712075        5.6075797884       13.5846634509
 Ga         3.2470661046        5.6118980088       15.5781507172
  N         3.2606463732        7.4826356637       16.1584393123
 Ga         3.2827002254        7.5105392358       18.2031840948
  N         3.2884501538        5.6328103443       18.5311779407
  O         1.7274621701        4.6725676956       20.4462337802
  H         1.3437174030        5.5510318569       20.6567400990
  H         1.0350806641        4.0066535909       20.6513784919
     147
 i =        2, E =     -6105.6672211953
 Ga         0.0004726706       -0.0025468329       -0.5870620648
  N         0.0033641483        1.8714734442        0.5656042409
 Ga         0.0028628654        1.8391975383        2.5961494073
  N        -0.0000822052       -0.0036776889        3.2296820689
 Ga         0.0004933842       -0.0031837037        5.2208374583
  N         0.0032111688        1.8717198334        5.8072767442
 Ga         0.0028432742        1.8703240891        7.8062007085
  N         0.0000391159       -0.0028809892        8.4084694452
 Ga        -0.0002242094       -0.0011127605       10.4063434620
  N         0.0020871019        1.8709528276       11.0111096639
 Ga         0.0017277539        1.8769240228       13.0049265356
  N        -0.0029103025        0.0067723568       13.6047591690
 Ga        -0.0015991783        0.0143710168       15.6041659289
  N        -0.0020830827        1.8764002319       16.2487085890
 Ga        -0.0172074652        1.8744978132       18.3433182413
  N         0.0065557041       -0.0027559464       18.6696413463
 Ga        -1.6184362507        2.8026104703        0.2825336129
  N        -1.6210253275        4.6721685230        0.5656217822
 Ga        -1.5927441864        4.6877216108        2.5958208126
  N        -1.6193701743        2.8020323206        3.1876746933
 Ga        -1.6190016747        2.8026938509        5.1987394104
  N        -1.6193291229        4.6728707664        5.8073345537
 Ga        -1.6187225771        4.6732641399        7.8064065009
  N        -1.6199475678        2.8024243765        8.4100640240
 Ga        -1.6196915006        2.8035625347       10.4057183568
  N        -1.6132669785        4.6743812800       11.0129511672
 Ga        -1.6083353574        4.6756151267       13.0085891005
  N        -1.6185290547        2.8064386559       13.6218692415
 Ga        -1.6193222145        2.8007771008       15.6263558786
  N        -1.6239216891        4.6779875607       16.1960549985
 Ga        -1.6343497248        4.6717591958       18.2635824402
  N        -1.6213124088        2.8208757021       18.7628550884
 Ga        -3.2391940356        5.6086537223        0.2820940765
  N        -3.2332267434        7.4783376451        0.5653612628
 Ga        -3.2616501341        7.4932663070        2.5959036422
  N        -3.2394350731        5.6077718975        3.1882381319
 Ga        -3.2392593964        5.6085099852        5.1993466402
  N        -3.2335404198        7.4779909627        5.8087400972
 Ga        -3.2347959136        7.4778614326        7.8082230170
  N        -3.2389722904        5.6075923980        8.4145168835
 Ga        -3.2386539415        5.6091637477       10.4122816413
  N        -3.2372501264        7.4827779409       11.0125704038
 Ga        -3.2376218886        7.4866430724       13.0082560842
  N        -3.2362952666        5.6074585152       13.5871403474
 Ga        -3.2363690111        5.6137858482       15.5774022736
  N        -3.2464482533        7.4819441026       16.1554972010
 Ga        -3.2520425291        7.4886045701       18.2021445230
  N        -3.2548344302        5.6133130575       18.6118504905
 Ga         3.2460961601       -0.0038432515        0.2825699143
  N         3.2454423661        1.8671811492        0.5656746035
 Ga         3.2722677969        1.8819041052        2.5981341437
  N         3.2452545872       -0.0037173170        3.1877199045
 Ga         3.2455282032       -0.0030963755        5.1987157716
  N         3.2461158991        1.8670762874        5.8071339107
 Ga         3.2468618015        1.8669994170        7.8064240189
  N         3.2459251116       -0.0032456195        8.4120875516
 Ga         3.2454876555       -0.0016834762       10.4089535253
  N         3.2471984423        1.8698233727       11.0136646712
 Ga         3.2429376257        1.8701198086       13.0104190589
  N         3.2445716516       -0.0008380514       13.6172902373
 Ga         3.2426249508       -0.0020844611       15.6172258950
  N         3.2422796749        1.8802492493       16.1844288147
 Ga         3.2449302091        1.8659222134       18.2423774614
  N         3.2350616241       -0.0159641832       18.5949950465
 Ga         1.6250803205        2.8031008222        0.2825622553
  N         1.6328621140        4.6726898745        0.5658872598
 Ga         1.6043850797        4.6878374868        2.5960416751
  N         1.6256198578        2.8020353968        3.1877676352
 Ga         1.6261364561        2.8026552390        5.1988737351
  N         1.6319458891        4.6728864182        5.8074082127
 Ga         1.6305059850        4.6731852271        7.8066865544
  N         1.6260616525        2.8022781790        8.4107317199
 Ga         1.6256428354        2.8034640380       10.4070227100
  N         1.6245341505        4.6749303347       11.0126533571
 Ga         1.6196186148        4.6748592451       13.0090560271
  N         1.6216536220        2.8048666256       13.6192391833
 Ga         1.6204072163        2.7983996980       15.6298939842
  N         1.6381428695        4.6758274634       16.2162366932
 Ga         1.6468115690        4.6614517663       18.3738555632
  N         1.6212404194        2.7480181338       18.6612371217
 Ga         0.0066520886        5.6087900810       -0.5862148831
  N         0.0095080642        7.4831395964        0.5660386848
 Ga         0.0089702334        7.4505923161        2.5960778012
  N         0.0060546339        5.6071811853        3.2286606121
 Ga         0.0065936866        5.6081961627        5.2195283606
  N         0.0094131752        7.4829879031        5.8066743406
 Ga         0.0088924047        7.4813192340        7.8056287708
  N         0.0060420678        5.6083701107        8.4065871358
 Ga         0.0059209662        5.6109630270       10.4038000758
  N         0.0090920439        7.4809392502       11.0162700629
 Ga         0.0080249963        7.4828267746       13.0147515655
  N         0.0046851429        5.6165021367       13.6412456803
 Ga         0.0047743139        5.6237405607       15.6568571192
  N         0.0043768521        7.5088449079       16.2040005427
 Ga         0.0160223052        7.4968618654       18.2577161385
  N        -0.0204082869        5.6148116154       18.5805631083
 Ga         6.4910931024       -0.0033168540        0.2825210852
  N         6.4970671085        1.8677746831        0.5656717490
 Ga         6.4699669845        1.8821179102        2.5981157681
  N         6.4915543859       -0.0036637552        3.1876403642
 Ga         6.4921578367       -0.0030764991        5.1986443162
  N         6.4972258216        1.8670966486        5.8069380957
 Ga         6.4955484545        1.8670621111        7.8060621655
  N         6.4907463120       -0.0031747658        8.4114570682
 Ga         6.4910339523       -0.0016545822       10.4080239775
  N         6.4962181197        1.8693843121       11.0141979265
 Ga         6.4998845523        1.8690078126       13.0103298925
  N         6.4880324883       -0.0000384306       13.6228488060
 Ga         6.4822480426        0.0023873492       15.6234647480
  N         6.5154744426        1.8736213597       16.2128616047
 Ga         6.5230705924        1.8838147386       18.2859058971
  N         6.5037350472       -0.0095246817       18.6141339954
 Ga         4.8718816336        2.8031233823       -0.5658877549
  N         4.8748680087        4.6764323215        0.5657817428
 Ga         4.8743598469        4.6458577847        2.5981378663
  N         4.8713722124        2.8019999307        3.2294740383
 Ga         4.8719348763        2.8029366309        5.2208596362
  N         4.8747777701        4.6774445853        5.8093922894
 Ga         4.8743779588        4.6752225980        7.8097417002
  N         4.8715937467        2.8007621077        8.4088197840
 Ga         4.8719418082        2.8004497057       10.4070482999
  N         4.8747613619        4.6710558316       11.0098167253
 Ga         4.8750334408        4.6672851539       13.0040685697
  N         4.8730320906        2.7909209500       13.6106613276
 Ga         4.8760260366        2.7802332868       15.6098524454
  N         4.8796361990        4.6716090708       16.1081031661
 Ga         4.9017891803        4.6743069108       18.1420047473
  N         4.8711888886        2.8057911199       18.5788567602
 Ga         3.2519757264        5.6080278344        0.2821660074
  N         3.2512160046        7.4776985838        0.5652992060
 Ga         3.2794786977        7.4930493085        2.5958953187
  N         3.2518900582        5.6076531322        3.1882207303
 Ga         3.2525848208        5.6084411557        5.1993740046
  N         3.2524018877        7.4780185883        5.8086177931
 Ga         3.2528082760        7.4777933996        7.8080969997
  N         3.2515083353        5.6074872935        8.4147437786
 Ga         3.2512313044        5.6091193419       10.4129038715
  N         3.2544625876        7.4831910010       11.0136851983
 Ga         3.2525476122        7.4857969339       13.0095288698
  N         3.2489610517        5.6064610214       13.5897343291
 Ga         3.2466189423        5.6113419612       15.5845677973
  N         3.2589510248        7.4856551335       16.1478683882
 Ga         3.2825229321        7.5235052020       18.1872282160
  N         3.2975589094        5.6428268652       18.4695380382
  O         1.7724867329        4.6707468326       20.5797048799
  H         1.3074613311        5.5479477866       20.7043170432
  H         1.0203700422        4.0221544959       20.6919747537
     147
 i =        3, E =     -6105.6718350219
 Ga         0.0005223998       -0.0025991106       -0.5862945101
  N         0.0033780973        1.8712145353        0.5656121334
 Ga         0.0028988238        1.8391508101        2.5963625420
  N        -0.0000980402       -0.0036521426        3.2296662769
 Ga         0.0004217091       -0.0031198531        5.2208796306
  N         0.0032708298        1.8718396191        5.8068910888
 Ga         0.0029122882        1.8704601739        7.8059160017
  N        -0.0001363613       -0.0027409977        8.4085995209
 Ga        -0.0008211426       -0.0009520543       10.4066424735
  N         0.0022829686        1.8712197789       11.0109584171
 Ga         0.0034713531        1.8773221024       13.0046740836
  N        -0.0028208088        0.0053545906       13.5949618578
 Ga        -0.0014107753        0.0113981816       15.5911117491
  N        -0.0029352529        1.8690944099       16.2363630471
 Ga        -0.0205514344        1.8707065554       18.3206083723
  N        -0.0000759507       -0.0018434281       18.6721447090
 Ga        -1.6184406254        2.8025130390        0.2830113477
  N        -1.6209464960        4.6721743728        0.5658055817
 Ga        -1.5926155154        4.6878020497        2.5961185810
  N        -1.6194756109        2.8019152952        3.1873859762
 Ga        -1.6190185603        2.8026748447        5.1986722889
  N        -1.6193866567        4.6728818104        5.8068770473
 Ga        -1.6186297270        4.6734692607        7.8060406971
  N        -1.6199174550        2.8025698449        8.4100825261
 Ga        -1.6190775569        2.8042159608       10.4056615923
  N        -1.6127030553        4.6748597584       11.0132751740
 Ga        -1.6059862880        4.6778152476       13.0090556176
  N        -1.6187434886        2.8068960511       13.6184769058
 Ga        -1.6173559428        2.8017589208       15.6207349903
  N        -1.6238177098        4.6785678881       16.1879510032
 Ga        -1.6301657852        4.6779509187       18.2497309474
  N        -1.6178328432        2.8281822010       18.7621319697
 Ga        -3.2392300221        5.6085834304        0.2825853234
  N        -3.2334486619        7.4784180393        0.5653715026
 Ga        -3.2617294185        7.4933501495        2.5961515592
  N        -3.2395301109        5.6077474523        3.1879752013
 Ga        -3.2393230574        5.6085358942        5.1993126526
  N        -3.2335603455        7.4780819063        5.8083778776
 Ga        -3.2348500171        7.4779912251        7.8080495839
  N        -3.2389046712        5.6075926086        8.4142638562
 Ga        -3.2384576901        5.6087332633       10.4120774183
  N        -3.2373906731        7.4826952541       11.0083987655
 Ga        -3.2382194546        7.4861746011       13.0022956187
  N        -3.2355999790        5.6086272315       13.5806281070
 Ga        -3.2360563211        5.6146185988       15.5690611466
  N        -3.2483938856        7.4812256464       16.1642670348
 Ga        -3.2547209502        7.4854676493       18.2159401391
  N        -3.2538838557        5.6063994283       18.6201528584
 Ga         3.2460482179       -0.0039347662        0.2830181808
  N         3.2452929344        1.8670402761        0.5657940473
 Ga         3.2725759083        1.8820932613        2.5980534749
  N         3.2452469007       -0.0035998360        3.1874566889
 Ga         3.2454920794       -0.0030041585        5.1986950192
  N         3.2460287339        1.8671757307        5.8068634315
 Ga         3.2466731152        1.8671354294        7.8062512190
  N         3.2459816326       -0.0031860283        8.4121225763
 Ga         3.2457628777       -0.0015046045       10.4090551012
  N         3.2470862368        1.8702415039       11.0125569406
 Ga         3.2423885060        1.8712211387       13.0089447690
  N         3.2428016425       -0.0013624328       13.6101004118
 Ga         3.2390243909       -0.0039157967       15.6069267549
  N         3.2508521904        1.8785063881       16.1712328196
 Ga         3.2383618666        1.8619680181       18.2265398296
  N         3.2381973302       -0.0191767404       18.5987431658
 Ga         1.6250620781        2.8030098810        0.2829392079
  N         1.6328018241        4.6726805419        0.5660835872
 Ga         1.6043292128        4.6879100267        2.5963712260
  N         1.6257131418        2.8019312119        3.1874631744
 Ga         1.6261401238        2.8027077959        5.1987354017
  N         1.6319679141        4.6728774950        5.8071478961
 Ga         1.6304423694        4.6733126332        7.8065305238
  N         1.6259402067        2.8024213626        8.4108423398
 Ga         1.6254999326        2.8041070174       10.4071781447
  N         1.6244884895        4.6750406764       11.0137621313
 Ga         1.6199152381        4.6750835333       13.0103270829
  N         1.6223938192        2.8053918220       13.6225098885
 Ga         1.6217567924        2.7998758779       15.6348178268
  N         1.6402440149        4.6704839996       16.2197187399
 Ga         1.6515045526        4.6627748105       18.3872058230
  N         1.6155803292        2.7486570442       18.6346588640
 Ga         0.0066515654        5.6086746313       -0.5871633894
  N         0.0095136807        7.4830058090        0.5661740257
 Ga         0.0089896989        7.4504880525        2.5963511107
  N         0.0060645800        5.6071889438        3.2288907988
 Ga         0.0065999841        5.6082010324        5.2197923348
  N         0.0094045379        7.4831172304        5.8062563429
 Ga         0.0088755601        7.4813469548        7.8053126320
  N         0.0060362986        5.6084883594        8.4066970180
 Ga         0.0064069590        5.6107250907       10.4038669623
  N         0.0089725641        7.4805006804       11.0159137378
 Ga         0.0077668031        7.4808728548       13.0141970155
  N         0.0066332808        5.6163334875       13.6482083123
 Ga         0.0107087786        5.6200401006       15.6662378515
  N         0.0053333477        7.5154042732       16.1911130983
 Ga         0.0175266557        7.4942415760       18.2379911147
  N        -0.0139928904        5.6143787661       18.5761048104
 Ga         6.4911147856       -0.0033942809        0.2830415261
  N         6.4972062901        1.8676633227        0.5657855152
 Ga         6.4696887585        1.8822824903        2.5979938612
  N         6.4915973562       -0.0035587657        3.1873233002
 Ga         6.4921648638       -0.0030327641        5.1985550272
  N         6.4972215412        1.8671557797        5.8065042677
 Ga         6.4956489615        1.8670642231        7.8056986406
  N         6.4906888224       -0.0031987132        8.4117103550
 Ga         6.4909573443       -0.0023352739       10.4082687633
  N         6.4965222788        1.8695210400       11.0099663014
 Ga         6.5004839638        1.8703095437       13.0038938628
  N         6.4869824545        0.0023571169       13.6144124676
 Ga         6.4830521215        0.0044971475       15.6108608684
  N         6.5190665023        1.8720437736       16.2214475355
 Ga         6.5212252042        1.8850648515       18.3028153815
  N         6.5016475195       -0.0118350411       18.6268861385
 Ga         4.8718811118        2.8031385695       -0.5677228382
  N         4.8748769606        4.6765341739        0.5659992354
 Ga         4.8743585641        4.6455689221        2.5981443954
  N         4.8713829914        2.8019573247        3.2296894733
 Ga         4.8718751799        2.8029680541        5.2209594152
  N         4.8747589141        4.6775333571        5.8089485023
 Ga         4.8743081774        4.6754990035        7.8093814103
  N         4.8716198513        2.8008410871        8.4084257987
 Ga         4.8716534999        2.8009699505       10.4066261616
  N         4.8745583337        4.6715502640       11.0091436273
 Ga         4.8743412383        4.6687315874       13.0034657071
  N         4.8748505179        2.7909021889       13.6038146230
 Ga         4.8792521929        2.7798624306       15.6006117353
  N         4.8840291101        4.6698209460       16.0953357566
 Ga         4.9089866873        4.6683958735       18.1283128902
  N         4.8630838856        2.8052643540       18.5872525556
 Ga         3.2519785871        5.6079560730        0.2826932577
  N         3.2514560438        7.4777805907        0.5652949115
 Ga         3.2796228213        7.4931350634        2.5961176495
  N         3.2520005926        5.6076845244        3.1880232369
 Ga         3.2525539947        5.6084777896        5.1994117835
  N         3.2523704153        7.4781003978        5.8081864102
 Ga         3.2527579680        7.4778561072        7.8077434842
  N         3.2513935988        5.6075991685        8.4145198774
 Ga         3.2506472719        5.6087892446       10.4126918548
  N         3.2543480492        7.4825132076       11.0135940166
 Ga         3.2519077165        7.4827192742       13.0096766039
  N         3.2478991043        5.6043182894       13.5938036994
 Ga         3.2448078928        5.6100005755       15.5916878361
  N         3.2558126963        7.4905490802       16.1333758807
 Ga         3.2791972406        7.5282135355       18.1699208892
  N         3.2998667315        5.6425251773       18.4219680024
  O         1.7436859081        4.6850273107       20.6800965630
  H         1.3051750922        5.5582109350       20.7779485213
  H         1.0360162061        4.0122037164       20.7635709971
     147
 i =        4, E =     -6105.6746900471
 Ga         0.0005457224       -0.0027067825       -0.5850842345
  N         0.0034109790        1.8708132066        0.5657693000
 Ga         0.0029396863        1.8390821992        2.5967583892
  N        -0.0001138405       -0.0035994489        3.2298082540
 Ga         0.0004179565       -0.0030270856        5.2210783184
  N         0.0033294048        1.8720147424        5.8064191414
 Ga         0.0030902805        1.8707339557        7.8054546198
  N        -0.0007121186       -0.0023829502        8.4079527490
 Ga        -0.0018829732       -0.0004579559       10.4060193475
  N         0.0027580256        1.8720431970       11.0102247661
 Ga         0.0063657191        1.8770717239       13.0032845181
  N        -0.0006578765        0.0017749992       13.5808880320
 Ga        -0.0019929107        0.0074893692       15.5728117653
  N        -0.0071198334        1.8572540740       16.2215094686
 Ga        -0.0178114816        1.8672127743       18.2977129696
  N        -0.0104524891       -0.0030620293       18.6690889379
 Ga        -1.6183091342        2.8024350442        0.2834303954