 DBCSR| Multiplication driver                                               BLAS
 DBCSR| Multrec recursion limit                                              512
 DBCSR| Multiplication stack size                                           1000
 DBCSR| Maximum elements for images                                    UNLIMITED
 DBCSR| Multiplicative factor virtual images                                   1
 DBCSR| Multiplication size stacks                                             3
 DBCSR| Number of 3D layers                                               SINGLE
 DBCSR| Use MPI memory allocation                                              T
 DBCSR| Use RMA algorithm                                                      F
 DBCSR| Use Communication thread                                               T
 DBCSR| Communication thread load                                             87


  **** **** ******  **  PROGRAM STARTED AT               2019-06-30 00:11:20.880
 ***** ** ***  *** **   PROGRAM STARTED ON        blg4113.int.ets1.calculquebec.
 **    ****   ******    PROGRAM STARTED BY                                   rzk
 ***** **    ** ** **   PROGRAM PROCESS ID                                454382
  **** **  *******  **  PROGRAM STARTED IN /scratch/rzk/rzk/GaN-carbene/443-adat
                                           oms-both-2x2/04-2Methanol/01-CombineA
                                           sIs

 CP2K| version string:                    CP2K version 7.0 (Development Version)
 CP2K| source code revision number:                                    svn:18619
 CP2K| cp2kflags: libint fftw3 libxc parallel mpi3 scalapack mkl                
 CP2K| is freely available from                            https://www.cp2k.org/
 CP2K| Program compiled at                          Sun Apr  7 00:48:11 EDT 2019
 CP2K| Program compiled on                      beluga2.int.ets1.calculquebec.ca
 CP2K| Program compiled for                    Beluga-Linux-x86-64-intel-openmpi
 CP2K| Data directory path    /home/rzk/projects/def-rzk/group/cp2k/cp2k-mcgill/
 CP2K| Input file name                                              start.01.inp
 
 GLOBAL| Force Environment number                                              1
 GLOBAL| Basis set file name                                        BASIS_MOLOPT
 GLOBAL| Potential file name                                      GTH_POTENTIALS
 GLOBAL| MM Potential file name                                     MM_POTENTIAL
 GLOBAL| Coordinate file name                                      __STD_INPUT__
 GLOBAL| Method name                                                        CP2K
 GLOBAL| Project name                                                       TEST
 GLOBAL| Preferred FFT library                                             FFTW3
 GLOBAL| Preferred diagonalization lib.                                       SL
 GLOBAL| Run type                                                        GEO_OPT
 GLOBAL| All-to-all communication in single precision                          F
 GLOBAL| FFTs using library dependent lengths                                  F
 GLOBAL| Global print level                                               MEDIUM
 GLOBAL| MPI I/O enabled                                                       T
 GLOBAL| Total number of message passing processes                            80
 GLOBAL| Number of threads for this process                                    1
 GLOBAL| This output is from process                                           0
 GLOBAL| CPU model name :  Intel(R) Xeon(R) Gold 6148 CPU @ 2.40GHz

 MEMORY| system memory details [Kb]
 MEMORY|                        rank 0           min           max       average
 MEMORY| MemTotal            196614300     196614300     196614300     196614300
 MEMORY| MemFree             178565724     158861720     178570296     168731810
 MEMORY| Buffers                     0             0            76            38
 MEMORY| Cached                1237592       1227828       1241276       1232895
 MEMORY| Slab                  1011596       1011572       1566776       1289184
 MEMORY| SReclaimable           153392        153392        173192        163292
 MEMORY| MemLikelyFree       179956708     160262816     179961136     170128036


 *** Fundamental physical constants (SI units) ***

 *** Literature: B. J. Mohr and B. N. Taylor,
 ***             CODATA recommended values of the fundamental physical
 ***             constants: 2006, Web Version 5.1
 ***             http://physics.nist.gov/constants

 Speed of light in vacuum [m/s]                             2.99792458000000E+08
 Magnetic constant or permeability of vacuum [N/A**2]       1.25663706143592E-06
 Electric constant or permittivity of vacuum [F/m]          8.85418781762039E-12
 Planck constant (h) [J*s]                                  6.62606896000000E-34
 Planck constant (h-bar) [J*s]                              1.05457162825177E-34
 Elementary charge [C]                                      1.60217648700000E-19
 Electron mass [kg]                                         9.10938215000000E-31
 Electron g factor [ ]                                     -2.00231930436220E+00
 Proton mass [kg]                                           1.67262163700000E-27
 Fine-structure constant                                    7.29735253760000E-03
 Rydberg constant [1/m]                                     1.09737315685270E+07
 Avogadro constant [1/mol]                                  6.02214179000000E+23
 Boltzmann constant [J/K]                                   1.38065040000000E-23
 Atomic mass unit [kg]                                      1.66053878200000E-27
 Bohr radius [m]                                            5.29177208590000E-11

 *** Conversion factors ***

 [u] -> [a.u.]                                              1.82288848426455E+03
 [Angstrom] -> [Bohr] = [a.u.]                              1.88972613288564E+00
 [a.u.] = [Bohr] -> [Angstrom]                              5.29177208590000E-01
 [a.u.] -> [s]                                              2.41888432650478E-17
 [a.u.] -> [fs]                                             2.41888432650478E-02
 [a.u.] -> [J]                                              4.35974393937059E-18
 [a.u.] -> [N]                                              8.23872205491840E-08
 [a.u.] -> [K]                                              3.15774647902944E+05
 [a.u.] -> [kJ/mol]                                         2.62549961709828E+03
 [a.u.] -> [kcal/mol]                                       6.27509468713739E+02
 [a.u.] -> [Pa]                                             2.94210107994716E+13
 [a.u.] -> [bar]                                            2.94210107994716E+08
 [a.u.] -> [atm]                                            2.90362800883016E+08
 [a.u.] -> [eV]                                             2.72113838565563E+01
 [a.u.] -> [Hz]                                             6.57968392072181E+15
 [a.u.] -> [1/cm] (wave numbers)                            2.19474631370540E+05
 [a.u./Bohr**2] -> [1/cm]                                   5.14048714338585E+03
 

 CELL_TOP| Volume [angstrom^3]:                                         4586.323
 CELL_TOP| Vector a [angstrom    12.864     0.000     0.000    |a| =      12.864
 CELL_TOP| Vector b [angstrom    -6.432    11.141     0.000    |b| =      12.864
 CELL_TOP| Vector c [angstrom     0.000     0.000    32.000    |c| =      32.000
 CELL_TOP| Angle (b,c), alpha [degree]:                                   90.000
 CELL_TOP| Angle (a,c), beta  [degree]:                                   90.000
 CELL_TOP| Angle (a,b), gamma [degree]:                                  120.000
 CELL_TOP| Numerically orthorhombic:                                          NO
 
 GENERATE|  Preliminary Number of Bonds generated:                             0
 GENERATE|  Achieved consistency in connectivity generation.

 CELL| Volume [angstrom^3]:                                             4586.323
 CELL| Vector a [angstrom]:      12.864     0.000     0.000    |a| =      12.864
 CELL| Vector b [angstrom]:      -6.432    11.141     0.000    |b| =      12.864
 CELL| Vector c [angstrom]:       0.000     0.000    32.000    |c| =      32.000
 CELL| Angle (b,c), alpha [degree]:                                       90.000
 CELL| Angle (a,c), beta  [degree]:                                       90.000
 CELL| Angle (a,b), gamma [degree]:                                      120.000
 CELL| Numerically orthorhombic:                                              NO

 CELL_REF| Volume [angstrom^3]:                                         4670.759
 CELL_REF| Vector a [angstrom    12.982     0.000     0.000    |a| =      12.982
 CELL_REF| Vector b [angstrom    -6.491    11.243     0.000    |b| =      12.982
 CELL_REF| Vector c [angstrom     0.000     0.000    32.000    |c| =      32.000
 CELL_REF| Angle (b,c), alpha [degree]:                                   90.000
 CELL_REF| Angle (a,c), beta  [degree]:                                   90.000
 CELL_REF| Angle (a,b), gamma [degree]:                                  120.000
 CELL_REF| Numerically orthorhombic:                                          NO

 *******************************************************************************
 *******************************************************************************
 **                                                                           **
 **     #####                         ##              ##                      **
 **    ##   ##            ##          ##              ##                      **
 **   ##     ##                       ##            ######                    **
 **   ##     ##  ##   ##  ##   #####  ##  ##   ####   ##    #####    #####    **
 **   ##     ##  ##   ##  ##  ##      ## ##   ##      ##   ##   ##  ##   ##   **
 **   ##  ## ##  ##   ##  ##  ##      ####     ###    ##   ######   ######    **
 **    ##  ###   ##   ##  ##  ##      ## ##      ##   ##   ##       ##        **
 **     #######   #####   ##   #####  ##  ##  ####    ##    #####   ##        **
 **           ##                                                    ##        **
 **                                                                           **
 **                                                ... make the atoms dance   **
 **                                                                           **
 **            Copyright (C) by CP2K developers group (2000 - 2018)           **
 **                                                                           **
 *******************************************************************************

 DFT| Spin unrestricted (spin-polarized) Kohn-Sham calculation               UKS
 DFT| Multiplicity                                                             1
 DFT| Number of spin states                                                    2
 DFT| Charge                                                                   0
 DFT| Self-interaction correction (SIC)                                       NO
 DFT| Cutoffs: density                                              1.000000E-10
 DFT|          gradient                                             1.000000E-10
 DFT|          tau                                                  1.000000E-10
 DFT|          cutoff_smoothing_range                               0.000000E+00
 DFT| XC density smoothing                                                  NONE
 DFT| XC derivatives                                                          PW
 FUNCTIONAL| ROUTINE=NEW
 FUNCTIONAL| PBE:
 FUNCTIONAL| J.P.Perdew, K.Burke, M.Ernzerhof, Phys. Rev. Letter, vol. 77, n 18,
 FUNCTIONAL|  pp. 3865-3868, (1996){spin polarized}                             
 vdW POTENTIAL|                                                   Pair Potential
 vdW POTENTIAL|          DFT-D3 (Version 3.1)
 vdW POTENTIAL|          Potential Form: S. Grimme et al, JCP 132: 154104 (2010)
 vdW POTENTIAL|          Zero Damping
 vdW POTENTIAL|          Cutoff Radius [Bohr]:                             18.90
 vdW POTENTIAL|          s6 Scaling Factor:                               1.0000
 vdW POTENTIAL|          sr6 Scaling Factor:                              1.2170
 vdW POTENTIAL|          s8 Scaling Factor:                               0.7220
 vdW POTENTIAL|          Cutoff for CN calculation:                   0.1000E-05

 QS| Method:                                                                 GPW
 QS| Density plane wave grid type                        NON-SPHERICAL FULLSPACE
 QS| Number of grid levels:                                                    5
 QS| Density cutoff [a.u.]:                                                600.0
 QS| Multi grid cutoff [a.u.]: 1) grid level                               600.0
 QS|                           2) grid level                               200.0
 QS|                           3) grid level                                66.7
 QS|                           4) grid level                                22.2
 QS|                           5) grid level                                 7.4
 QS| Grid level progression factor:                                          3.0
 QS| Relative density cutoff [a.u.]:                                        20.0
 QS| Consistent realspace mapping and integration 
 QS| Interaction thresholds: eps_pgf_orb:                                1.0E-07
 QS|                         eps_filter_matrix:                          0.0E+00
 QS|                         eps_core_charge:                            1.0E-16
 QS|                         eps_rho_gspace:                             1.0E-14
 QS|                         eps_rho_rspace:                             1.0E-14
 QS|                         eps_gvg_rspace:                             1.0E-07
 QS|                         eps_ppl:                                    1.0E-02
 QS|                         eps_ppnl:                                   1.0E-09


 ATOMIC KIND INFORMATION

  1. Atomic kind: N                                     Number of atoms:     100

     Orbital Basis Set                                        DZVP-MOLOPT-SR-GTH

       Number of orbital shell sets:                                           1
       Number of orbital shells:                                               5
       Number of primitive Cartesian functions:                                5
       Number of Cartesian basis functions:                                   14
       Number of spherical basis functions:                                   13
       Norm type:                                                              2

       Normalised Cartesian orbitals:

                        Set   Shell   Orbital            Exponent    Coefficient

                          1       1    2s                7.341988       0.360561
                                                         2.542637       0.139177
                                                         0.888575      -0.289383
                                                         0.333802      -0.182244
                                                         0.112012      -0.019197

                          1       2    3s                7.341988       0.282000
                                                         2.542637       0.177875
                                                         0.888575      -0.278381
                                                         0.333802       0.008577
                                                         0.112012       0.154176

                          1       3    3px               7.341988      -1.188719
                                                         2.542637      -0.973969
                                                         0.888575      -0.501079
                                                         0.333802      -0.144894
                                                         0.112012      -0.013986
                          1       3    3py               7.341988      -1.188719
                                                         2.542637      -0.973969
                                                         0.888575      -0.501079
                                                         0.333802      -0.144894
                                                         0.112012      -0.013986
                          1       3    3pz               7.341988      -1.188719
                                                         2.542637      -0.973969
                                                         0.888575      -0.501079
                                                         0.333802      -0.144894
                                                         0.112012      -0.013986

                          1       4    4px               7.341988      -0.094798
                                                         2.542637       0.050069
                                                         0.888575      -0.114797
                                                         0.333802       0.144793
                                                         0.112012       0.066710
                          1       4    4py               7.341988      -0.094798
                                                         2.542637       0.050069
                                                         0.888575      -0.114797
                                                         0.333802       0.144793
                                                         0.112012       0.066710
                          1       4    4pz               7.341988      -0.094798
                                                         2.542637       0.050069
                                                         0.888575      -0.114797
                                                         0.333802       0.144793
                                                         0.112012       0.066710

                          1       5    4dx2              7.341988       1.354688
                                                         2.542637       0.690378
                                                         0.888575       0.855359
                                                         0.333802       0.091746
                                                         0.112012       0.001253
                          1       5    4dxy              7.341988       2.346389
                                                         2.542637       1.195770
                                                         0.888575       1.481524
                                                         0.333802       0.158910
                                                         0.112012       0.002169
                          1       5    4dxz              7.341988       2.346389
                                                         2.542637       1.195770
                                                         0.888575       1.481524
                                                         0.333802       0.158910
                                                         0.112012       0.002169
                          1       5    4dy2              7.341988       1.354688
                                                         2.542637       0.690378
                                                         0.888575       0.855359
                                                         0.333802       0.091746
                                                         0.112012       0.001253
                          1       5    4dyz              7.341988       2.346389
                                                         2.542637       1.195770
                                                         0.888575       1.481524
                                                         0.333802       0.158910
                                                         0.112012       0.002169
                          1       5    4dz2              7.341988       1.354688
                                                         2.542637       0.690378
                                                         0.888575       0.855359
                                                         0.333802       0.091746
                                                         0.112012       0.001253

     GTH Potential information for                                    GTH-PBE-q5

       Description:                       Goedecker-Teter-Hutter pseudopotential
                                           Goedecker et al., PRB 54, 1703 (1996)
                                          Hartwigsen et al., PRB 58, 3641 (1998)
                                                      Krack, TCA 114, 145 (2005)

       Gaussian exponent of the core charge distribution:               6.208322
       Electronic configuration (s p d ...):                               2   3

       Parameters of the local part of the GTH pseudopotential:

                          rloc        C1          C2          C3          C4
                        0.283791  -12.415226    1.868096

       Parameters of the non-local part of the GTH pseudopotential:

                   l      r(l)      h(i,j,l)

                   0    0.255405   13.630263
                   1    0.245495

  2. Atomic kind: Ga                                    Number of atoms:     100

     Orbital Basis Set                                        DZVP-MOLOPT-SR-GTH

       Number of orbital shell sets:                                           1
       Number of orbital shells:                                               7
       Number of primitive Cartesian functions:                                6
       Number of Cartesian basis functions:                                   30
       Number of spherical basis functions:                                   25
       Norm type:                                                              2

       Normalised Cartesian orbitals:

                        Set   Shell   Orbital            Exponent    Coefficient

                          1       1    2s                7.066654       0.013136
                                                         3.428369      -0.094392
                                                         1.430064       0.265435
                                                         0.571611       0.056465
                                                         0.232197      -0.192187
                                                         0.076562      -0.044987

                          1       2    3s                7.066654      -0.098564
                                                         3.428369       0.010390
                                                         1.430064       0.351249
                                                         0.571611       0.182615
                                                         0.232197      -0.425358
                                                         0.076562       0.190349

                          1       3    3px               7.066654       0.002364
                                                         3.428369       0.019222
                                                         1.430064       0.250132
                                                         0.571611      -0.058486
                                                         0.232197      -0.159451
                                                         0.076562      -0.020696
                          1       3    3py               7.066654       0.002364
                                                         3.428369       0.019222
                                                         1.430064       0.250132
                                                         0.571611      -0.058486
                                                         0.232197      -0.159451
                                                         0.076562      -0.020696
                          1       3    3pz               7.066654       0.002364
                                                         3.428369       0.019222
                                                         1.430064       0.250132
                                                         0.571611      -0.058486
                                                         0.232197      -0.159451
                                                         0.076562      -0.020696

                          1       4    4px               7.066654       0.492448
                                                         3.428369      -0.614736
                                                         1.430064      -0.191654
                                                         0.571611       0.037801
                                                         0.232197       0.302315
                                                         0.076562      -0.071336
                          1       4    4py               7.066654       0.492448
                                                         3.428369      -0.614736
                                                         1.430064      -0.191654
                                                         0.571611       0.037801
                                                         0.232197       0.302315
                                                         0.076562      -0.071336
                          1       4    4pz               7.066654       0.492448
                                                         3.428369      -0.614736
                                                         1.430064      -0.191654
                                                         0.571611       0.037801
                                                         0.232197       0.302315
                                                         0.076562      -0.071336

                          1       5    4dx2              7.066654     -15.264855
                                                         3.428369      -5.345726
                                                         1.430064      -1.022732
                                                         0.571611      -0.123148
                                                         0.232197      -0.006983
                                                         0.076562      -0.000022
                          1       5    4dxy              7.066654     -26.439504
                                                         3.428369      -9.259069
                                                         1.430064      -1.771423
                                                         0.571611      -0.213299
                                                         0.232197      -0.012094
                                                         0.076562      -0.000037
                          1       5    4dxz              7.066654     -26.439504
                                                         3.428369      -9.259069
                                                         1.430064      -1.771423
                                                         0.571611      -0.213299
                                                         0.232197      -0.012094
                                                         0.076562      -0.000037
                          1       5    4dy2              7.066654     -15.264855
                                                         3.428369      -5.345726
                                                         1.430064      -1.022732
                                                         0.571611      -0.123148
                                                         0.232197      -0.006983
                                                         0.076562      -0.000022
                          1       5    4dyz              7.066654     -26.439504
                                                         3.428369      -9.259069
                                                         1.430064      -1.771423
                                                         0.571611      -0.213299
                                                         0.232197      -0.012094
                                                         0.076562      -0.000037
                          1       5    4dz2              7.066654     -15.264855
                                                         3.428369      -5.345726
                                                         1.430064      -1.022732
                                                         0.571611      -0.123148
                                                         0.232197      -0.006983
                                                         0.076562      -0.000022

                          1       6    5dx2              7.066654      -5.739265
                                                         3.428369      -2.129289
                                                         1.430064      -0.700423
                                                         0.571611       0.161606
                                                         0.232197       0.043513
                                                         0.076562       0.011205
                          1       6    5dxy              7.066654      -9.940698
                                                         3.428369      -3.688037
                                                         1.430064      -1.213168
                                                         0.571611       0.279909
                                                         0.232197       0.075368
                                                         0.076562       0.019407
                          1       6    5dxz              7.066654      -9.940698
                                                         3.428369      -3.688037
                                                         1.430064      -1.213168
                                                         0.571611       0.279909
                                                         0.232197       0.075368
                                                         0.076562       0.019407
                          1       6    5dy2              7.066654      -5.739265
                                                         3.428369      -2.129289
                                                         1.430064      -0.700423
                                                         0.571611       0.161606
                                                         0.232197       0.043513
                                                         0.076562       0.011205
                          1       6    5dyz              7.066654      -9.940698
                                                         3.428369      -3.688037
                                                         1.430064      -1.213168
                                                         0.571611       0.279909
                                                         0.232197       0.075368
                                                         0.076562       0.019407
                          1       6    5dz2              7.066654      -5.739265
                                                         3.428369      -2.129289
                                                         1.430064      -0.700423
                                                         0.571611       0.161606
                                                         0.232197       0.043513
                                                         0.076562       0.011205

                          1       7    5fx3              7.066654       0.705879
                                                         3.428369      -0.273976
                                                         1.430064       0.113667
                                                         0.571611       0.132480
                                                         0.232197       0.012437
                                                         0.076562       0.003241
                          1       7    5fx2y             7.066654       1.578393
                                                         3.428369      -0.612629
                                                         1.430064       0.254167
                                                         0.571611       0.296234
                                                         0.232197       0.027811
                                                         0.076562       0.007246
                          1       7    5fx2z             7.066654       1.578393
                                                         3.428369      -0.612629
                                                         1.430064       0.254167
                                                         0.571611       0.296234
                                                         0.232197       0.027811
                                                         0.076562       0.007246
                          1       7    5fxy2             7.066654       1.578393
                                                         3.428369      -0.612629
                                                         1.430064       0.254167
                                                         0.571611       0.296234
                                                         0.232197       0.027811
                                                         0.076562       0.007246
                          1       7    5fxyz             7.066654       2.733856
                                                         3.428369      -1.061105
                                                         1.430064       0.440230
                                                         0.571611       0.513092
                                                         0.232197       0.048170
                                                         0.076562       0.012551
                          1       7    5fxz2             7.066654       1.578393
                                                         3.428369      -0.612629
                                                         1.430064       0.254167
                                                         0.571611       0.296234
                                                         0.232197       0.027811
                                                         0.076562       0.007246
                          1       7    5fy3              7.066654       0.705879
                                                         3.428369      -0.273976
                                                         1.430064       0.113667
                                                         0.571611       0.132480
                                                         0.232197       0.012437
                                                         0.076562       0.003241
                          1       7    5fy2z             7.066654       1.578393
                                                         3.428369      -0.612629
                                                         1.430064       0.254167
                                                         0.571611       0.296234
                                                         0.232197       0.027811
                                                         0.076562       0.007246
                          1       7    5fyz2             7.066654       1.578393
                                                         3.428369      -0.612629
                                                         1.430064       0.254167
                                                         0.571611       0.296234
                                                         0.232197       0.027811
                                                         0.076562       0.007246
                          1       7    5fz3              7.066654       0.705879
                                                         3.428369      -0.273976
                                                         1.430064       0.113667
                                                         0.571611       0.132480
                                                         0.232197       0.012437
                                                         0.076562       0.003241

     GTH Potential information for                                   GTH-PBE-q13

       Description:                       Goedecker-Teter-Hutter pseudopotential
                                           Goedecker et al., PRB 54, 1703 (1996)
                                          Hartwigsen et al., PRB 58, 3641 (1998)
                                                      Krack, TCA 114, 145 (2005)

       Gaussian exponent of the core charge distribution:               2.082466
       Electronic configuration (s p d ...):                           2   1  10

       Parameters of the local part of the GTH pseudopotential:

                          rloc        C1          C2          C3          C4
                        0.490000

       Parameters of the non-local part of the GTH pseudopotential:

                   l      r(l)      h(i,j,l)

                   0    0.416777   10.475690   -4.921768    0.870706
                                   -4.921768    7.770178   -2.248152
                                    0.870706   -2.248152    1.784415
                   1    0.569627    1.777985    0.195860
                                    0.195860   -0.231744
                   2    0.238126  -16.248680

  3. Atomic kind: O                                     Number of atoms:       2

     Orbital Basis Set                                     DZVP-MOLOPT-SR-GTH-q6

       Number of orbital shell sets:                                           1
       Number of orbital shells:                                               5
       Number of primitive Cartesian functions:                                5
       Number of Cartesian basis functions:                                   14
       Number of spherical basis functions:                                   13
       Norm type:                                                              2

       Normalised Cartesian orbitals:

                        Set   Shell   Orbital            Exponent    Coefficient

                          1       1    2s               10.389228       0.396646
                                                         3.849621       0.208811
                                                         1.388401      -0.301641
                                                         0.496955      -0.274061
                                                         0.162492      -0.033677

                          1       2    3s               10.389228       0.303673
                                                         3.849621       0.240943
                                                         1.388401      -0.313066
                                                         0.496955      -0.043055
                                                         0.162492       0.213991

                          1       3    3px              10.389228      -1.530415
                                                         3.849621      -1.371928
                                                         1.388401      -0.761951
                                                         0.496955      -0.253695
                                                         0.162492      -0.035541
                          1       3    3py              10.389228      -1.530415
                                                         3.849621      -1.371928
                                                         1.388401      -0.761951
                                                         0.496955      -0.253695
                                                         0.162492      -0.035541
                          1       3    3pz              10.389228      -1.530415
                                                         3.849621      -1.371928
                                                         1.388401      -0.761951
                                                         0.496955      -0.253695
                                                         0.162492      -0.035541

                          1       4    4px              10.389228      -0.565392
                                                         3.849621      -0.038231
                                                         1.388401      -0.382373
                                                         0.496955       0.179070
                                                         0.162492       0.122714
                          1       4    4py              10.389228      -0.565392
                                                         3.849621      -0.038231
                                                         1.388401      -0.382373
                                                         0.496955       0.179070
                                                         0.162492       0.122714
                          1       4    4pz              10.389228      -0.565392
                                                         3.849621      -0.038231
                                                         1.388401      -0.382373
                                                         0.496955       0.179070
                                                         0.162492       0.122714

                          1       5    4dx2             10.389228       1.867377
                                                         3.849621       0.670994
                                                         1.388401       1.353441
                                                         0.496955       0.273538
                                                         0.162492       0.006620
                          1       5    4dxy             10.389228       3.234392
                                                         3.849621       1.162195
                                                         1.388401       2.344229
                                                         0.496955       0.473781
                                                         0.162492       0.011466
                          1       5    4dxz             10.389228       3.234392
                                                         3.849621       1.162195
                                                         1.388401       2.344229
                                                         0.496955       0.473781
                                                         0.162492       0.011466
                          1       5    4dy2             10.389228       1.867377
                                                         3.849621       0.670994
                                                         1.388401       1.353441
                                                         0.496955       0.273538
                                                         0.162492       0.006620
                          1       5    4dyz             10.389228       3.234392
                                                         3.849621       1.162195
                                                         1.388401       2.344229
                                                         0.496955       0.473781
                                                         0.162492       0.011466
                          1       5    4dz2             10.389228       1.867377
                                                         3.849621       0.670994
                                                         1.388401       1.353441
                                                         0.496955       0.273538
                                                         0.162492       0.006620

     GTH Potential information for                                    GTH-PBE-q6

       Description:                       Goedecker-Teter-Hutter pseudopotential
                                           Goedecker et al., PRB 54, 1703 (1996)
                                          Hartwigsen et al., PRB 58, 3641 (1998)
                                                      Krack, TCA 114, 145 (2005)

       Gaussian exponent of the core charge distribution:               8.360253
       Electronic configuration (s p d ...):                               2   4

       Parameters of the local part of the GTH pseudopotential:

                          rloc        C1          C2          C3          C4
                        0.244554  -16.667215    2.487311

       Parameters of the non-local part of the GTH pseudopotential:

                   l      r(l)      h(i,j,l)

                   0    0.220956   18.337458
                   1    0.211332

  4. Atomic kind: H                                     Number of atoms:       8

     Orbital Basis Set                                     DZVP-MOLOPT-SR-GTH-q1

       Number of orbital shell sets:                                           1
       Number of orbital shells:                                               3
       Number of primitive Cartesian functions:                                5
       Number of Cartesian basis functions:                                    5
       Number of spherical basis functions:                                    5
       Norm type:                                                              2

       Normalised Cartesian orbitals:

                        Set   Shell   Orbital            Exponent    Coefficient

                          1       1    2s               10.068468      -0.133023
                                                         2.680223      -0.177618
                                                         0.791502      -0.258419
                                                         0.239116      -0.107525
                                                         0.082193      -0.014019

                          1       2    3s               10.068468       0.344673
                                                         2.680223       1.819821
                                                         0.791502      -0.999069
                                                         0.239116       0.017430
                                                         0.082193       0.082660

                          1       3    3px              10.068468       0.155326
                                                         2.680223       0.367157
                                                         0.791502       0.311480
                                                         0.239116       0.080105
                                                         0.082193       0.033440
                          1       3    3py              10.068468       0.155326
                                                         2.680223       0.367157
                                                         0.791502       0.311480
                                                         0.239116       0.080105
                                                         0.082193       0.033440
                          1       3    3pz              10.068468       0.155326
                                                         2.680223       0.367157
                                                         0.791502       0.311480
                                                         0.239116       0.080105
                                                         0.082193       0.033440

     GTH Potential information for                                    GTH-PBE-q1

       Description:                       Goedecker-Teter-Hutter pseudopotential
                                           Goedecker et al., PRB 54, 1703 (1996)
                                          Hartwigsen et al., PRB 58, 3641 (1998)
                                                      Krack, TCA 114, 145 (2005)

       Gaussian exponent of the core charge distribution:              12.500000
       Electronic configuration (s p d ...):                                   1

       Parameters of the local part of the GTH pseudopotential:

                          rloc        C1          C2          C3          C4
                        0.200000   -4.178900    0.724463

  5. Atomic kind: C                                     Number of atoms:       2

     Orbital Basis Set                                     DZVP-MOLOPT-SR-GTH-q4

       Number of orbital shell sets:                                           1
       Number of orbital shells:                                               5
       Number of primitive Cartesian functions:                                5
       Number of Cartesian basis functions:                                   14
       Number of spherical basis functions:                                   13
       Norm type:                                                              2

       Normalised Cartesian orbitals:

                        Set   Shell   Orbital            Exponent    Coefficient

                          1       1    2s                5.605331       0.322515
                                                         2.113016       0.213043
                                                         0.769911      -0.209686
                                                         0.348157      -0.219794
                                                         0.128212      -0.022789

                          1       2    3s                5.605331       0.552234
                                                         2.113016       0.082072
                                                         0.769911       0.007843
                                                         0.348157       0.136893
                                                         0.128212       0.074283

                          1       3    3px               5.605331      -0.703879
                                                         2.113016      -0.642521
                                                         0.769911      -0.374851
                                                         0.348157      -0.139743
                                                         0.128212      -0.027849
                          1       3    3py               5.605331      -0.703879
                                                         2.113016      -0.642521
                                                         0.769911      -0.374851
                                                         0.348157      -0.139743
                                                         0.128212      -0.027849
                          1       3    3pz               5.605331      -0.703879
                                                         2.113016      -0.642521
                                                         0.769911      -0.374851
                                                         0.348157      -0.139743
                                                         0.128212      -0.027849

                          1       4    4px               5.605331      -0.480376
                                                         2.113016      -0.552894
                                                         0.769911      -0.316145
                                                         0.348157       0.210505
                                                         0.128212       0.076095
                          1       4    4py               5.605331      -0.480376
                                                         2.113016      -0.552894
                                                         0.769911      -0.316145
                                                         0.348157       0.210505
                                                         0.128212       0.076095
                          1       4    4pz               5.605331      -0.480376
                                                         2.113016      -0.552894
                                                         0.769911      -0.316145
                                                         0.348157       0.210505
                                                         0.128212       0.076095

                          1       5    4dx2              5.605331       0.640026
                                                         2.113016       0.274300
                                                         0.769911       0.446711
                                                         0.348157       0.028674
                                                         0.128212       0.029790
                          1       5    4dxy              5.605331       1.108557
                                                         2.113016       0.475102
                                                         0.769911       0.773726
                                                         0.348157       0.049666
                                                         0.128212       0.051599
                          1       5    4dxz              5.605331       1.108557
                                                         2.113016       0.475102
                                                         0.769911       0.773726
                                                         0.348157       0.049666
                                                         0.128212       0.051599
                          1       5    4dy2              5.605331       0.640026
                                                         2.113016       0.274300
                                                         0.769911       0.446711
                                                         0.348157       0.028674
                                                         0.128212       0.029790
                          1       5    4dyz              5.605331       1.108557
                                                         2.113016       0.475102
                                                         0.769911       0.773726
                                                         0.348157       0.049666
                                                         0.128212       0.051599
                          1       5    4dz2              5.605331       0.640026
                                                         2.113016       0.274300
                                                         0.769911       0.446711
                                                         0.348157       0.028674
                                                         0.128212       0.029790

     GTH Potential information for                                    GTH-PBE-q4

       Description:                       Goedecker-Teter-Hutter pseudopotential
                                           Goedecker et al., PRB 54, 1703 (1996)
                                          Hartwigsen et al., PRB 58, 3641 (1998)
                                                      Krack, TCA 114, 145 (2005)

       Gaussian exponent of the core charge distribution:               4.364419
       Electronic configuration (s p d ...):                               2   2

       Parameters of the local part of the GTH pseudopotential:

                          rloc        C1          C2          C3          C4
                        0.338471   -8.803674    1.339211

       Parameters of the non-local part of the GTH pseudopotential:

                   l      r(l)      h(i,j,l)

                   0    0.302576    9.622487
                   1    0.291507


 MOLECULE KIND INFORMATION


 All atoms are their own molecule, skipping detailed information


 TOTAL NUMBERS AND MAXIMUM NUMBERS

  Total number of            - Atomic kinds:                                   5
                             - Atoms:                                        212
                             - Shell sets:                                   212
                             - Shells:                                      1244
                             - Primitive Cartesian functions:               1160
                             - Cartesian basis functions:                   4496
                             - Spherical basis functions:                   3892

  Maximum angular momentum of- Orbital basis functions:                        3
                             - Local part of the GTH pseudopotential:          2
                             - Non-local part of the GTH pseudopotential:      4


 MODULE QUICKSTEP:  ATOMIC COORDINATES IN angstrom

  Atom  Kind  Element       X           Y           Z          Z(eff)       Mass

       1     1 N    7    0.075873    1.977016    2.486174      5.00      14.0067
       2     2 Ga  31    0.057590    0.006283    2.819148     13.00      69.7230
       3     1 N    7    0.080899   -0.025702    5.012983      5.00      14.0067
       4     2 Ga  31    0.079018    1.799141    5.796028     13.00      69.7230
       5     1 N    7    0.079076    1.814368    7.798896      5.00      14.0067
       6     2 Ga  31    0.076272   -0.030662    8.441880     13.00      69.7230
       7     1 N    7    0.078706   -0.031102   10.418240      5.00      14.0067
       8     2 Ga  31    0.079207    1.808008   11.071005     13.00      69.7230
       9     1 N    7    0.080466    1.789695   13.065221      5.00      14.0067
      10     2 Ga  31    0.079479   -0.029040   13.877520     13.00      69.7230
      11     1 N    7    0.079428   -0.028848   16.068046      5.00      14.0067
      12     2 Ga  31    0.080214    2.021976   16.496437     13.00      69.7230
      13     2 Ga  31    0.042973    3.686772    1.364510     13.00      69.7230
      14     1 N    7   -1.410596    4.548473    2.527434      5.00      14.0067
      15     2 Ga  31   -1.603253    2.703384    3.278103     13.00      69.7230
      16     1 N    7   -1.531862    2.752993    5.256535      5.00      14.0067
      17     2 Ga  31   -1.559956    4.618122    5.805740     13.00      69.7230
      18     1 N    7   -1.540007    4.617860    7.801850      5.00      14.0067
      19     2 Ga  31   -1.520254    2.756440    8.433570     13.00      69.7230
      20     1 N    7   -1.517645    2.760338   10.430490      5.00      14.0067
      21     2 Ga  31   -1.542612    4.618281   11.068933     13.00      69.7230
      22     1 N    7   -1.557502    4.629154   13.061268      5.00      14.0067
      23     2 Ga  31   -1.515990    2.761065   13.623116     13.00      69.7230
      24     1 N    7   -1.550620    2.748845   15.581195      5.00      14.0067
      25     2 Ga  31   -1.344733    4.507977   16.498827     13.00      69.7230
      26     1 N    7    0.080482    3.674099   17.643589      5.00      14.0067
      27     1 N    7   -3.133391    7.519015    2.529655      5.00      14.0067
      28     2 Ga  31   -3.112169    5.514545    2.850915     13.00      69.7230
      29     1 N    7   -3.138374    5.541090    5.021983      5.00      14.0067
      30     2 Ga  31   -3.145733    7.361370    5.806733     13.00      69.7230
      31     1 N    7   -3.137056    7.386161    7.798613      5.00      14.0067
      32     2 Ga  31   -3.137748    5.539085    8.448224     13.00      69.7230
      33     1 N    7   -3.137192    5.540012   10.421748      5.00      14.0067
      34     2 Ga  31   -3.138136    7.380512   11.069368     13.00      69.7230
      35     1 N    7   -3.135349    7.361485   13.061828      5.00      14.0067
      36     2 Ga  31   -3.126099    5.543687   13.860396     13.00      69.7230
      37     1 N    7   -3.124592    5.545452   16.067771      5.00      14.0067
      38     2 Ga  31   -3.133558    7.598372   16.491102     13.00      69.7230
      39     2 Ga  31   -3.152228    9.253756    1.502282     13.00      69.7230
      40     1 N    7   -4.641334   10.122710    2.513776      5.00      14.0067
      41     2 Ga  31   -4.859901    8.272260    3.289153     13.00      69.7230
      42     1 N    7   -4.745501    8.326787    5.250305      5.00      14.0067
      43     2 Ga  31   -4.778043   10.201616    5.797243     13.00      69.7230
      44     1 N    7   -4.755493   10.187625    7.795680      5.00      14.0067
      45     2 Ga  31   -4.738694    8.332533    8.435325     13.00      69.7230
      46     1 N    7   -4.734397    8.331789   10.430086      5.00      14.0067
      47     2 Ga  31   -4.761525   10.191037   11.070973     13.00      69.7230
      48     1 N    7   -4.776160   10.200735   13.065583      5.00      14.0067
      49     2 Ga  31   -4.732539    8.331885   13.621262     13.00      69.7230
      50     1 N    7   -4.759164    8.308545   15.581308      5.00      14.0067
      51     2 Ga  31   -4.584733   10.090166   16.488989     13.00      69.7230
      52     1 N    7   -3.145418    9.260330   17.631372      5.00      14.0067
      53     1 N    7    3.282297    1.832298    2.615738      5.00      14.0067
      54     2 Ga  31    3.284537    0.093018    3.287027     13.00      69.7230
      55     1 N    7    3.294848   -0.033475    5.249657      5.00      14.0067
      56     2 Ga  31    3.285761    1.828532    5.872309     13.00      69.7230
      57     1 N    7    3.294877    1.824663    7.850050      5.00      14.0067
      58     2 Ga  31    3.292164   -0.041443    8.437648     13.00      69.7230
      59     1 N    7    3.294624   -0.043079   10.431945      5.00      14.0067
      60     2 Ga  31    3.294866    1.826339   11.027115     13.00      69.7230
      61     1 N    7    3.298836    1.827763   13.000782      5.00      14.0067
      62     2 Ga  31    3.296522   -0.043563   13.621675     13.00      69.7230
      63     1 N    7    3.303273   -0.007947   15.582021      5.00      14.0067
      64     2 Ga  31    3.295675    1.826793   15.861138     13.00      69.7230
      65     1 N    7    1.565996    4.549774    2.515504      5.00      14.0067
      66     2 Ga  31    1.752360    2.717619    3.264167     13.00      69.7230
      67     1 N    7    1.686918    2.753076    5.249452      5.00      14.0067
      68     2 Ga  31    1.717514    4.617622    5.806233     13.00      69.7230
      69     1 N    7    1.696280    4.616496    7.803430      5.00      14.0067
      70     2 Ga  31    1.675827    2.757381    8.437671     13.00      69.7230
      71     1 N    7    1.676784    2.760238   10.433030      5.00      14.0067
      72     2 Ga  31    1.701834    4.618910   11.069585     13.00      69.7230
      73     1 N    7    1.718575    4.629306   13.061828      5.00      14.0067
      74     2 Ga  31    1.676456    2.761689   13.623802     13.00      69.7230
      75     1 N    7    1.711966    2.748471   15.582067      5.00      14.0067
      76     2 Ga  31    1.506645    4.508525   16.499337     13.00      69.7230
      77     1 N    7    0.079508    7.379952    2.695034      5.00      14.0067
      78     2 Ga  31    0.086396    5.538612    3.336696     13.00      69.7230
      79     1 N    7    0.077834    5.552962    5.273777      5.00      14.0067
      80     2 Ga  31    0.086365    7.394662    5.903432     13.00      69.7230
      81     1 N    7    0.079396    7.398171    7.863188      5.00      14.0067
      82     2 Ga  31    0.078745    5.524780    8.443150     13.00      69.7230
      83     1 N    7    0.079349    5.527087   10.433773      5.00      14.0067
      84     2 Ga  31    0.080244    7.396401   11.027231     13.00      69.7230
      85     1 N    7    0.080435    7.396949   12.995833      5.00      14.0067
      86     2 Ga  31    0.080695    5.528152   13.622165     13.00      69.7230
      87     1 N    7    0.080533    5.560477   15.579556      5.00      14.0067
      88     2 Ga  31    0.081134    7.396729   15.859258     13.00      69.7230
      89     1 N    7   -1.634311   10.110165    2.521517      5.00      14.0067
      90     2 Ga  31   -1.488660    8.297322    3.335171     13.00      69.7230
      91     1 N    7   -1.518693    8.318454    5.262023      5.00      14.0067
      92     2 Ga  31   -1.504935   10.204493    5.808765     13.00      69.7230
      93     1 N    7   -1.520733   10.185644    7.800068      5.00      14.0067
      94     2 Ga  31   -1.541306    8.331713    8.445005     13.00      69.7230
      95     1 N    7   -1.540108    8.331061   10.433670      5.00      14.0067
      96     2 Ga  31   -1.515130   10.190525   11.068852     13.00      69.7230
      97     1 N    7   -1.496715   10.199468   13.061487      5.00      14.0067
      98     2 Ga  31   -1.537033    8.330865   13.621045     13.00      69.7230
      99     1 N    7   -1.510923    8.316131   15.579903      5.00      14.0067
     100     2 Ga  31   -1.700421   10.080324   16.490957     13.00      69.7230
     101     1 N    7    6.507584    1.950263    2.536656      5.00      14.0067
     102     2 Ga  31    6.527542   -0.031583    2.860599     13.00      69.7230
     103     1 N    7    6.505379   -0.030262    5.023695      5.00      14.0067
     104     2 Ga  31    6.508322    1.799336    5.803484     13.00      69.7230
     105     1 N    7    6.509884    1.814015    7.800792      5.00      14.0067
     106     2 Ga  31    6.512780   -0.031848    8.444320     13.00      69.7230
     107     1 N    7    6.511775   -0.031292   10.419400      5.00      14.0067
     108     2 Ga  31    6.512282    1.808674   11.067660     13.00      69.7230
     109     1 N    7    6.512578    1.788258   13.067862      5.00      14.0067
     110     2 Ga  31    6.513506   -0.040333   13.860184     13.00      69.7230
     111     1 N    7    6.513637   -0.041235   16.067043      5.00      14.0067
     112     2 Ga  31    6.513317    1.959780   16.431514     13.00      69.7230
     113     2 Ga  31    6.513042    3.682782    1.533166     13.00      69.7230
     114     1 N    7    5.006569    4.549111    2.529477      5.00      14.0067
     115     2 Ga  31    4.789831    2.698194    3.296641     13.00      69.7230
     116     1 N    7    4.898931    2.753696    5.257945      5.00      14.0067
     117     2 Ga  31    4.875288    4.626777    5.803390     13.00      69.7230
     118     1 N    7    4.893197    4.616813    7.801833      5.00      14.0067
     119     2 Ga  31    4.911331    2.759127    8.437725     13.00      69.7230
     120     1 N    7    4.914519    2.761268   10.434518      5.00      14.0067
     121     2 Ga  31    4.888144    4.621154   11.068668     13.00      69.7230
     122     1 N    7    4.871298    4.630500   13.068643      5.00      14.0067
     123     2 Ga  31    4.915279    2.760842   13.613499     13.00      69.7230
     124     1 N    7    4.899925    2.751435   15.591459      5.00      14.0067
     125     2 Ga  31    5.017397    4.546716   16.432196     13.00      69.7230
     126     1 N    7    6.511886    3.685148   17.553733      5.00      14.0067
     127     1 N    7    3.290084    7.510592    2.498389      5.00      14.0067
     128     1 N    7    3.293486    5.537582    5.029266      5.00      14.0067
     129     2 Ga  31    3.298195    7.365987    5.792570     13.00      69.7230
     130     1 N    7    3.292618    7.387327    7.792528      5.00      14.0067
     131     2 Ga  31    3.294614    5.541770    8.445501     13.00      69.7230
     132     1 N    7    3.295375    5.540682   10.420902      5.00      14.0067
     133     2 Ga  31    3.297364    7.381045   11.068956     13.00      69.7230
     134     1 N    7    3.296119    7.361600   13.061302      5.00      14.0067
     135     2 Ga  31    3.286678    5.544823   13.861326     13.00      69.7230
     136     1 N    7    3.285547    5.546312   16.068048      5.00      14.0067
     137     2 Ga  31    3.294732    7.602690   16.494095     13.00      69.7230
     138     2 Ga  31    3.329593    9.275956    1.311064     13.00      69.7230
     139     1 N    7    1.782358   10.117959    2.502623      5.00      14.0067
     140     2 Ga  31    1.679499    8.313601    3.285870     13.00      69.7230
     141     1 N    7    1.672427    8.317312    5.235417      5.00      14.0067
     142     2 Ga  31    1.662985   10.198316    5.792759     13.00      69.7230
     143     1 N    7    1.676007   10.184374    7.791668      5.00      14.0067
     144     2 Ga  31    1.700488    8.333157    8.442768     13.00      69.7230
     145     1 N    7    1.699191    8.331587   10.432853      5.00      14.0067
     146     2 Ga  31    1.675104   10.190830   11.068040     13.00      69.7230
     147     1 N    7    1.657798   10.199253   13.060558      5.00      14.0067
     148     2 Ga  31    1.698413    8.330877   13.621067     13.00      69.7230
     149     1 N    7    1.671317    8.315732   15.578924      5.00      14.0067
     150     2 Ga  31    1.866394   10.077706   16.493479     13.00      69.7230
     151     1 N    7    3.305526    9.259584   17.634934      5.00      14.0067
     152     1 N    7    9.734745    1.825619    2.627909      5.00      14.0067
     153     2 Ga  31    9.728822    0.060899    3.254328     13.00      69.7230
     154     1 N    7    9.722563   -0.033890    5.237860      5.00      14.0067
     155     2 Ga  31    9.731575    1.819471    5.865659     13.00      69.7230
     156     1 N    7    9.725781    1.823977    7.846614      5.00      14.0067
     157     2 Ga  31    9.728903   -0.043323    8.429277     13.00      69.7230
     158     1 N    7    9.728140   -0.043678   10.427302      5.00      14.0067
     159     2 Ga  31    9.728915    1.825263   11.023836     13.00      69.7230
     160     1 N    7    9.726381    1.827324   12.998418      5.00      14.0067
     161     2 Ga  31    9.728899   -0.043757   13.621783     13.00      69.7230
     162     1 N    7    9.722537   -0.006640   15.580942      5.00      14.0067
     163     2 Ga  31    9.730860    1.826591   15.860960     13.00      69.7230
     164     1 N    7    8.011576    4.550357    2.538898      5.00      14.0067
     165     2 Ga  31    8.228428    2.690200    3.299941     13.00      69.7230
     166     1 N    7    8.117911    2.753579    5.260330      5.00      14.0067
     167     2 Ga  31    8.141238    4.625867    5.800999     13.00      69.7230
     168     1 N    7    8.128666    4.617935    7.799182      5.00      14.0067
     169     2 Ga  31    8.110943    2.758556    8.434074     13.00      69.7230
     170     1 N    7    8.108660    2.761087   10.432066      5.00      14.0067
     171     2 Ga  31    8.134275    4.619891   11.068164     13.00      69.7230
     172     1 N    7    8.153303    4.630174   13.068162      5.00      14.0067
     173     2 Ga  31    8.110494    2.760337   13.613127     13.00      69.7230
     174     1 N    7    8.126463    2.751508   15.590984      5.00      14.0067
     175     2 Ga  31    8.007205    4.545690   16.431986     13.00      69.7230
     176     1 N    7    6.504036    7.399460    2.608810      5.00      14.0067
     177     2 Ga  31    6.502524    5.663182    3.295176     13.00      69.7230
     178     1 N    7    6.508937    5.543087    5.256006      5.00      14.0067
     179     2 Ga  31    6.501832    7.402760    5.867789     13.00      69.7230
     180     1 N    7    6.509880    7.397705    7.845206      5.00      14.0067
     181     2 Ga  31    6.510680    5.530343    8.435878     13.00      69.7230
     182     1 N    7    6.511463    5.527681   10.433093      5.00      14.0067
     183     2 Ga  31    6.510984    7.398138   11.024591     13.00      69.7230
     184     1 N    7    6.512271    7.394336   12.999132      5.00      14.0067
     185     2 Ga  31    6.512453    5.527365   13.612382     13.00      69.7230
     186     1 N    7    6.513237    5.546648   15.590582      5.00      14.0067
     187     2 Ga  31    6.513210    7.398168   15.861971     13.00      69.7230
     188     1 N    7    4.801737   10.125702    2.508116      5.00      14.0067
     189     2 Ga  31    4.976546    8.282052    3.251159     13.00      69.7230
     190     1 N    7    4.899493    8.325500    5.234600      5.00      14.0067
     191     2 Ga  31    4.927565   10.197980    5.780961     13.00      69.7230
     192     1 N    7    4.912895   10.187561    7.787581      5.00      14.0067
     193     2 Ga  31    4.892514    8.334234    8.430686     13.00      69.7230
     194     1 N    7    4.892849    8.331703   10.427896      5.00      14.0067
     195     2 Ga  31    4.918504   10.190403   11.069551     13.00      69.7230
     196     1 N    7    4.936381   10.200351   13.064356      5.00      14.0067
     197     2 Ga  31    4.892650    8.332119   13.622054     13.00      69.7230
     198     1 N    7    4.922056    8.308115   15.581186      5.00      14.0067
     199     2 Ga  31    4.740333   10.087502   16.492094     13.00      69.7230
     200     3 O    8    0.006326    4.088352   -0.432282      6.00      15.9994
     201     4 H    1   -0.206833    5.870558   -0.350617      1.00       1.0079
     202     5 C    6    1.101172    3.601117   -1.230991      4.00      12.0107
     203     4 H    1    2.081852    3.886582   -0.814661      1.00       1.0079
     204     4 H    1    1.067559    2.505299   -1.327524      1.00       1.0079
     205     4 H    1    1.004426    4.040134   -2.235010      1.00       1.0079
     206     2 Ga  31    3.262841    5.535375    2.848112     13.00      69.7230
     207     3 O    8   -0.207641    6.854333   -0.203353      6.00      15.9994
     208     4 H    1    0.025429    7.310078    1.657512      1.00       1.0079
     209     5 C    6    0.923112    7.385355   -0.909379      4.00      12.0107
     210     4 H    1    0.946432    8.469706   -0.725695      1.00       1.0079
     211     4 H    1    1.873701    6.953727   -0.551681      1.00       1.0079
     212     4 H    1    0.845524    7.218534   -1.994092      1.00       1.0079




 SCF PARAMETERS         Density guess:                                    ATOMIC
                        --------------------------------------------------------
                        max_scf:                                              80
                        max_scf_history:                                       0
                        max_diis:                                              4
                        --------------------------------------------------------
                        eps_scf:                                        5.00E-06
                        eps_scf_history:                                0.00E+00
                        eps_diis:                                       1.00E-01
                        eps_eigval:                                     1.00E-05
                        --------------------------------------------------------
                        level_shift [a.u.]:                                 0.00
                        --------------------------------------------------------
                        Outer loop SCF in use 
                        No variables optimised in outer loop
                        eps_scf                                         5.00E-06
                        max_scf                                                4
                        No outer loop optimization
                        step_size                                       5.00E-01

 PW_GRID| Information for grid number                                          1
 PW_GRID| Grid distributed over                                    80 processors
 PW_GRID| Real space group dimensions                                    80    1
 PW_GRID| the grid is blocked:                                                NO
 PW_GRID| Cutoff [a.u.]                                                    600.0
 PW_GRID| spherical cutoff:                                                   NO
 PW_GRID|   Bounds   1           -144     143                Points:         288
 PW_GRID|   Bounds   2           -144     143                Points:         288
 PW_GRID|   Bounds   3           -337     337                Points:         675
 PW_GRID| Volume element (a.u.^3)  0.5630E-03     Volume (a.u.^3)     31519.8467
 PW_GRID| Grid span                                                    FULLSPACE
 PW_GRID|   Distribution                         Average         Max         Min
 PW_GRID|   G-Vectors                           699840.0      699840      699840
 PW_GRID|   G-Rays                                2430.0        2430        2430
 PW_GRID|   Real Space Points                   699840.0      777600      583200

 PW_GRID| Information for grid number                                          2
 PW_GRID| Grid distributed over                                    80 processors
 PW_GRID| Real space group dimensions                                    80    1
 PW_GRID| the grid is blocked:                                                NO
 PW_GRID| Cutoff [a.u.]                                                    200.0
 PW_GRID| spherical cutoff:                                                   NO
 PW_GRID|   Bounds   1            -80      79                Points:         160
 PW_GRID|   Bounds   2            -80      79                Points:         160
 PW_GRID|   Bounds   3           -200     199                Points:         400
 PW_GRID| Volume element (a.u.^3)  0.3078E-02     Volume (a.u.^3)     31519.8467
 PW_GRID| Grid span                                                    FULLSPACE
 PW_GRID|   Distribution                         Average         Max         Min
 PW_GRID|   G-Vectors                           128000.0      128160      127840
 PW_GRID|   G-Rays                                 800.0         801         799
 PW_GRID|   Real Space Points                   128000.0      128000      128000

 PW_GRID| Information for grid number                                          3
 PW_GRID| Grid distributed over                                    80 processors
 PW_GRID| Real space group dimensions                                    80    1
 PW_GRID| the grid is blocked:                                                NO
 PW_GRID| Cutoff [a.u.]                                                     66.7
 PW_GRID| spherical cutoff:                                                   NO
 PW_GRID|   Bounds   1            -48      47                Points:          96
 PW_GRID|   Bounds   2            -48      47                Points:          96
 PW_GRID|   Bounds   3           -112     112                Points:         225
 PW_GRID| Volume element (a.u.^3)  0.1520E-01     Volume (a.u.^3)     31519.8467
 PW_GRID| Grid span                                                    FULLSPACE
 PW_GRID|   Distribution                         Average         Max         Min
 PW_GRID|   G-Vectors                            25920.0       26688       24864
 PW_GRID|   G-Rays                                 270.0         278         259
 PW_GRID|   Real Space Points                    25920.0       43200       21600

 PW_GRID| Information for grid number                                          4
[...]
 flops    13 x    25 x    50         735178600000     100.0%      0.0%      0.0%
 flops   991 x    50 x    64         750229811200     100.0%      0.0%      0.0%
 flops   991 x    64 x    50         750229811200     100.0%      0.0%      0.0%
 flops   242 x    64 x   178         953125076992     100.0%      0.0%      0.0%
 flops    25 x    18 x    13         971349362100     100.0%      0.0%      0.0%
 flops    13 x    18 x    25         971349362100     100.0%      0.0%      0.0%
 flops   242 x    64 x   183         979898253312     100.0%      0.0%      0.0%
 flops   973 x    32 x    50        1012829171200     100.0%      0.0%      0.0%
 flops   973 x    50 x    32        1012829171200     100.0%      0.0%      0.0%
 flops   242 x    64 x   195        1044153876480     100.0%      0.0%      0.0%
 flops   955 x    32 x   178        1116309370880     100.0%      0.0%      0.0%
 flops   955 x    32 x   183        1147666375680     100.0%      0.0%      0.0%
 flops   991 x    32 x   178        1158390142976     100.0%      0.0%      0.0%
 flops   242 x    32 x    32        1158551465984     100.0%      0.0%      0.0%
 flops   991 x    32 x   183        1190929191936     100.0%      0.0%      0.0%
 flops   955 x    32 x   195        1222923187200     100.0%      0.0%      0.0%
 flops   991 x    32 x   195        1269022909440     100.0%      0.0%      0.0%
 flops     5 x    32 x    25        1368427200000     100.0%      0.0%      0.0%
 flops    25 x    32 x     5        1368427200000     100.0%      0.0%      0.0%
 flops    25 x    25 x    50        1412106250000     100.0%      0.0%      0.0%
 flops   973 x    64 x    50        1473206067200     100.0%      0.0%      0.0%
 flops   973 x    50 x    64        1473206067200     100.0%      0.0%      0.0%
 flops   955 x    64 x   178        1623722721280     100.0%      0.0%      0.0%
 flops   955 x    64 x   183        1669332910080     100.0%      0.0%      0.0%
 flops   991 x    64 x   178        1684931117056     100.0%      0.0%      0.0%
 flops   242 x    64 x    32        1685165768704     100.0%      0.0%      0.0%
 flops   242 x    32 x    64        1685165768704     100.0%      0.0%      0.0%
 flops   991 x    64 x   183        1732260642816     100.0%      0.0%      0.0%
 flops   955 x    64 x   195        1778797363200     100.0%      0.0%      0.0%
 flops   224 x    32 x   178        1819602419712     100.0%      0.0%      0.0%
 flops   991 x    64 x   195        1845851504640     100.0%      0.0%      0.0%
 flops    25 x    18 x    25        1847700000000     100.0%      0.0%      0.0%
 flops   224 x    32 x   183        1870714847232     100.0%      0.0%      0.0%
 flops   224 x    32 x   195        1993384673280     100.0%      0.0%      0.0%
 flops   973 x    32 x   178        2274699513856     100.0%      0.0%      0.0%
 flops   973 x    32 x   183        2338595567616     100.0%      0.0%      0.0%
 flops   242 x    64 x    64        2451150209024     100.0%      0.0%      0.0%
 flops   973 x    32 x   195        2491946096640     100.0%      0.0%      0.0%
 flops    13 x    13 x    32        2610465979264     100.0%      0.0%      0.0%
 flops   224 x    64 x   178        2646694428672     100.0%      0.0%      0.0%
 flops   224 x    64 x   183        2721039777792     100.0%      0.0%      0.0%
 flops   224 x    64 x   195        2899468615680     100.0%      0.0%      0.0%
 flops   224 x    32 x    32        3217134649344     100.0%      0.0%      0.0%
 flops   973 x    64 x   178        3308653838336     100.0%      0.0%      0.0%
 flops   973 x    64 x   183        3401593552896     100.0%      0.0%      0.0%
 flops   955 x    32 x    32        3499205079040     100.0%      0.0%      0.0%
 flops   973 x    64 x   195        3624648867840     100.0%      0.0%      0.0%
 flops   991 x    32 x    32        3631112286208     100.0%      0.0%      0.0%
 flops    13 x    13 x    64        3797041424384     100.0%      0.0%      0.0%
 flops   224 x    32 x    64        4679468580864     100.0%      0.0%      0.0%
 flops   224 x    64 x    32        4679468580864     100.0%      0.0%      0.0%
 flops   955 x    32 x    64        5089752842240     100.0%      0.0%      0.0%
 flops   955 x    64 x    32        5089752842240     100.0%      0.0%      0.0%
 flops    25 x    13 x    32        5173189049600     100.0%      0.0%      0.0%
 flops    13 x    25 x    32        5175657344000     100.0%      0.0%      0.0%
 flops   991 x    32 x    64        5281617870848     100.0%      0.0%      0.0%
 flops   991 x    64 x    32        5281617870848     100.0%      0.0%      0.0%
 flops   224 x    64 x    64        6806499753984     100.0%      0.0%      0.0%
 flops   973 x    32 x    32        7130317365248     100.0%      0.0%      0.0%
 flops   955 x    64 x    64        7403276861440     100.0%      0.0%      0.0%
 flops    25 x    13 x    64        7524638617600     100.0%      0.0%      0.0%
 flops    13 x    25 x    64        7528228864000     100.0%      0.0%      0.0%
 flops   991 x    64 x    64        7682353266688     100.0%      0.0%      0.0%
 flops    25 x    25 x    32        9941228000000     100.0%      0.0%      0.0%
 flops   973 x    64 x    32       10371370713088     100.0%      0.0%      0.0%
 flops   973 x    32 x    64       10371370713088     100.0%      0.0%      0.0%
 flops    25 x    25 x    64       14459968000000     100.0%      0.0%      0.0%
 flops   973 x    64 x    64       15085630128128     100.0%      0.0%      0.0%
 flops    13 x    32 x    13       24134345371136     100.0%      0.0%      0.0%
 flops    25 x    32 x    13       48351612691200     100.0%      0.0%      0.0%
 flops    13 x    32 x    25       48351612691200     100.0%      0.0%      0.0%
 flops    25 x    32 x    25       91974400000000     100.0%      0.0%      0.0%
 flops inhomo. stacks             171427689950272     100.0%      0.0%      0.0%
 flops total                       635.624117E+12     100.0%      0.0%      0.0%
 flops max/rank                     11.038910E+12     100.0%      0.0%      0.0%
 matmuls inhomo. stacks                  17324160     100.0%      0.0%      0.0%
 matmuls total                        12141747726     100.0%      0.0%      0.0%
 number of processed stacks             229338680     100.0%      0.0%      0.0%
 average stack size                                    52.9       0.0       0.0
 marketing flops                   678.361093E+12
 -------------------------------------------------------------------------------
 # multiplications                          62607
 max memory usage/rank               1.600786E+09
 # max total images/rank                        5
 # max 3D layers                                1
 # MPI messages exchanged               570975840
 MPI messages size (bytes):
  total size                        67.572679E+12
  min size                           0.000000E+00
  max size                           1.894792E+06
  average size                     118.345945E+03
 MPI breakdown and total messages size (bytes):
             size <=      128             2843160                        0
       128 < size <=     8192            78443761             642611290112
      8192 < size <=    32768           180820359            3688815044256
     32768 < size <=   131072           243335280           17676217054752
    131072 < size <=  4194304            65533280           45465153017296
   4194304 < size <= 16777216                   0                        0
  16777216 < size                               0                        0
 -------------------------------------------------------------------------------

 *** WARNING in dbcsr/mm/dbcsr_mm.F:268 :: Using a non-square number of ***
 *** MPI ranks might lead to poor performance.                          ***
 *** Used ranks: 80                                                     ***
 *** Suggested: 81 169                                                  ***

 -------------------------------------------------------------------------------
 
 MEMORY| Estimated peak process memory [MiB]                                1558

 -------------------------------------------------------------------------------
 ----                             MULTIGRID INFO                            ----
 -------------------------------------------------------------------------------
 count for grid        1:        1225600          cutoff [a.u.]          600.00
 count for grid        2:        9372233          cutoff [a.u.]          200.00
 count for grid        3:        8537378          cutoff [a.u.]           66.67
 count for grid        4:       12743667          cutoff [a.u.]           22.22
 count for grid        5:       11655065          cutoff [a.u.]            7.41
 total gridlevel count  :       43533943

 -------------------------------------------------------------------------------
 -                                                                             -
 -                         MESSAGE PASSING PERFORMANCE                         -
 -                                                                             -
 -------------------------------------------------------------------------------

 ROUTINE             CALLS      AVE VOLUME [Bytes]
 MP_Group             5335
 MP_Bcast            89016                   5666.
 MP_Allreduce       560452                    254.
 MP_Sync              3007
 MP_Alltoall        330418                5556542.
 MP_SendRecv         24964                   5947.
 MP_ISendRecv      1571784                 133520.
 MP_Wait          13861275
 MP_comm_split        3002
 MP_ISend         16008632                 112073.
 MP_IRecv         16013296                 111967.
 MP_Recv              1482                 162816.
 MP_Memory         6997536
 -------------------------------------------------------------------------------


 -------------------------------------------------------------------------------
 -                                                                             -
 -                           R E F E R E N C E S                               -
 -                                                                             -
 -------------------------------------------------------------------------------
 
 CP2K version 7.0 (Development Version), the CP2K developers group (2018).
 CP2K is freely available from https://www.cp2k.org/ .

 Schuett, Ole; Messmer, Peter; Hutter, Juerg; VandeVondele, Joost. 
 Electronic Structure Calculations on Graphics Processing Units, John Wiley & Sons, Ltd, 173-190 (2016). 
 GPU-Accelerated Sparse Matrix-Matrix Multiplication for Linear Scaling Density Functional Theory.
 http://dx.doi.org/10.1002/9781118670712.ch8


 Borstnik, U; VandeVondele, J; Weber, V; Hutter, J. 
 PARALLEL COMPUTING, 40 (5-6), 47-58 (2014). 
 Sparse matrix multiplication: The distributed block-compressed sparse
 row library.
 http://dx.doi.org/10.1016/j.parco.2014.03.012


 Hutter, J; Iannuzzi, M; Schiffmann, F; VandeVondele, J. 
 WILEY INTERDISCIPLINARY REVIEWS-COMPUTATIONAL MOLECULAR SCIENCE, 4 (1), 15-25 (2014). 
 CP2K: atomistic simulations of condensed matter systems.
 http://dx.doi.org/10.1002/wcms.1159


 Grimme, S; Ehrlich, S; Goerigk, L. 
 JOURNAL OF COMPUTATIONAL CHEMISTRY, 32, 1456 (2011). 
 Effect of the damping function in dispersion corrected density functional theory.
 http://dx.doi.org/10.1002/jcc.21759


 Grimme, S; Antony, J; Ehrlich, S; Krieg, H. 
 JOURNAL OF CHEMICAL PHYSICS, 132 (15), 154104 (2010). 
 A consistent and accurate ab initio parametrization of density
 functional dispersion correction (DFT-D) for the 94 elements H-Pu.
 http://dx.doi.org/10.1063/1.3382344


 VandeVondele, J; Hutter, J. 
 JOURNAL OF CHEMICAL PHYSICS, 127 (11), 114105 (2007). 
 Gaussian basis sets for accurate calculations on molecular systems in
 gas and condensed phases.
 http://dx.doi.org/10.1063/1.2770708


 Krack, M. 
 THEORETICAL CHEMISTRY ACCOUNTS, 114 (1-3), 145-152 (2005). 
 Pseudopotentials for H to Kr optimized for gradient-corrected
 exchange-correlation functionals.
 http://dx.doi.org/10.1007/s00214-005-0655-y


 VandeVondele, J; Krack, M; Mohamed, F; Parrinello, M; Chassaing, T;
 Hutter, J. COMPUTER PHYSICS COMMUNICATIONS, 167 (2), 103-128 (2005). 
 QUICKSTEP: Fast and accurate density functional calculations using a
 mixed Gaussian and plane waves approach.
 http://dx.doi.org/10.1016/j.cpc.2004.12.014


 Frigo, M; Johnson, SG. 
 PROCEEDINGS OF THE IEEE, 93 (2), 216-231 (2005). 
 The design and implementation of FFTW3.
 http://dx.doi.org/10.1109/JPROC.2004.840301


 Kolafa, J. 
 JOURNAL OF COMPUTATIONAL CHEMISTRY, 25 (3), 335-342 (2004). 
 Time-reversible always stable predictor-corrector method for molecular dynamics of polarizable molecules.
 http://dx.doi.org/10.1002/jcc.10385


 VandeVondele, J; Hutter, J. 
 JOURNAL OF CHEMICAL PHYSICS, 118 (10), 4365-4369 (2003). 
 An efficient orbital transformation method for electronic structure
 calculations.
 http://dx.doi.org/10.1063/1.1543154


 Hartwigsen, C; Goedecker, S; Hutter, J. 
 PHYSICAL REVIEW B, 58 (7), 3641-3662 (1998). 
 Relativistic separable dual-space Gaussian pseudopotentials from H to Rn.
 http://dx.doi.org/10.1103/PhysRevB.58.3641


 Lippert, G; Hutter, J; Parrinello, M. 
 MOLECULAR PHYSICS, 92 (3), 477-487 (1997). 
 A hybrid Gaussian and plane wave density functional scheme.
 http://dx.doi.org/10.1080/002689797170220


 Perdew, JP; Burke, K; Ernzerhof, M. 
 PHYSICAL REVIEW LETTERS, 77 (18), 3865-3868 (1996). 
 Generalized gradient approximation made simple.
 http://dx.doi.org/10.1103/PhysRevLett.77.3865


 Goedecker, S; Teter, M; Hutter, J. 
 PHYSICAL REVIEW B, 54 (3), 1703-1710 (1996). 
 Separable dual-space Gaussian pseudopotentials.
 http://dx.doi.org/10.1103/PhysRevB.54.1703


 -------------------------------------------------------------------------------
 -                                                                             -
 -                                T I M I N G                                  -
 -                                                                             -
 -------------------------------------------------------------------------------
 SUBROUTINE                       CALLS  ASD         SELF TIME        TOTAL TIME
                                MAXIMUM       AVERAGE  MAXIMUM  AVERAGE  MAXIMUM
 CP2K                                 1  1.0     0.06     0.09 30309.24 30309.26
 cp_geo_opt                           1  2.0     0.00     0.01 30308.04 30308.08
 geoopt_bfgs                          1  3.0     0.04     0.13 30308.04 30308.08
 cp_eval_at                          80  4.0     0.02     0.04 30273.03 30273.06
 qs_forces                           79  5.0     0.03     0.06 30155.22 30155.24
 qs_energies                         80  6.0     0.03     0.06 28663.88 28664.02
 scf_env_do_scf                      80  7.0     0.03     0.14 27608.07 27608.11
 scf_env_do_scf_inner_loop         2078  8.0     0.13     0.20 25716.04 25716.11
 rebuild_ks_matrix                 2157  9.9     0.01     0.02 13203.18 13205.86
 qs_ks_build_kohn_sham_matrix      2157 10.9     0.71     1.30 13203.17 13205.85
 qs_ks_update_qs_env               2165  9.0     0.02     0.03 11783.09 11785.42
 qs_rho_update_rho                 2158  9.0     0.02     0.05 11234.62 11241.21
 calculate_rho_elec                4316 10.0  5582.07  5683.89 11234.60 11241.19
 pw_transfer                      67391 13.4     7.29     8.71  6961.44  6992.16
 sum_up_and_integrate              1158 11.8    17.54    19.88  6983.20  6984.74
 integrate_v_rspace                2316 12.8  3789.97  3918.85  6965.65  6969.58
 fft_wrap_pw1pw2                  63077 14.4     0.75     0.87  6927.45  6957.64
 fft_wrap_pw1pw2_600              36549 15.7   409.05   466.07  6428.80  6455.02
 fft3d_ps                         63077 16.4  1907.14  2144.36  5963.26  6045.88
 rs_pw_transfer                   33559 13.0     0.44     0.49  5315.40  5387.39
 density_rs2pw                     4316 11.0     0.32     0.35  5050.23  5158.44
 qs_vxc_create                     2157 11.9     0.06     0.09  4878.69  4879.88
 dbcsr_multiply_generic           62607 13.8     4.10     5.55  4214.63  4220.43
 mp_alltoall_z22v                 63077 18.4  3519.74  3965.14  3519.74  3965.14
 qs_scf_new_mos                    2078  9.0     0.02     0.04  3925.70  3929.06
 qs_scf_loop_do_ot                 2078 10.0     0.08     0.17  3925.68  3929.04
 mp_waitall_1                   ******* 16.7  3726.98  3893.52  3726.98  3893.52
 ot_scf_mini                       2078 11.0     0.35     0.73  3613.20  3615.27
 xc_vxc_pw_create                  1158 12.8   247.08   279.77  3567.99  3568.58
 multiply_cannon                  62607 14.8    19.83    20.97  3248.26  3304.44
 xc_rho_set_and_dset_create        2157 13.9    37.69    40.27  2671.04  2714.59
 mp_waitany                     1202344 14.9  2346.38  2532.54  2346.38  2532.54
 potential_pw2rs                   2316 13.8     1.84     2.03  2515.89  2520.39
 x_to_yz                          27521 18.0   302.76   356.29  2307.61  2472.83
 rs_pw_transfer_RS2PW_600          4476 13.0   889.97   988.23  2269.56  2343.98
 multiply_cannon_metrocomm3     1252140 15.8     3.34     3.60  1897.44  2135.77
 yz_to_x                          22292 16.9   183.77   193.74  1695.49  1908.20
 init_scf_loop                       87  8.0     0.01     0.04  1889.31  1889.35
 ot_mini                           2078 12.0     0.02     0.03  1830.56  1832.86
 rs_pw_transfer_PW2RS_600          2555 15.4   571.93   626.85  1438.40  1482.34
 qs_ks_update_qs_env_forces          79  6.0     0.00     0.00  1441.44  1441.75
 xc_exc_calc                        999 13.0     4.86     5.48  1310.64  1311.32
 qs_ot_get_derivative              2158 13.0     0.03     0.04  1165.99  1168.02
 prepare_preconditioner              87  9.0     0.00     0.00  1028.80  1029.07
 multiply_cannon_metrocomm1     1252140 15.8     3.85     4.10   795.46  1008.72
 make_preconditioner                174 10.0     0.01     0.02   949.72   949.84
 mp_alltoall_d11v                 63171 15.5   848.52   943.01   848.52   943.01
 rs_distribute_matrix              6790 12.0     8.32    16.89   803.88   894.21
 make_full_all                      174 11.0     0.07     0.11   872.35   872.70
 qs_ot_get_p                       4330 11.9     0.05     0.14   794.57   802.42
 cp_fm_syevd                       3002 14.2     0.02     0.04   780.28   781.95
 cp_fm_redistribute_end            3002 15.2   294.22   750.92   298.63   754.26
 cp_fm_syevd_base                  3002 14.9   452.28   718.56   452.28   718.56
 apply_preconditioner_dbcsr        2332 14.0     0.01     0.01   687.26   689.11
 apply_all                         2332 15.0     0.27     0.40   687.26   689.11
 init_scf_run                        80  7.0     0.01     0.02   662.53   662.56
 scf_env_initial_rho_setup           80  8.0     0.00     0.01   662.53   662.56
 wfi_extrapolate                     80  9.0     0.04     0.12   654.73   654.77
 ot_new_cg_direction               1079 13.0     0.03     0.06   649.73   649.81
 mp_sum_d                         83870 14.8   499.33   626.66   499.33   626.66
 -------------------------------------------------------------------------------

 The number of warnings for this run is : 1
 
 -------------------------------------------------------------------------------
  **** **** ******  **  PROGRAM ENDED AT                 2019-06-30 08:36:52.473
 ***** ** ***  *** **   PROGRAM RAN ON            blg4113.int.ets1.calculquebec.
 **    ****   ******    PROGRAM RAN BY                                       rzk
 ***** **    ** ** **   PROGRAM PROCESS ID                                454382
  **** **  *******  **  PROGRAM STOPPED IN /scratch/rzk/rzk/GaN-carbene/443-adat
                                           oms-both-2x2/04-2Methanol/01-CombineA
                                           sIs
