     212
 i =        1, E =     -8504.6511780072
  N        -0.0333682842        2.0276439090        2.5484552347
 Ga        -0.0324913891        0.0547455781        2.8826459786
  N        -0.0339259181        0.0474474260        5.0282504298
 Ga        -0.0358548507        1.8745634192        5.8157184791
  N        -0.0342910057        1.8917492231        7.8092251378
 Ga        -0.0330387241        0.0463722860        8.4544880984
  N        -0.0327124624        0.0468600955       10.4262499577
 Ga        -0.0337733080        1.8869570910       11.0775278010
  N        -0.0329908682        1.8679230647       13.0700773860
 Ga        -0.0338976703        0.0476085210       13.8748029316
  N        -0.0323567511        0.0477249574       16.0733281749
 Ga        -0.0323503807        2.0912883355       16.4872486964
 Ga        -0.0411647372        3.7241496237        1.5191018692
  N        -1.5160243498        4.6172420240        2.5135764976
 Ga        -1.7373327630        2.7711957132        3.3127832539
  N        -1.6464705867        2.8305782091        5.2708066399
 Ga        -1.6654062931        4.7038199550        5.8125256733
  N        -1.6521811766        4.6957425809        7.8073092289
 Ga        -1.6324228321        2.8389224152        8.4478194958
  N        -1.6311281265        2.8391496383       10.4393414450
 Ga        -1.6567114045        4.6985792374       11.0771130582
  N        -1.6730877424        4.7087811053       13.0696087101
 Ga        -1.6300715020        2.8399131253       13.6265210870
  N        -1.6591456834        2.8228860946       15.5872405700
 Ga        -1.4781796733        4.5966689039       16.4871645324
  N        -0.0387676757        3.7576424737       17.6197207579
  N        -3.2485195102        7.5918225679        2.5236941650
 Ga        -3.2401259989        5.6129835033        2.8559987912
  N        -3.2448755153        5.6139368932        5.0174319974
 Ga        -3.2484318066        7.4436694640        5.8015811083
  N        -3.2498390784        7.4629488593        7.7990423961
 Ga        -3.2501586921        5.6184975225        8.4528977171
  N        -3.2498606570        5.6187437652       10.4251363554
 Ga        -3.2498143769        7.4580903744       11.0762638001
  N        -3.2490132699        7.4389112325       13.0687516939
 Ga        -3.2495392690        5.6185978402       13.8733932721
  N        -3.2486053478        5.6187651927       16.0729860158
 Ga        -3.2484509151        7.6612266426       16.4856561599
 Ga        -3.2461391800        9.3249953809        1.4529228551
  N        -4.7552981165       10.2021263866        2.5201529892
 Ga        -4.9520317376        8.3476432254        3.2815937307
  N        -4.8587294847        8.4014700693        5.2498067360
 Ga        -4.8814238656       10.2735111620        5.8056402958
  N        -4.8668025270       10.2651506450        7.8013956825
 Ga        -4.8471515586        8.4082867233        8.4433257422
  N        -4.8462821092        8.4097126000       10.4357121268
 Ga        -4.8722476903       10.2679748233       11.0774246655
  N        -4.8888711905       10.2788901927       13.0697451561
 Ga        -4.8459445792        8.4101149166       13.6261449529
  N        -4.8749753259        8.3928593605       15.5868160134
 Ga        -4.6956698844       10.1677130668       16.4858622425
  N        -3.2556128923        9.3282428525       17.6177975613
  N         3.1663097069        1.9095358461        2.5982977382
 Ga         3.1798502965        0.1561335147        3.2845819683
  N         3.1825435877        0.0521678045        5.2512222052
 Ga         3.1844185209        1.9052917439        5.8924022028
  N         3.1842222660        1.9024808924        7.8621445895
 Ga         3.1825351233        0.0344542170        8.4478857965
  N         3.1825066133        0.0339896063       10.4383964646
 Ga         3.1823950130        1.9041197582       11.0329423364
  N         3.1836124484        1.9047148036       13.0027079175
 Ga         3.1836024023        0.0356659900       13.6260651418
  N         3.1856036950        0.0689310217       15.5858548110
 Ga         3.1842374621        1.9056111591       15.8682620635
  N         1.4595983467        4.6232231579        2.5044359195
 Ga         1.6704629341        2.7912508113        3.3290198846
  N         1.5757295222        2.8324326048        5.2798283252
 Ga         1.6123115787        4.7146440430        5.8086656487
  N         1.5812864327        4.6943729506        7.8071121404
 Ga         1.5646902542        2.8390148090        8.4477232733
  N         1.5633693329        2.8386623915       10.4394331528
 Ga         1.5900055197        4.6989917586       11.0756979999
  N         1.6068518091        4.7086529304       13.0689066012
 Ga         1.5648199525        2.8396390004       13.6262804202
  N         1.5943873303        2.8246013417       15.5859824632
 Ga         1.4076606572        4.5932861115       16.4882878327
  N        -0.0326549601        7.4696496590        2.6103102846
 Ga        -0.0155092620        5.7264913419        3.3027929904
  N        -0.0338045140        5.6167678164        5.2657272805
 Ga        -0.0326106476        7.4720184388        5.8854258000
  N        -0.0344202713        7.4758223997        7.8581162337
 Ga        -0.0337525304        5.6071750883        8.4477620113
  N        -0.0342347652        5.6061120691       10.4393131684
 Ga        -0.0345059018        7.4756908349       11.0324221928
  N        -0.0330450450        7.4759446245       13.0022461550
 Ga        -0.0328813037        5.6066885529       13.6261472573
  N        -0.0308902440        5.6395223586       15.5859596734
 Ga        -0.0317138410        7.4761368402       15.8679093594
  N        -1.7472547519       10.2013319275        2.5254880183
 Ga        -1.5461095266        8.3464247526        3.2864228609
  N        -1.6392268083        8.4024680953        5.2536907189
 Ga        -1.6171991464       10.2743765095        5.8053747497
  N        -1.6331814711       10.2654155378        7.8019474351
 Ga        -1.6523207602        8.4087570656        8.4442548249
  N        -1.6536553345        8.4101589803       10.4361675834
 Ga        -1.6265363970       10.2685924232       11.0761472601
  N        -1.6091977786       10.2788635349       13.0683710256
 Ga        -1.6514790224        8.4101835428       13.6257563834
  N        -1.6220776561        8.3949181889       15.5854174802
 Ga        -1.8079122539       10.1637294025       16.4869221353
  N         6.3924772624        2.0262966200        2.5306992595
 Ga         6.3950386332        0.0458611000        2.8700719271
  N         6.3991372095        0.0471098723        5.0267511808
 Ga         6.3974430309        1.8741125958        5.8076655665
  N         6.3979207038        1.8933675386        7.8032102535
 Ga         6.3973505525        0.0476550366        8.4523978896
  N         6.3985358847        0.0478099352       10.4249476154
 Ga         6.3990143187        1.8871824589       11.0768616176
  N         6.3995211469        1.8683776345       13.0694508531
 Ga         6.3991923726        0.0475060628       13.8727691644
  N         6.3977513236        0.0465380243       16.0736823868
 Ga         6.3999075809        2.0857303393       16.4828389916
 Ga         6.4145718582        3.7517649916        1.4766087822
  N         4.9034333307        4.6282555802        2.5121706009
 Ga         4.6842259633        2.7761713969        3.2921968081
  N         4.7896542633        2.8319058187        5.2547301527
 Ga         4.7543718050        4.7094910241        5.8055699996
  N         4.7851143699        4.6921784975        7.8034301234
 Ga         4.8014705106        2.8389304875        8.4487675350
  N         4.8021670617        2.8388637912       10.4396162510
 Ga         4.7766967031        4.6989456642       11.0758321520
  N         4.7602776357        4.7085642176       13.0693680882
 Ga         4.8021875544        2.8396258942       13.6258726618
  N         4.7764107502        2.8244567065       15.5881257860
 Ga         4.9484862664        4.5999901887       16.4828332735
  N         6.3927563222        3.7579167915       17.6227292725
  N         3.1857129982        7.6022293833        2.5154869087
  N         3.1871922392        5.6182901275        5.0338614833
 Ga         3.1835673946        7.4309228390        5.8068197972
  N         3.1828908847        7.4679593245        7.8047683910
 Ga         3.1834728154        5.6180787561        8.4460617179
  N         3.1838325377        5.6183950179       10.4222450719
 Ga         3.1829575195        7.4579478351       11.0756168635
  N         3.1832969982        7.4396761175       13.0689405217
 Ga         3.1827328796        5.6191381967       13.8732099848
  N         3.1817400219        5.6175564775       16.0740763658
 Ga         3.1837416856        7.6588994871       16.4857422108
 Ga         3.1810329242        9.3476141748        1.5024244772
  N         1.6784130474       10.1950378883        2.5375157303
 Ga         1.4745478793        8.3375816433        3.3037004862
  N         1.5765442531        8.4040171061        5.2641508651
 Ga         1.5481367500       10.2752196058        5.8110308913
  N         1.5641791696       10.2659690135        7.8056720198
 Ga         1.5841224633        8.4089001890        8.4469327300
  N         1.5850636991        8.4101378624       10.4385275463
 Ga         1.5596575352       10.2688873091       11.0765101132
  N         1.5435723467       10.2790059457       13.0690360717
 Ga         1.5858117885        8.4103558520       13.6263331597
  N         1.5599482015        8.3948147136       15.5879062949
 Ga         1.7353951795       10.1682584213       16.4860581703
  N         3.1773081418        9.3277802704       17.6256050225
  N         9.6171922803        1.9056190769        2.6185928179
 Ga         9.6136051220        0.1636180571        3.3005700156
  N         9.6144672935        0.0491424756        5.2617920090
 Ga         9.6127734226        1.9043596250        5.8918211702
  N         9.6131269065        1.9035881507        7.8617459081
 Ga         9.6141319270        0.0350671747        8.4478473778
  N         9.6150442335        0.0347438699       10.4385337702
 Ga         9.6139889411        1.9046596254       11.0328081371
  N         9.6148451260        1.9047302918       13.0031049470
 Ga         9.6155969330        0.0355561140       13.6265590114
  N         9.6170283469        0.0660619657       15.5871910128
 Ga         9.6154062417        1.9046073034       15.8654755580
  N         7.9014647550        4.6277698335        2.5278952102
 Ga         8.1042792662        2.7741506758        3.2954632272
  N         8.0069470920        2.8302985416        5.2580861508
 Ga         8.0356560515        4.7028985920        5.8049784351
  N         8.0175537382        4.6951916554        7.8008210504
 Ga         7.9953472703        2.8391274056        8.4457920433
  N         7.9951250349        2.8398512275       10.4372614261
 Ga         8.0217277025        4.6988731087       11.0758684032
  N         8.0387515815        4.7083796182       13.0682205382
 Ga         7.9968901436        2.8399850218       13.6257781089
  N         8.0236430473        2.8258195766       15.5869608295
 Ga         7.8460003367        4.5967349890       16.4830318530
  N         6.3961780735        7.4718989016        2.6045670524
 Ga         6.4032283145        5.7318228326        3.2995639792
  N         6.4000554205        5.6143437221        5.2602137008
 Ga         6.3987304531        7.4728000566        5.8817948607
  N         6.3998349621        7.4747235495        7.8544667494
 Ga         6.3993145907        5.6061314965        8.4434211791
  N         6.3998064857        5.6058758565       10.4358512744
 Ga         6.3991960125        7.4749943424       11.0315707766
  N         6.3994759499        7.4752436411       13.0020820144
 Ga         6.3999901697        5.6065165321       13.6258953080
  N         6.4013658134        5.6365863708       15.5871280423
 Ga         6.3989907739        7.4756120182       15.8655266797
  N         4.6861917019       10.1985303195        2.5358543114
 Ga         4.8922269417        8.3444672299        3.3024418609
  N         4.7902675749        8.4038486906        5.2624708623
 Ga         4.8157880675       10.2747374466        5.8108851519
  N         4.8004323111       10.2656332754        7.8049469238
 Ga         4.7813877866        8.4082358549        8.4456066077
  N         4.7806938289        8.4101986016       10.4373334050
 Ga         4.8059123105       10.2688176130       11.0769031519
  N         4.8225127450       10.2787544434       13.0687920813
 Ga         4.7810700662        8.4103041076       13.6262445857
  N         4.8077623277        8.3958603087       15.5867754185
 Ga         4.6275589936       10.1656010958       16.4861320791
  O         1.0497329095        3.4660659679       -0.2694844094
  H         1.8331035896        3.9858716917        0.0273754082
  C         1.5608049611        2.0860843326       -0.4529305377
  H         2.2126658945        1.8110445306        0.3941243162
  H         0.6804972381        1.4373588311       -0.4816996490
  H         2.0940558961        2.0546559237       -1.4096584120
 Ga         3.2100574752        5.6068506862        2.6474412654
  O         3.2018781864        5.5640736582        0.1933024976
  H         2.3100669604        5.9019167178       -0.0123630009
  C         4.1643784077        6.4011066093       -0.5055544009
  H         3.7849359708        7.4292541992       -0.6224263424
  H         5.0750218393        6.4486498442        0.1088730681
  H         4.3835063896        5.9733094276       -1.4929681389
     212
 i =        2, E =     -8504.6534408447
  N        -0.0363462450        2.0286179525        2.5479488242
 Ga        -0.0329485616        0.0578971937        2.8850740385
  N        -0.0342631620        0.0477070361        5.0289594194
 Ga        -0.0326336997        1.8785817382        5.8152257297
  N        -0.0344778718        1.8911656355        7.8078312121
 Ga        -0.0329115744        0.0466430915        8.4562039146
  N        -0.0328112258        0.0468964356       10.4263292737
 Ga        -0.0333903437        1.8870812469       11.0788154255
  N        -0.0330171065        1.8674545209       13.0696316462
 Ga        -0.0336092158        0.0477779553       13.8780069696
  N        -0.0318185747        0.0480091318       16.0726962909
 Ga        -0.0322109897        2.0939842456       16.4879874557
 Ga        -0.0390316683        3.7229613019        1.5159222589
  N        -1.5163206716        4.6137599727        2.5126987338
 Ga        -1.7389854495        2.7701822136        3.3150067751
  N        -1.6470579274        2.8303668970        5.2711713038
 Ga        -1.6602917884        4.7044920750        5.8122382817
  N        -1.6528401705        4.6957689432        7.8060437878
 Ga        -1.6320628554        2.8389585100        8.4488826929
  N        -1.6309178789        2.8392227829       10.4388661227
 Ga        -1.6564082174        4.6987448734       11.0784260395
  N        -1.6735382831        4.7090043470       13.0692392993
 Ga        -1.6299321890        2.8399019158       13.6273224262
  N        -1.6604517540        2.8218743438       15.5859993326
 Ga        -1.4761467401        4.5953643607       16.4879207824
  N        -0.0384915269        3.7579278402       17.6172335851
  N        -3.2485440482        7.5921203697        2.5229225949
 Ga        -3.2364605765        5.6109712911        2.8583929482
  N        -3.2450950574        5.6133368036        5.0174776550
 Ga        -3.2484160957        7.4448751308        5.8017491647
  N        -3.2500139718        7.4631272581        7.7975021019
 Ga        -3.2496574373        5.6186717962        8.4547803050
  N        -3.2498948464        5.6186915937       10.4252601459
 Ga        -3.2498348554        7.4580279764       11.0777809270
  N        -3.2490130782        7.4384221849       13.0683433378
 Ga        -3.2495840218        5.6185433214       13.8768318434
  N        -3.2484508001        5.6188421126       16.0722004431
 Ga        -3.2487037756        7.6643131202       16.4871481318
 Ga        -3.2457483900        9.3261611237        1.4602506203
  N        -4.7550971147       10.2016974300        2.5194469885
 Ga        -4.9559381178        8.3457254903        3.2796134375
  N        -4.8599572134        8.4007479107        5.2457203243
 Ga        -4.8807162608       10.2729429946        5.8061843794
  N        -4.8668607478       10.2649131215        7.8001749907
 Ga        -4.8474425539        8.4082191842        8.4448659846
  N        -4.8463022672        8.4097001349       10.4353585382
 Ga        -4.8723547267       10.2680813511       11.0788539526
  N        -4.8892170660       10.2790903319       13.0692310065
 Ga        -4.8459526668        8.4101615654       13.6270178578
  N        -4.8765374961        8.3922687969       15.5853645735
 Ga        -4.6929463281       10.1661015199       16.4872880266
  N        -3.2550267932        9.3284408050       17.6162526832
  N         3.1671456135        1.9134250466        2.5984105723
 Ga         3.1792583633        0.1602004236        3.2849246658
  N         3.1825327211        0.0524298919        5.2490322286
 Ga         3.1838496311        1.9058560468        5.8934697685
  N         3.1839923898        1.9029477391        7.8615084444
 Ga         3.1824301535        0.0351470129        8.4485976563
  N         3.1823808488        0.0339448227       10.4374478374
 Ga         3.1820911285        1.9045010560       11.0333305744
  N         3.1836458482        1.9047541953       13.0010267408
 Ga         3.1833902978        0.0360031658       13.6271501344
  N         3.1853861223        0.0702433308       15.5846637958
 Ga         3.1847334338        1.9058171236       15.8672174965
  N         1.4555226663        4.6246129167        2.5007395324
 Ga         1.6691866336        2.7954903744        3.3251664921
  N         1.5790117437        2.8339203713        5.2734742089
 Ga         1.6173528868        4.7172806176        5.8064213527
  N         1.5824449851        4.6949937496        7.8070053984
 Ga         1.5641544964        2.8403129534        8.4476293429
  N         1.5630473575        2.8388099104       10.4381484269
 Ga         1.5902587403        4.6990866751       11.0759732009
  N         1.6071942047        4.7088111024       13.0678086279
 Ga         1.5649001374        2.8396480339       13.6269316755
  N         1.5955079366        2.8238504842       15.5847295814
 Ga         1.4053264396        4.5916599470       16.4893997403
  N        -0.0272323600        7.4671756313        2.6057147192
 Ga        -0.0131438624        5.7234026381        3.3005314905
  N        -0.0309511482        5.6196547333        5.2601678905
 Ga        -0.0322188569        7.4717334245        5.8878164378
  N        -0.0341429265        7.4755886666        7.8583235224
 Ga        -0.0327910805        5.6060278337        8.4477676207
  N        -0.0342732838        5.6057178841       10.4381345167
 Ga        -0.0341808886        7.4752735711       11.0327744952
  N        -0.0329169257        7.4759745615       13.0007097480
 Ga        -0.0327299839        5.6066444617       13.6268500561
  N        -0.0307594485        5.6407685511       15.5848453310
 Ga        -0.0313536324        7.4763571315       15.8672525289
  N        -1.7478371424       10.2010346342        2.5256818241
 Ga        -1.5413560794        8.3437312001        3.2847313446
  N        -1.6382873472        8.4018548646        5.2498352128
 Ga        -1.6180345077       10.2736801070        5.8058269652
  N        -1.6332352626       10.2652633289        7.8006747697
 Ga        -1.6518391126        8.4084104577        8.4454082488
  N        -1.6537550482        8.4101277194       10.4355147124
 Ga        -1.6267594338       10.2685825756       11.0775447983
  N        -1.6090619173       10.2789886699       13.0680439367
 Ga        -1.6513420460        8.4099512833       13.6268838936
  N        -1.6209270929        8.3943149241       15.5844157913
 Ga        -1.8107887038       10.1623337453       16.4886985132
  N         6.3948913947        2.0241072278        2.5304619012
 Ga         6.3959637843        0.0453812046        2.8734130547
  N         6.3994191735        0.0476106746        5.0267729821
 Ga         6.3948814588        1.8775918987        5.8077564054
  N         6.3982662326        1.8927047494        7.8020938421
 Ga         6.3973324926        0.0474851054        8.4541609895
  N         6.3985577695        0.0478002324       10.4251233514
 Ga         6.3987240839        1.8873757701       11.0781440220
  N         6.3994634261        1.8680176119       13.0689335172
 Ga         6.3989496728        0.0477326411       13.8755236950
  N         6.3972859025        0.0467069838       16.0731281841
 Ga         6.3994925156        2.0873771319       16.4842372468
 Ga         6.4181747822        3.7471107229        1.4804910030
  N         4.9092993826        4.6280135607        2.5087110572
 Ga         4.6863219652        2.7783948460        3.2901699308
  N         4.7867920442        2.8320126124        5.2494605807
 Ga         4.7507521773        4.7118936920        5.8028284127
  N         4.7842733012        4.6926620894        7.8031117712
 Ga         4.8015972294        2.8397433877        8.4491390650
  N         4.8023243196        2.8388435774       10.4387087410
 Ga         4.7762347282        4.6991731983       11.0758983311
  N         4.7598349073        4.7087170205       13.0678952818
 Ga         4.8019508250        2.8397680884       13.6263103763
  N         4.7767838529        2.8248337347       15.5868294768
 Ga         4.9498935604        4.5988260525       16.4842499368
  N         6.3933042398        3.7580172552       17.6267993772
  N         3.1853952704        7.6051133444        2.5062429612
  N         3.1880127295        5.6176679739        5.0345644917
 Ga         3.1843281038        7.4253995010        5.8038103928
  N         3.1830155646        7.4667871489        7.8041701031
 Ga         3.1832373913        5.6180709470        8.4490086209
  N         3.1836744811        5.6183518941       10.4235254428
 Ga         3.1829644650        7.4574691505       11.0756973256
  N         3.1832345373        7.4390304226       13.0677545647
 Ga         3.1827988320        5.6187970901       13.8749409972
  N         3.1816747361        5.6170111759       16.0733900511
 Ga         3.1836950168        7.6588340589       16.4857462737
 Ga         3.1805064846        9.3569160463        1.5016073535
  N         1.6783973740       10.1980340302        2.5393649758
 Ga         1.4794667562        8.3365808606        3.3008071085
  N         1.5756449420        8.4003811072        5.2582132347
 Ga         1.5497060909       10.2708069148        5.8105120146
  N         1.5637611122       10.2665263960        7.8042161157
 Ga         1.5853403926        8.4086357032        8.4470931233
  N         1.5852512095        8.4103168005       10.4375060940
 Ga         1.5597630610       10.2685588725       11.0777310676
  N         1.5431157951       10.2792100907       13.0687737675
 Ga         1.5859314878        8.4100950537       13.6267698725
  N         1.5607148537        8.3951032209       15.5872103236
 Ga         1.7350570037       10.1682339315       16.4859693237
  N         3.1775777028        9.3280914648       17.6277477403
  N         9.6167316306        1.9056460110        2.6140630278
 Ga         9.6138529208        0.1658462847        3.3032552812
  N         9.6143657695        0.0497866735        5.2621606276
 Ga         9.6130492181        1.9044256588        5.8934877886
  N         9.6132737483        1.9036346383        7.8613829050
 Ga         9.6140762051        0.0350341780        8.4488303061
  N         9.6151154404        0.0345216863       10.4379480508
 Ga         9.6140881127        1.9046536020       11.0332729488
  N         9.6147016307        1.9045664198       13.0020075874
 Ga         9.6156292641        0.0353377490       13.6272918946
  N         9.6168261510        0.0653563288       15.5868724709
 Ga         9.6147559342        1.9043600266       15.8633806941
  N         7.9047854623        4.6272267574        2.5273904625
 Ga         8.1057286231        2.7732333674        3.2973249253
  N         8.0075819338        2.8299402305        5.2575642109
 Ga         8.0324793902        4.7027085177        5.8066690550
  N         8.0185098380        4.6951450423        7.8008330969
 Ga         7.9954652546        2.8387872079        8.4471631278
  N         7.9949547573        2.8399763525       10.4368469532
 Ga         8.0215486708        4.6990183335       11.0773120653
  N         8.0391799924        4.7085631325       13.0677842009
 Ga         7.9966802090        2.8400546229       13.6266193645
  N         8.0230142757        2.8257063455       15.5862827204
 Ga         7.8450945610        4.5963621608       16.4840977248
  N         6.3924214296        7.4683901153        2.5985516696
 Ga         6.4039440766        5.7286218969        3.2993746318
  N         6.4001969070        5.6171768075        5.2559223883
 Ga         6.3981521573        7.4730831068        5.8848912698
  N         6.3994980019        7.4747028932        7.8551935792
 Ga         6.3985509075        5.6051653476        8.4442182862
  N         6.3999780749        5.6057341524       10.4352840517
 Ga         6.3987925096        7.4749119166       11.0323009370
  N         6.3992603512        7.4751874694       13.0011848948
 Ga         6.3997265836        5.6061270310       13.6263801599
  N         6.4007949395        5.6360429948       15.5861295194
 Ga         6.3985384998        7.4751285996       15.8633877690
  N         4.6870843420       10.2015177327        2.5372561250
 Ga         4.8883818998        8.3440526602        3.2988197932
  N         4.7919519702        8.4017780598        5.2560413297
 Ga         4.8142731076       10.2714547473        5.8116056322
  N         4.8009130192       10.2662631029        7.8043606806
 Ga         4.7798823186        8.4082143951        8.4461335722
  N         4.7805332588        8.4103955445       10.4365641130
 Ga         4.8059955315       10.2685393929       11.0782127967
  N         4.8229967098       10.2790687638       13.0685444708
 Ga         4.7806279259        8.4102823889       13.6266549372
  N         4.8070388781        8.3959219086       15.5862457973
 Ga         4.6282463287       10.1658516230       16.4857361777
  O         1.0638494629        3.4589817876       -0.2690326657
  H         1.8536809679        3.9785807781        0.0186364611
  C         1.5544210229        2.0741665651       -0.4578478453
  H         2.2104057855        1.8174407371        0.3934665486
  H         0.6745699639        1.4254370776       -0.4832922113
  H         2.0957856132        2.0549021932       -1.4113469222
 Ga         3.1872934318        5.6048571750        2.7176215237
  O         3.1794857061        5.5560786773        0.1670925989
  H         2.3021223315        5.9627243554        0.0014220361
  C         4.1669999406        6.3930251856       -0.5082440889
  H         3.7815423997        7.4201090312       -0.6199091745
  H         5.0718988781        6.4402558911        0.1162370171
  H         4.3880540644        5.9733011604       -1.4985906582
     212
 i =        3, E =     -8504.6550549463
  N        -0.0389250544        2.0288275983        2.5461827578
 Ga        -0.0340346019        0.0608422520        2.8878090851
  N        -0.0335051416        0.0482345721        5.0279280713
 Ga        -0.0309382002        1.8808881829        5.8140222746
  N        -0.0337202247        1.8919519252        7.8053186923
 Ga        -0.0330426895        0.0470929014        8.4558157205
  N        -0.0328906387        0.0470549590       10.4247182558
 Ga        -0.0329915685        1.8871046142       11.0802428743
  N        -0.0328397932        1.8669954232       13.0689342099
 Ga        -0.0332752218        0.0480724545       13.8822175527
  N        -0.0319632929        0.0480478668       16.0705813554
 Ga        -0.0322235325        2.0959925472       16.4898525321
 Ga        -0.0330681548        3.7242205256        1.5156472400
  N        -1.5174664657        4.6104427806        2.5098090906
 Ga        -1.7390955484        2.7704244385        3.3153073441
  N        -1.6469226379        2.8304337090        5.2699710074
 Ga        -1.6572924520        4.7046244486        5.8111759494
  N        -1.6517879764        4.6959487509        7.8036307062
 Ga        -1.6317310678        2.8390011750        8.4493443751
  N        -1.6305784119        2.8393781791       10.4376602501
 Ga        -1.6561474964        4.6990011586       11.0800206880
  N        -1.6738345509        4.7093828399       13.0687329126
 Ga        -1.6297387115        2.8399409747       13.6277022309
  N        -1.6614795436        2.8210679088       15.5843488377
 Ga        -1.4748081157        4.5944155397       16.4897439679
  N        -0.0381648991        3.7582683396       17.6149095911
  N        -3.2475726697        7.5911227218        2.5227632927
 Ga        -3.2325345721        5.6081171459        2.8601354342
  N        -3.2441018727        5.6135373403        5.0152788248
 Ga        -3.2485601405        7.4455457223        5.7998549827
  N        -3.2500172860        7.4634504917        7.7941799421
 Ga        -3.2490772598        5.6185674382        8.4546399055
  N        -3.2497107560        5.6186603163       10.4237768453
 Ga        -3.2497413419        7.4578023906       11.0796427281
  N        -3.2489568890        7.4377992000       13.0679799218