     156
 i =       79, E =     -6136.6621359843
 Ga        -0.0031977123       -0.0157050860       -0.5327182372
  N        -0.0002962581        1.8585865294        0.6061742866
 Ga        -0.0003497094        1.8277800786        2.6379756112
  N        -0.0034423761       -0.0156386949        3.2693729258
 Ga        -0.0022095694       -0.0150493977        5.2601451853
  N         0.0007986883        1.8595467405        5.8481870756
 Ga         0.0021585470        1.8581759366        7.8481352626
  N         0.0007723696       -0.0151064448        8.4505826169
 Ga         0.0038626395       -0.0150554307       10.4498251641
  N         0.0040043434        1.8599605376       11.0450002950
 Ga         0.0085221681        1.8636431810       13.0373535235
  N         0.0158570687       -0.0107064913       13.6264959659
 Ga         0.0271288713       -0.0032001769       15.6170181269
  N         0.0098236546        1.8571157364       16.2299065168
 Ga         0.0426758101        1.8426471714       18.2908724095
  N         0.0535361544       -0.0335303258       18.7058235607
 Ga        -1.6232757268        2.7902455296        0.3243157511
  N        -1.6246346015        4.6598526755        0.6071709891
 Ga        -1.5957900086        4.6757232310        2.6368796366
  N        -1.6228447963        2.7898838918        3.2281575373
 Ga        -1.6217261984        2.7906090495        5.2397601245
  N        -1.6213004101        4.6609321523        5.8465112970
 Ga        -1.6191754713        4.6613075069        7.8451743067
  N        -1.6203913770        2.7917745393        8.4511590856
 Ga        -1.6190079701        2.7950626824       10.4472074731
  N        -1.6173668079        4.6666933981       11.0549878209
 Ga        -1.6178173404        4.6705759244       13.0518738258
  N        -1.6109164130        2.8009394586       13.6533904848
 Ga        -1.5932555860        2.8141165365       15.6545123973
  N        -1.5864803957        4.6801828050       16.3095259071
 Ga        -1.5151004057        4.6830167958       18.3829610562
  N        -1.5538673541        2.7921147564       18.7672612122
 Ga        -3.2435330273        5.5951746543        0.3242511482
  N        -3.2373257455        7.4661009059        0.6063727474
 Ga        -3.2644571547        7.4808600964        2.6380701174
  N        -3.2426903791        5.5954099660        3.2284806671
 Ga        -3.2418936785        5.5960209977        5.2399047717
  N        -3.2358683546        7.4662915409        5.8469361989
 Ga        -3.2359144490        7.4670350537        7.8460557601
  N        -3.2399107053        5.5961375266        8.4494032122
 Ga        -3.2386033823        5.5970782710       10.4446276327
  N        -3.2307613377        7.4657004977       11.0546714098
 Ga        -3.2221771033        7.4627974090       13.0522289739
  N        -3.2323250584        5.5991953719       13.6956173585
 Ga        -3.2209388106        5.5924895827       15.7320756607
  N        -3.2163926408        7.4829466507       16.2607498932
 Ga        -3.1799143472        7.4513937557       18.3215794161
  N        -3.1617596470        5.5886543093       18.8526419438
 Ga         3.2429587014       -0.0154034827        0.3245772832
  N         3.2409931929        1.8545634251        0.6065207339
 Ga         3.2694532344        1.8703956801        2.6371598965
  N         3.2424927130       -0.0155099781        3.2281264717
 Ga         3.2439631522       -0.0146875535        5.2397680141
  N         3.2445620553        1.8554737021        5.8474560486
 Ga         3.2469552599        1.8562227192        7.8469080638
  N         3.2449267126       -0.0148030493        8.4497004479
 Ga         3.2478384118       -0.0139769786       10.4450717446
  N         3.2512252024        1.8568589385       11.0506552521
 Ga         3.2581057068        1.8541566383       13.0476173957
  N         3.2565783707       -0.0168048905       13.6605277071
 Ga         3.2763524778       -0.0160699454       15.6670567265
  N         3.2817404885        1.8641571149       16.2203639793
 Ga         3.3134688475        1.8592715558       18.2442056931
  N         3.3149893915       -0.0292405896       18.6963466426
 Ga         1.6223083604        2.7909454335        0.3242126942
  N         1.6290807136        4.6604959405        0.6074403689
 Ga         1.6011817848        4.6758425221        2.6371843645
  N         1.6225765546        2.7900452832        3.2288910740
 Ga         1.6241625422        2.7909293074        5.2407417583
  N         1.6297009856        4.6611676971        5.8483755733
 Ga         1.6300042488        4.6613954848        7.8481634712
  N         1.6259868276        2.7902527357        8.4495193409
 Ga         1.6289818618        2.7912936829       10.4449580076
  N         1.6275873056        4.6622816120       11.0478445513
 Ga         1.6288620082        4.6626529324       13.0422231418
  N         1.6331380459        2.7877288294       13.6459653417
 Ga         1.6417453209        2.7752062903       15.6412991022
  N         1.6341584581        4.6645598027       16.1854867367
 Ga         1.6778820256        4.6403234615       18.1862825376
  N         1.6828182617        2.7755808118       18.6454000650
 Ga         0.0030956276        5.5957607949       -0.5482838886
  N         0.0059330136        7.4705604153        0.6071367632
 Ga         0.0060371339        7.4383673354        2.6369728083
  N         0.0029909910        5.5951910979        3.2694791078
 Ga         0.0046507446        5.5961849663        5.2596178367
  N         0.0074406182        7.4706953016        5.8476660846
 Ga         0.0088016044        7.4692913717        7.8470880064
  N         0.0049035181        5.5957503614        8.4471730461
 Ga         0.0062611035        5.5971513248       10.4440981444
  N         0.0117631155        7.4692013380       11.0459639783
 Ga         0.0144225365        7.4714485470       13.0386670338
  N         0.0067827887        5.6016704903       13.6479097414
 Ga         0.0022536573        5.6027781777       15.6437547526
  N         0.0347851975        7.4601131314       16.2807275145
 Ga         0.0827333539        7.4270176222       18.3635126164
  N         0.1393100756        5.5759841484       18.9050803357
 Ga         6.4868622649       -0.0149664961        0.3238058799
  N         6.4937600711        1.8550172605        0.6061594515
 Ga         6.4661914238        1.8702121852        2.6369376848
  N         6.4883041467       -0.0154611590        3.2286989505
 Ga         6.4897271828       -0.0147082088        5.2405869335
  N         6.4945073979        1.8558245157        5.8478874930
 Ga         6.4945434621        1.8569523318        7.8474675960
  N         6.4909249338       -0.0136810374        8.4511993435
 Ga         6.4942832481       -0.0111117181       10.4474985028
  N         6.4968360993        1.8609123722       11.0529720719
 Ga         6.4998638023        1.8661701699       13.0497135321
  N         6.4899320641       -0.0075060815       13.6416486439
 Ga         6.5031225269        0.0025018752       15.6444520478
  N         6.5235994445        1.8787408306       16.2250586888
 Ga         6.5746562482        1.8793885489       18.2656463928
  N         6.5640700740       -0.0189419401       18.6496704629
 Ga         4.8675455017        2.7916394136       -0.5421740066
  N         4.8709526869        4.6648991174        0.6070445529
 Ga         4.8707902355        4.6334324235        2.6374012550
  N         4.8682695743        2.7899482755        3.2690897101
 Ga         4.8695340064        2.7910991885        5.2593581871
  N         4.8721186151        4.6652291932        5.8480409667
 Ga         4.8728519930        4.6638994846        7.8476806921
  N         4.8708916666        2.7913712106        8.4505815755
 Ga         4.8738502048        2.7951095575       10.4499442481
  N         4.8797793573        4.6660636117       11.0582509148
 Ga         4.8838991504        4.6696253101       13.0607392826
  N         4.8748707752        2.7949677306       13.6520615458
 Ga         4.8868339108        2.7992270598       15.6634813133
  N         4.8673801975        4.6707367574       16.1760845282
 Ga         4.9283199728        4.6621684316       19.0945710848
  N         4.9374644369        2.7785535956       18.7421732897
 Ga         3.2486490331        5.5946786193        0.3237773209
  N         3.2479360600        7.4655097835        0.6058214940
 Ga         3.2756805013        7.4807252494        2.6375828223
  N         3.2485649030        5.5956513159        3.2288678315
 Ga         3.2499297546        5.5963806943        5.2404411510
  N         3.2504547401        7.4661581893        5.8492864290
 Ga         3.2531634345        7.4667070899        7.8495537706
  N         3.2514026977        5.5959645292        8.4548647257
 Ga         3.2550340060        5.5974466222       10.4536180404
  N         3.2565532660        7.4713104557       11.0515653181
 Ga         3.2582262682        7.4718843501       13.0486364124
  N         3.2489651188        5.5953924120       13.6328796901
 Ga         3.2615432869        5.6068290540       15.6399478013
  N         3.2801524321        7.4913555918       16.1567754497
 Ga         3.3297286463        7.4941931228       18.1715572836
  N         3.3566070452        5.5740260376       18.4725852045
  O         1.5773727178        5.0582956963       21.2389931364
  H         0.9893527773        5.3948074801       20.4826206662
  C         0.8462036419        3.9923227348       21.8796290165
  H         0.1187698590        3.5441870202       21.1867362394
  H         1.5507325709        3.2093085254       22.1874168568
  H         0.3186974091        4.3739275388       22.7663530211
  O         4.2302278999        4.7152732534       21.0726322478
  H         3.2219573201        4.8668376492       21.0759145837
  C         4.5511022821        3.5981884277       21.9420407046
  H         4.1183658341        2.6632883486       21.5600507323
  H         5.6428345820        3.5041894622       21.9648730172
  H         4.1791232244        3.8116388777       22.9520568096
