 DBCSR| Multiplication driver                                               BLAS
 DBCSR| Multrec recursion limit                                              512
 DBCSR| Multiplication stack size                                           1000
 DBCSR| Maximum elements for images                                    UNLIMITED
 DBCSR| Multiplicative factor virtual images                                   1
 DBCSR| Multiplication size stacks                                             3
 DBCSR| Number of 3D layers                                               SINGLE
 DBCSR| Use MPI memory allocation                                              T
 DBCSR| Use RMA algorithm                                                      F
 DBCSR| Use Communication thread                                               T
 DBCSR| Communication thread load                                             87


  **** **** ******  **  PROGRAM STARTED AT               2019-07-17 22:48:32.846
 ***** ** ***  *** **   PROGRAM STARTED ON        blg9210.int.ets1.calculquebec.
 **    ****   ******    PROGRAM STARTED BY                                   rzk
 ***** **    ** ** **   PROGRAM PROCESS ID                                131449
  **** **  *******  **  PROGRAM STARTED IN /lustre04/scratch/rzk/rzk/GaN-carbene
                                           /443-adatoms-both-2x2/09-BondBreaking
                                           -CH/03-0501-CH-to-Nsur-PES/Phase03-Re
                                           laxation

 CP2K| version string:                    CP2K version 7.0 (Development Version)
 CP2K| source code revision number:                                    svn:18619
 CP2K| cp2kflags: libint fftw3 libxc parallel mpi3 scalapack mkl                
 CP2K| is freely available from                            https://www.cp2k.org/
 CP2K| Program compiled at                          Sun Apr  7 00:48:11 EDT 2019
 CP2K| Program compiled on                      beluga2.int.ets1.calculquebec.ca
 CP2K| Program compiled for                    Beluga-Linux-x86-64-intel-openmpi
 CP2K| Data directory path    /home/rzk/projects/def-rzk/group/cp2k/cp2k-mcgill/
 CP2K| Input file name                                                 start.inp
 
 GLOBAL| Force Environment number                                              1
 GLOBAL| Basis set file name                                        BASIS_MOLOPT
 GLOBAL| Potential file name                                      GTH_POTENTIALS
 GLOBAL| MM Potential file name                                     MM_POTENTIAL
 GLOBAL| Coordinate file name                                      __STD_INPUT__
 GLOBAL| Method name                                                        CP2K
 GLOBAL| Project name                                                       TEST
 GLOBAL| Preferred FFT library                                             FFTW3
 GLOBAL| Preferred diagonalization lib.                                       SL
 GLOBAL| Run type                                                        GEO_OPT
 GLOBAL| All-to-all communication in single precision                          F
 GLOBAL| FFTs using library dependent lengths                                  F
 GLOBAL| Global print level                                               MEDIUM
 GLOBAL| MPI I/O enabled                                                       T
 GLOBAL| Total number of message passing processes                            80
 GLOBAL| Number of threads for this process                                    1
 GLOBAL| This output is from process                                           0
 GLOBAL| CPU model name :  Intel(R) Xeon(R) Gold 6148 CPU @ 2.40GHz

 MEMORY| system memory details [Kb]
 MEMORY|                        rank 0           min           max       average
 MEMORY| MemTotal            196614300     196614300     196614300     196614300
 MEMORY| MemFree             181516960     180704960     181516960     181134186
 MEMORY| Buffers                     0             0             0             0
 MEMORY| Cached                1442628       1442628       1629516       1536082
 MEMORY| Slab                  1724896       1724896       1993352       1859124
 MEMORY| SReclaimable           171200        171200        190136        180668
 MEMORY| MemLikelyFree       183130788     182524612     183130788     182850937


 *** Fundamental physical constants (SI units) ***

 *** Literature: B. J. Mohr and B. N. Taylor,
 ***             CODATA recommended values of the fundamental physical
 ***             constants: 2006, Web Version 5.1
 ***             http://physics.nist.gov/constants

 Speed of light in vacuum [m/s]                             2.99792458000000E+08
 Magnetic constant or permeability of vacuum [N/A**2]       1.25663706143592E-06
 Electric constant or permittivity of vacuum [F/m]          8.85418781762039E-12
 Planck constant (h) [J*s]                                  6.62606896000000E-34
 Planck constant (h-bar) [J*s]                              1.05457162825177E-34
 Elementary charge [C]                                      1.60217648700000E-19
 Electron mass [kg]                                         9.10938215000000E-31
 Electron g factor [ ]                                     -2.00231930436220E+00
 Proton mass [kg]                                           1.67262163700000E-27
 Fine-structure constant                                    7.29735253760000E-03
 Rydberg constant [1/m]                                     1.09737315685270E+07
 Avogadro constant [1/mol]                                  6.02214179000000E+23
 Boltzmann constant [J/K]                                   1.38065040000000E-23
 Atomic mass unit [kg]                                      1.66053878200000E-27
 Bohr radius [m]                                            5.29177208590000E-11

 *** Conversion factors ***

 [u] -> [a.u.]                                              1.82288848426455E+03
 [Angstrom] -> [Bohr] = [a.u.]                              1.88972613288564E+00
 [a.u.] = [Bohr] -> [Angstrom]                              5.29177208590000E-01
 [a.u.] -> [s]                                              2.41888432650478E-17
 [a.u.] -> [fs]                                             2.41888432650478E-02
 [a.u.] -> [J]                                              4.35974393937059E-18
 [a.u.] -> [N]                                              8.23872205491840E-08
 [a.u.] -> [K]                                              3.15774647902944E+05
 [a.u.] -> [kJ/mol]                                         2.62549961709828E+03
 [a.u.] -> [kcal/mol]                                       6.27509468713739E+02
 [a.u.] -> [Pa]                                             2.94210107994716E+13
 [a.u.] -> [bar]                                            2.94210107994716E+08
 [a.u.] -> [atm]                                            2.90362800883016E+08
 [a.u.] -> [eV]                                             2.72113838565563E+01
 [a.u.] -> [Hz]                                             6.57968392072181E+15
 [a.u.] -> [1/cm] (wave numbers)                            2.19474631370540E+05
 [a.u./Bohr**2] -> [1/cm]                                   5.14048714338585E+03
 
          ----------------------------------------------------------------------
 COLVARS| COLVAR INPUT INDEX:        1
 COLVARS| BOND          >>> ATOMS:                                   176     211
          ----------------------------------------------------------------------

 CELL_TOP| Volume [angstrom^3]:                                         4586.323
 CELL_TOP| Vector a [angstrom    12.864     0.000     0.000    |a| =      12.864
 CELL_TOP| Vector b [angstrom    -6.432    11.141     0.000    |b| =      12.864
 CELL_TOP| Vector c [angstrom     0.000     0.000    32.000    |c| =      32.000
 CELL_TOP| Angle (b,c), alpha [degree]:                                   90.000
 CELL_TOP| Angle (a,c), beta  [degree]:                                   90.000
 CELL_TOP| Angle (a,b), gamma [degree]:                                  120.000
 CELL_TOP| Numerically orthorhombic:                                          NO
 RESTRAINT| Active restraint on COLLECTIVE section Nr.     1. K [a.u.]= 2.000000
 
 GENERATE|  Preliminary Number of Bonds generated:                             0
 GENERATE|  Achieved consistency in connectivity generation.

 CELL| Volume [angstrom^3]:                                             4586.323
 CELL| Vector a [angstrom]:      12.864     0.000     0.000    |a| =      12.864
 CELL| Vector b [angstrom]:      -6.432    11.141     0.000    |b| =      12.864
 CELL| Vector c [angstrom]:       0.000     0.000    32.000    |c| =      32.000
 CELL| Angle (b,c), alpha [degree]:                                       90.000
 CELL| Angle (a,c), beta  [degree]:                                       90.000
 CELL| Angle (a,b), gamma [degree]:                                      120.000
 CELL| Numerically orthorhombic:                                              NO

 CELL_REF| Volume [angstrom^3]:                                         4670.759
 CELL_REF| Vector a [angstrom    12.982     0.000     0.000    |a| =      12.982
 CELL_REF| Vector b [angstrom    -6.491    11.243     0.000    |b| =      12.982
 CELL_REF| Vector c [angstrom     0.000     0.000    32.000    |c| =      32.000
 CELL_REF| Angle (b,c), alpha [degree]:                                   90.000
 CELL_REF| Angle (a,c), beta  [degree]:                                   90.000
 CELL_REF| Angle (a,b), gamma [degree]:                                  120.000
 CELL_REF| Numerically orthorhombic:                                          NO

 *******************************************************************************
 *******************************************************************************
 **                                                                           **
 **     #####                         ##              ##                      **
 **    ##   ##            ##          ##              ##                      **
 **   ##     ##                       ##            ######                    **
 **   ##     ##  ##   ##  ##   #####  ##  ##   ####   ##    #####    #####    **
 **   ##     ##  ##   ##  ##  ##      ## ##   ##      ##   ##   ##  ##   ##   **
 **   ##  ## ##  ##   ##  ##  ##      ####     ###    ##   ######   ######    **
 **    ##  ###   ##   ##  ##  ##      ## ##      ##   ##   ##       ##        **
 **     #######   #####   ##   #####  ##  ##  ####    ##    #####   ##        **
 **           ##                                                    ##        **
 **                                                                           **
 **                                                ... make the atoms dance   **
 **                                                                           **
 **            Copyright (C) by CP2K developers group (2000 - 2018)           **
 **                                                                           **
 *******************************************************************************

 DFT| Spin unrestricted (spin-polarized) Kohn-Sham calculation               UKS
 DFT| Multiplicity                                                             1
 DFT| Number of spin states                                                    2
 DFT| Charge                                                                   0
 DFT| Self-interaction correction (SIC)                                       NO
 DFT| Cutoffs: density                                              1.000000E-10
 DFT|          gradient                                             1.000000E-10
 DFT|          tau                                                  1.000000E-10
 DFT|          cutoff_smoothing_range                               0.000000E+00
 DFT| XC density smoothing                                                  NONE
 DFT| XC derivatives                                                          PW
 FUNCTIONAL| ROUTINE=NEW
 FUNCTIONAL| PBE:
 FUNCTIONAL| J.P.Perdew, K.Burke, M.Ernzerhof, Phys. Rev. Letter, vol. 77, n 18,
 FUNCTIONAL|  pp. 3865-3868, (1996){spin polarized}                             
 vdW POTENTIAL|                                                   Pair Potential
 vdW POTENTIAL|          DFT-D3 (Version 3.1)
 vdW POTENTIAL|          Potential Form: S. Grimme et al, JCP 132: 154104 (2010)
 vdW POTENTIAL|          Zero Damping
 vdW POTENTIAL|          Cutoff Radius [Bohr]:                             18.90
 vdW POTENTIAL|          s6 Scaling Factor:                               1.0000
 vdW POTENTIAL|          sr6 Scaling Factor:                              1.2170
 vdW POTENTIAL|          s8 Scaling Factor:                               0.7220
 vdW POTENTIAL|          Cutoff for CN calculation:                   0.1000E-05

 QS| Method:                                                                 GPW
 QS| Density plane wave grid type                        NON-SPHERICAL FULLSPACE
 QS| Number of grid levels:                                                    5
 QS| Density cutoff [a.u.]:                                                600.0
 QS| Multi grid cutoff [a.u.]: 1) grid level                               600.0
 QS|                           2) grid level                               200.0
 QS|                           3) grid level                                66.7
 QS|                           4) grid level                                22.2
 QS|                           5) grid level                                 7.4
 QS| Grid level progression factor:                                          3.0
 QS| Relative density cutoff [a.u.]:                                        20.0
 QS| Consistent realspace mapping and integration 
 QS| Interaction thresholds: eps_pgf_orb:                                1.0E-07
 QS|                         eps_filter_matrix:                          0.0E+00
 QS|                         eps_core_charge:                            1.0E-16
 QS|                         eps_rho_gspace:                             1.0E-14
 QS|                         eps_rho_rspace:                             1.0E-14
 QS|                         eps_gvg_rspace:                             1.0E-07
 QS|                         eps_ppl:                                    1.0E-02
 QS|                         eps_ppnl:                                   1.0E-09


 ATOMIC KIND INFORMATION

  1. Atomic kind: N                                     Number of atoms:     100

     Orbital Basis Set                                        DZVP-MOLOPT-SR-GTH

       Number of orbital shell sets:                                           1
       Number of orbital shells:                                               5
       Number of primitive Cartesian functions:                                5
       Number of Cartesian basis functions:                                   14
       Number of spherical basis functions:                                   13
       Norm type:                                                              2

       Normalised Cartesian orbitals:

                        Set   Shell   Orbital            Exponent    Coefficient

                          1       1    2s                7.341988       0.360561
                                                         2.542637       0.139177
                                                         0.888575      -0.289383
                                                         0.333802      -0.182244
                                                         0.112012      -0.019197

                          1       2    3s                7.341988       0.282000
                                                         2.542637       0.177875
                                                         0.888575      -0.278381
                                                         0.333802       0.008577
                                                         0.112012       0.154176

                          1       3    3px               7.341988      -1.188719
                                                         2.542637      -0.973969
                                                         0.888575      -0.501079
                                                         0.333802      -0.144894
                                                         0.112012      -0.013986
                          1       3    3py               7.341988      -1.188719
                                                         2.542637      -0.973969
                                                         0.888575      -0.501079
                                                         0.333802      -0.144894
                                                         0.112012      -0.013986
                          1       3    3pz               7.341988      -1.188719
                                                         2.542637      -0.973969
                                                         0.888575      -0.501079
                                                         0.333802      -0.144894
                                                         0.112012      -0.013986

                          1       4    4px               7.341988      -0.094798
                                                         2.542637       0.050069
                                                         0.888575      -0.114797
                                                         0.333802       0.144793
                                                         0.112012       0.066710
                          1       4    4py               7.341988      -0.094798
                                                         2.542637       0.050069
                                                         0.888575      -0.114797
                                                         0.333802       0.144793
                                                         0.112012       0.066710
                          1       4    4pz               7.341988      -0.094798
                                                         2.542637       0.050069
                                                         0.888575      -0.114797
                                                         0.333802       0.144793
                                                         0.112012       0.066710

                          1       5    4dx2              7.341988       1.354688
                                                         2.542637       0.690378
                                                         0.888575       0.855359
                                                         0.333802       0.091746
                                                         0.112012       0.001253
                          1       5    4dxy              7.341988       2.346389
                                                         2.542637       1.195770
                                                         0.888575       1.481524
                                                         0.333802       0.158910
                                                         0.112012       0.002169
                          1       5    4dxz              7.341988       2.346389
                                                         2.542637       1.195770
                                                         0.888575       1.481524
                                                         0.333802       0.158910
                                                         0.112012       0.002169
                          1       5    4dy2              7.341988       1.354688
                                                         2.542637       0.690378
                                                         0.888575       0.855359
                                                         0.333802       0.091746
                                                         0.112012       0.001253
                          1       5    4dyz              7.341988       2.346389
                                                         2.542637       1.195770
                                                         0.888575       1.481524
                                                         0.333802       0.158910
                                                         0.112012       0.002169
                          1       5    4dz2              7.341988       1.354688
                                                         2.542637       0.690378
                                                         0.888575       0.855359
                                                         0.333802       0.091746
                                                         0.112012       0.001253

     GTH Potential information for                                    GTH-PBE-q5

       Description:                       Goedecker-Teter-Hutter pseudopotential
                                           Goedecker et al., PRB 54, 1703 (1996)
                                          Hartwigsen et al., PRB 58, 3641 (1998)
                                                      Krack, TCA 114, 145 (2005)

       Gaussian exponent of the core charge distribution:               6.208322
       Electronic configuration (s p d ...):                               2   3

       Parameters of the local part of the GTH pseudopotential:

                          rloc        C1          C2          C3          C4
                        0.283791  -12.415226    1.868096

       Parameters of the non-local part of the GTH pseudopotential:

                   l      r(l)      h(i,j,l)

                   0    0.255405   13.630263
                   1    0.245495

  2. Atomic kind: Ga                                    Number of atoms:     100

     Orbital Basis Set                                        DZVP-MOLOPT-SR-GTH

       Number of orbital shell sets:                                           1
       Number of orbital shells:                                               7
       Number of primitive Cartesian functions:                                6
       Number of Cartesian basis functions:                                   30
       Number of spherical basis functions:                                   25
       Norm type:                                                              2

       Normalised Cartesian orbitals:

                        Set   Shell   Orbital            Exponent    Coefficient

                          1       1    2s                7.066654       0.013136
                                                         3.428369      -0.094392
                                                         1.430064       0.265435
                                                         0.571611       0.056465
                                                         0.232197      -0.192187
                                                         0.076562      -0.044987

                          1       2    3s                7.066654      -0.098564
                                                         3.428369       0.010390
                                                         1.430064       0.351249
                                                         0.571611       0.182615
                                                         0.232197      -0.425358
                                                         0.076562       0.190349

                          1       3    3px               7.066654       0.002364
                                                         3.428369       0.019222
                                                         1.430064       0.250132
                                                         0.571611      -0.058486
                                                         0.232197      -0.159451
                                                         0.076562      -0.020696
                          1       3    3py               7.066654       0.002364
                                                         3.428369       0.019222
                                                         1.430064       0.250132
                                                         0.571611      -0.058486
                                                         0.232197      -0.159451
                                                         0.076562      -0.020696
                          1       3    3pz               7.066654       0.002364
                                                         3.428369       0.019222
                                                         1.430064       0.250132
                                                         0.571611      -0.058486
                                                         0.232197      -0.159451
                                                         0.076562      -0.020696

                          1       4    4px               7.066654       0.492448
                                                         3.428369      -0.614736
                                                         1.430064      -0.191654
                                                         0.571611       0.037801
                                                         0.232197       0.302315
                                                         0.076562      -0.071336
                          1       4    4py               7.066654       0.492448
                                                         3.428369      -0.614736
                                                         1.430064      -0.191654
                                                         0.571611       0.037801
                                                         0.232197       0.302315
                                                         0.076562      -0.071336
                          1       4    4pz               7.066654       0.492448
                                                         3.428369      -0.614736
                                                         1.430064      -0.191654
                                                         0.571611       0.037801
                                                         0.232197       0.302315
                                                         0.076562      -0.071336

                          1       5    4dx2              7.066654     -15.264855
                                                         3.428369      -5.345726
                                                         1.430064      -1.022732
                                                         0.571611      -0.123148
                                                         0.232197      -0.006983
                                                         0.076562      -0.000022
                          1       5    4dxy              7.066654     -26.439504
                                                         3.428369      -9.259069
                                                         1.430064      -1.771423
                                                         0.571611      -0.213299
                                                         0.232197      -0.012094
                                                         0.076562      -0.000037
                          1       5    4dxz              7.066654     -26.439504
                                                         3.428369      -9.259069
                                                         1.430064      -1.771423
                                                         0.571611      -0.213299
                                                         0.232197      -0.012094
                                                         0.076562      -0.000037
                          1       5    4dy2              7.066654     -15.264855
                                                         3.428369      -5.345726
                                                         1.430064      -1.022732
                                                         0.571611      -0.123148
                                                         0.232197      -0.006983
                                                         0.076562      -0.000022
                          1       5    4dyz              7.066654     -26.439504
                                                         3.428369      -9.259069
                                                         1.430064      -1.771423
                                                         0.571611      -0.213299
                                                         0.232197      -0.012094
                                                         0.076562      -0.000037
                          1       5    4dz2              7.066654     -15.264855
                                                         3.428369      -5.345726
                                                         1.430064      -1.022732
                                                         0.571611      -0.123148
                                                         0.232197      -0.006983
                                                         0.076562      -0.000022

                          1       6    5dx2              7.066654      -5.739265
                                                         3.428369      -2.129289
                                                         1.430064      -0.700423
                                                         0.571611       0.161606
                                                         0.232197       0.043513
                                                         0.076562       0.011205
                          1       6    5dxy              7.066654      -9.940698
                                                         3.428369      -3.688037
                                                         1.430064      -1.213168
                                                         0.571611       0.279909
                                                         0.232197       0.075368
                                                         0.076562       0.019407
                          1       6    5dxz              7.066654      -9.940698
                                                         3.428369      -3.688037
                                                         1.430064      -1.213168
                                                         0.571611       0.279909
                                                         0.232197       0.075368
                                                         0.076562       0.019407
                          1       6    5dy2              7.066654      -5.739265
                                                         3.428369      -2.129289
                                                         1.430064      -0.700423
                                                         0.571611       0.161606
                                                         0.232197       0.043513
                                                         0.076562       0.011205
                          1       6    5dyz              7.066654      -9.940698
                                                         3.428369      -3.688037
                                                         1.430064      -1.213168
                                                         0.571611       0.279909
                                                         0.232197       0.075368
                                                         0.076562       0.019407
                          1       6    5dz2              7.066654      -5.739265
                                                         3.428369      -2.129289
                                                         1.430064      -0.700423
                                                         0.571611       0.161606
                                                         0.232197       0.043513
                                                         0.076562       0.011205

                          1       7    5fx3              7.066654       0.705879
                                                         3.428369      -0.273976
                                                         1.430064       0.113667
                                                         0.571611       0.132480
                                                         0.232197       0.012437
                                                         0.076562       0.003241
                          1       7    5fx2y             7.066654       1.578393
                                                         3.428369      -0.612629
                                                         1.430064       0.254167
                                                         0.571611       0.296234
                                                         0.232197       0.027811
                                                         0.076562       0.007246
                          1       7    5fx2z             7.066654       1.578393
                                                         3.428369      -0.612629
                                                         1.430064       0.254167
                                                         0.571611       0.296234
                                                         0.232197       0.027811
                                                         0.076562       0.007246
                          1       7    5fxy2             7.066654       1.578393
                                                         3.428369      -0.612629
                                                         1.430064       0.254167
                                                         0.571611       0.296234
                                                         0.232197       0.027811
                                                         0.076562       0.007246
                          1       7    5fxyz             7.066654       2.733856
                                                         3.428369      -1.061105
                                                         1.430064       0.440230
                                                         0.571611       0.513092
                                                         0.232197       0.048170
                                                         0.076562       0.012551
                          1       7    5fxz2             7.066654       1.578393
                                                         3.428369      -0.612629
                                                         1.430064       0.254167
                                                         0.571611       0.296234
                                                         0.232197       0.027811
                                                         0.076562       0.007246
                          1       7    5fy3              7.066654       0.705879
                                                         3.428369      -0.273976
                                                         1.430064       0.113667
                                                         0.571611       0.132480
                                                         0.232197       0.012437
                                                         0.076562       0.003241
                          1       7    5fy2z             7.066654       1.578393
                                                         3.428369      -0.612629
                                                         1.430064       0.254167
                                                         0.571611       0.296234
                                                         0.232197       0.027811
                                                         0.076562       0.007246
                          1       7    5fyz2             7.066654       1.578393
                                                         3.428369      -0.612629
                                                         1.430064       0.254167
                                                         0.571611       0.296234
                                                         0.232197       0.027811
                                                         0.076562       0.007246
                          1       7    5fz3              7.066654       0.705879
                                                         3.428369      -0.273976
                                                         1.430064       0.113667
                                                         0.571611       0.132480
                                                         0.232197       0.012437
                                                         0.076562       0.003241

     GTH Potential information for                                   GTH-PBE-q13

       Description:                       Goedecker-Teter-Hutter pseudopotential
                                           Goedecker et al., PRB 54, 1703 (1996)
                                          Hartwigsen et al., PRB 58, 3641 (1998)
                                                      Krack, TCA 114, 145 (2005)

       Gaussian exponent of the core charge distribution:               2.082466
       Electronic configuration (s p d ...):                           2   1  10

       Parameters of the local part of the GTH pseudopotential:

                          rloc        C1          C2          C3          C4
                        0.490000

       Parameters of the non-local part of the GTH pseudopotential:

                   l      r(l)      h(i,j,l)

                   0    0.416777   10.475690   -4.921768    0.870706
                                   -4.921768    7.770178   -2.248152
                                    0.870706   -2.248152    1.784415
                   1    0.569627    1.777985    0.195860
                                    0.195860   -0.231744
                   2    0.238126  -16.248680

  3. Atomic kind: O                                     Number of atoms:       2

     Orbital Basis Set                                     DZVP-MOLOPT-SR-GTH-q6

       Number of orbital shell sets:                                           1
       Number of orbital shells:                                               5
       Number of primitive Cartesian functions:                                5
       Number of Cartesian basis functions:                                   14
       Number of spherical basis functions:                                   13
       Norm type:                                                              2

       Normalised Cartesian orbitals:

                        Set   Shell   Orbital            Exponent    Coefficient

                          1       1    2s               10.389228       0.396646
                                                         3.849621       0.208811
                                                         1.388401      -0.301641
                                                         0.496955      -0.274061
                                                         0.162492      -0.033677

                          1       2    3s               10.389228       0.303673
                                                         3.849621       0.240943
                                                         1.388401      -0.313066
                                                         0.496955      -0.043055
                                                         0.162492       0.213991

                          1       3    3px              10.389228      -1.530415
                                                         3.849621      -1.371928
                                                         1.388401      -0.761951
                                                         0.496955      -0.253695
                                                         0.162492      -0.035541
                          1       3    3py              10.389228      -1.530415
                                                         3.849621      -1.371928
                                                         1.388401      -0.761951
                                                         0.496955      -0.253695
                                                         0.162492      -0.035541
                          1       3    3pz              10.389228      -1.530415
                                                         3.849621      -1.371928
                                                         1.388401      -0.761951
                                                         0.496955      -0.253695
                                                         0.162492      -0.035541

                          1       4    4px              10.389228      -0.565392
                                                         3.849621      -0.038231
                                                         1.388401      -0.382373
                                                         0.496955       0.179070
                                                         0.162492       0.122714
                          1       4    4py              10.389228      -0.565392
                                                         3.849621      -0.038231
                                                         1.388401      -0.382373
                                                         0.496955       0.179070
                                                         0.162492       0.122714
                          1       4    4pz              10.389228      -0.565392
                                                         3.849621      -0.038231
                                                         1.388401      -0.382373
                                                         0.496955       0.179070
                                                         0.162492       0.122714

                          1       5    4dx2             10.389228       1.867377
                                                         3.849621       0.670994
                                                         1.388401       1.353441
                                                         0.496955       0.273538
                                                         0.162492       0.006620
                          1       5    4dxy             10.389228       3.234392
                                                         3.849621       1.162195
                                                         1.388401       2.344229
                                                         0.496955       0.473781
                                                         0.162492       0.011466
                          1       5    4dxz             10.389228       3.234392
                                                         3.849621       1.162195
                                                         1.388401       2.344229
                                                         0.496955       0.473781
                                                         0.162492       0.011466
                          1       5    4dy2             10.389228       1.867377
                                                         3.849621       0.670994
                                                         1.388401       1.353441
                                                         0.496955       0.273538
                                                         0.162492       0.006620
                          1       5    4dyz             10.389228       3.234392
                                                         3.849621       1.162195
                                                         1.388401       2.344229
                                                         0.496955       0.473781
                                                         0.162492       0.011466
                          1       5    4dz2             10.389228       1.867377
                                                         3.849621       0.670994
                                                         1.388401       1.353441
                                                         0.496955       0.273538
                                                         0.162492       0.006620

     GTH Potential information for                                    GTH-PBE-q6

       Description:                       Goedecker-Teter-Hutter pseudopotential
                                           Goedecker et al., PRB 54, 1703 (1996)
                                          Hartwigsen et al., PRB 58, 3641 (1998)
                                                      Krack, TCA 114, 145 (2005)

       Gaussian exponent of the core charge distribution:               8.360253
       Electronic configuration (s p d ...):                               2   4

       Parameters of the local part of the GTH pseudopotential:

                          rloc        C1          C2          C3          C4
                        0.244554  -16.667215    2.487311

       Parameters of the non-local part of the GTH pseudopotential:

                   l      r(l)      h(i,j,l)

                   0    0.220956   18.337458
                   1    0.211332

  4. Atomic kind: H                                     Number of atoms:       8

     Orbital Basis Set                                     DZVP-MOLOPT-SR-GTH-q1

       Number of orbital shell sets:                                           1
       Number of orbital shells:                                               3
       Number of primitive Cartesian functions:                                5
       Number of Cartesian basis functions:                                    5
       Number of spherical basis functions:                                    5
       Norm type:                                                              2

       Normalised Cartesian orbitals:

                        Set   Shell   Orbital            Exponent    Coefficient

                          1       1    2s               10.068468      -0.133023
                                                         2.680223      -0.177618
                                                         0.791502      -0.258419
                                                         0.239116      -0.107525
                                                         0.082193      -0.014019

                          1       2    3s               10.068468       0.344673
                                                         2.680223       1.819821
                                                         0.791502      -0.999069
                                                         0.239116       0.017430
                                                         0.082193       0.082660

                          1       3    3px              10.068468       0.155326
                                                         2.680223       0.367157
                                                         0.791502       0.311480
                                                         0.239116       0.080105
                                                         0.082193       0.033440
                          1       3    3py              10.068468       0.155326
                                                         2.680223       0.367157
                                                         0.791502       0.311480
                                                         0.239116       0.080105
                                                         0.082193       0.033440
                          1       3    3pz              10.068468       0.155326
                                                         2.680223       0.367157
                                                         0.791502       0.311480
                                                         0.239116       0.080105
                                                         0.082193       0.033440

     GTH Potential information for                                    GTH-PBE-q1

       Description:                       Goedecker-Teter-Hutter pseudopotential
                                           Goedecker et al., PRB 54, 1703 (1996)
                                          Hartwigsen et al., PRB 58, 3641 (1998)
                                                      Krack, TCA 114, 145 (2005)

       Gaussian exponent of the core charge distribution:              12.500000
       Electronic configuration (s p d ...):                                   1

       Parameters of the local part of the GTH pseudopotential:

                          rloc        C1          C2          C3          C4
                        0.200000   -4.178900    0.724463

  5. Atomic kind: C                                     Number of atoms:       2

     Orbital Basis Set                                     DZVP-MOLOPT-SR-GTH-q4

       Number of orbital shell sets:                                           1
       Number of orbital shells:                                               5
       Number of primitive Cartesian functions:                                5
       Number of Cartesian basis functions:                                   14
       Number of spherical basis functions:                                   13
       Norm type:                                                              2

       Normalised Cartesian orbitals:

                        Set   Shell   Orbital            Exponent    Coefficient

                          1       1    2s                5.605331       0.322515
                                                         2.113016       0.213043
                                                         0.769911      -0.209686
                                                         0.348157      -0.219794
                                                         0.128212      -0.022789

                          1       2    3s                5.605331       0.552234
                                                         2.113016       0.082072
                                                         0.769911       0.007843
                                                         0.348157       0.136893
                                                         0.128212       0.074283

                          1       3    3px               5.605331      -0.703879
                                                         2.113016      -0.642521
                                                         0.769911      -0.374851
                                                         0.348157      -0.139743
                                                         0.128212      -0.027849
                          1       3    3py               5.605331      -0.703879
                                                         2.113016      -0.642521
                                                         0.769911      -0.374851
                                                         0.348157      -0.139743
                                                         0.128212      -0.027849
                          1       3    3pz               5.605331      -0.703879
                                                         2.113016      -0.642521
                                                         0.769911      -0.374851
                                                         0.348157      -0.139743
                                                         0.128212      -0.027849

                          1       4    4px               5.605331      -0.480376
                                                         2.113016      -0.552894
                                                         0.769911      -0.316145
                                                         0.348157       0.210505
                                                         0.128212       0.076095
                          1       4    4py               5.605331      -0.480376
                                                         2.113016      -0.552894
                                                         0.769911      -0.316145
                                                         0.348157       0.210505
                                                         0.128212       0.076095
                          1       4    4pz               5.605331      -0.480376
                                                         2.113016      -0.552894
                                                         0.769911      -0.316145
                                                         0.348157       0.210505
                                                         0.128212       0.076095

                          1       5    4dx2              5.605331       0.640026
                                                         2.113016       0.274300
                                                         0.769911       0.446711
                                                         0.348157       0.028674
                                                         0.128212       0.029790
                          1       5    4dxy              5.605331       1.108557
                                                         2.113016       0.475102
                                                         0.769911       0.773726
                                                         0.348157       0.049666
                                                         0.128212       0.051599
                          1       5    4dxz              5.605331       1.108557
                                                         2.113016       0.475102
                                                         0.769911       0.773726
                                                         0.348157       0.049666
                                                         0.128212       0.051599
                          1       5    4dy2              5.605331       0.640026
                                                         2.113016       0.274300
                                                         0.769911       0.446711
                                                         0.348157       0.028674
                                                         0.128212       0.029790
                          1       5    4dyz              5.605331       1.108557
                                                         2.113016       0.475102
                                                         0.769911       0.773726
                                                         0.348157       0.049666
                                                         0.128212       0.051599
                          1       5    4dz2              5.605331       0.640026
                                                         2.113016       0.274300
                                                         0.769911       0.446711
                                                         0.348157       0.028674
                                                         0.128212       0.029790

     GTH Potential information for                                    GTH-PBE-q4

       Description:                       Goedecker-Teter-Hutter pseudopotential
                                           Goedecker et al., PRB 54, 1703 (1996)
                                          Hartwigsen et al., PRB 58, 3641 (1998)
                                                      Krack, TCA 114, 145 (2005)

       Gaussian exponent of the core charge distribution:               4.364419
       Electronic configuration (s p d ...):                               2   2

       Parameters of the local part of the GTH pseudopotential:

                          rloc        C1          C2          C3          C4
                        0.338471   -8.803674    1.339211

       Parameters of the non-local part of the GTH pseudopotential:

                   l      r(l)      h(i,j,l)

                   0    0.302576    9.622487
                   1    0.291507


 MOLECULE KIND INFORMATION


 All atoms are their own molecule, skipping detailed information


 TOTAL NUMBERS AND MAXIMUM NUMBERS

  Total number of            - Atomic kinds:                                   5
                             - Atoms:                                        212
                             - Shell sets:                                   212
                             - Shells:                                      1244
                             - Primitive Cartesian functions:               1160
                             - Cartesian basis functions:                   4496
                             - Spherical basis functions:                   3892

  Maximum angular momentum of- Orbital basis functions:                        3
                             - Local part of the GTH pseudopotential:          2
                             - Non-local part of the GTH pseudopotential:      4


 MODULE QUICKSTEP:  ATOMIC COORDINATES IN angstrom

  Atom  Kind  Element       X           Y           Z          Z(eff)       Mass

       1     1 N    7   -0.029864    2.104322    2.459680      5.00      14.0067
       2     2 Ga  31   -0.027537    0.154497    2.815447     13.00      69.7230
       3     1 N    7   -0.022862    0.105368    4.978271      5.00      14.0067
       4     2 Ga  31   -0.026150    1.939443    5.747271     13.00      69.7230
       5     1 N    7   -0.029735    1.952068    7.745738      5.00      14.0067
       6     2 Ga  31   -0.026561    0.108920    8.404426     13.00      69.7230
       7     1 N    7   -0.027066    0.105921   10.373059      5.00      14.0067
       8     2 Ga  31   -0.024058    1.944437   11.032314     13.00      69.7230
       9     1 N    7   -0.026282    1.925153   13.020492      5.00      14.0067
      10     2 Ga  31   -0.026440    0.105135   13.835511     13.00      69.7230
      11     1 N    7   -0.025714    0.105609   16.024100      5.00      14.0067
      12     2 Ga  31   -0.026998    2.149367   16.441047     13.00      69.7230
      13     2 Ga  31    0.038469    3.828347    1.301340     13.00      69.7230
      14     1 N    7   -1.493981    4.687195    2.485369      5.00      14.0067
      15     2 Ga  31   -1.693147    2.861482    3.206985     13.00      69.7230
      16     1 N    7   -1.653168    2.882110    5.178976      5.00      14.0067
      17     2 Ga  31   -1.654704    4.742059    5.797222     13.00      69.7230
      18     1 N    7   -1.641337    4.746803    7.774139      5.00      14.0067
      19     2 Ga  31   -1.624630    2.888518    8.408835     13.00      69.7230
      20     1 N    7   -1.623079    2.895012   10.392320      5.00      14.0067
      21     2 Ga  31   -1.653331    4.754501   11.035309     13.00      69.7230
      22     1 N    7   -1.668770    4.766289   13.022123      5.00      14.0067
      23     2 Ga  31   -1.624861    2.896596   13.579927     13.00      69.7230
      24     1 N    7   -1.651079    2.882656   15.537578      5.00      14.0067
      25     2 Ga  31   -1.470029    4.652453   16.441143     13.00      69.7230
      26     1 N    7   -0.021869    3.815811   17.583068      5.00      14.0067
      27     1 N    7   -3.225722    7.664733    2.516664      5.00      14.0067
      28     2 Ga  31   -3.117579    5.688078    2.988360     13.00      69.7230
      29     1 N    7   -3.212630    5.694964    5.044825      5.00      14.0067
      30     2 Ga  31   -3.241902    7.506623    5.809786     13.00      69.7230
      31     1 N    7   -3.242432    7.527329    7.778657      5.00      14.0067
      32     2 Ga  31   -3.252367    5.668709    8.403657     13.00      69.7230
      33     1 N    7   -3.245691    5.674226   10.372399      5.00      14.0067
      34     2 Ga  31   -3.247895    7.512642   11.035517     13.00      69.7230
      35     1 N    7   -3.245209    7.494698   13.022428      5.00      14.0067
      36     2 Ga  31   -3.244739    5.675169   13.838843     13.00      69.7230
      37     1 N    7   -3.243455    5.676081   16.022984      5.00      14.0067
      38     2 Ga  31   -3.243502    7.724663   16.443329     13.00      69.7230
      39     2 Ga  31   -3.226423    9.420498    1.450525     13.00      69.7230
      40     1 N    7   -4.747526   10.248900    2.485606      5.00      14.0067
      41     2 Ga  31   -4.889307    8.437090    3.293796     13.00      69.7230
      42     1 N    7   -4.859373    8.450854    5.216025      5.00      14.0067
      43     2 Ga  31   -4.878910   10.341928    5.769266     13.00      69.7230
      44     1 N    7   -4.861281   10.321484    7.755062      5.00      14.0067
      45     2 Ga  31   -4.852259    8.465204    8.400730     13.00      69.7230
      46     1 N    7   -4.843992    8.466899   10.385321      5.00      14.0067
      47     2 Ga  31   -4.866796   10.327668   11.030769     13.00      69.7230
      48     1 N    7   -4.883524   10.336497   13.018876      5.00      14.0067
      49     2 Ga  31   -4.842216    8.467665   13.581621     13.00      69.7230
      50     1 N    7   -4.871212    8.452737   15.537478      5.00      14.0067
      51     2 Ga  31   -4.681083   10.221178   16.444381     13.00      69.7230
      52     1 N    7   -3.238828    9.388454   17.574812      5.00      14.0067
      53     1 N    7    3.182686    1.960084    2.553739      5.00      14.0067
      54     2 Ga  31    3.196902    0.239814    3.251250     13.00      69.7230
      55     1 N    7    3.191987    0.097866    5.211050      5.00      14.0067
      56     2 Ga  31    3.216819    1.986451    5.787354     13.00      69.7230
      57     1 N    7    3.196565    1.964599    7.777605      5.00      14.0067
      58     2 Ga  31    3.186401    0.105358    8.399318     13.00      69.7230
      59     1 N    7    3.187375    0.094837   10.386701      5.00      14.0067
      60     2 Ga  31    3.192463    1.965533   10.980471     13.00      69.7230
      61     1 N    7    3.189999    1.964118   12.946680      5.00      14.0067
      62     2 Ga  31    3.188087    0.095901   13.579176     13.00      69.7230
      63     1 N    7    3.186770    0.127927   15.535445      5.00      14.0067
      64     2 Ga  31    3.188211    1.963879   15.819869     13.00      69.7230
      65     1 N    7    1.443601    4.693285    2.487666      5.00      14.0067
      66     2 Ga  31    1.673998    2.847764    3.226735     13.00      69.7230
      67     1 N    7    1.582717    2.893741    5.204437      5.00      14.0067
      68     2 Ga  31    1.610971    4.749089    5.791219     13.00      69.7230
      69     1 N    7    1.591258    4.752495    7.771517      5.00      14.0067
      70     2 Ga  31    1.578464    2.887671    8.389175     13.00      69.7230
      71     1 N    7    1.571165    2.894232   10.380646      5.00      14.0067
      72     2 Ga  31    1.602201    4.752602   11.028679     13.00      69.7230
      73     1 N    7    1.615256    4.765786   13.018364      5.00      14.0067
      74     2 Ga  31    1.571751    2.896903   13.579199     13.00      69.7230
      75     1 N    7    1.596365    2.882602   15.537723      5.00      14.0067
      76     2 Ga  31    1.419936    4.654618   16.441843     13.00      69.7230
      77     1 N    7   -0.025435    7.517991    2.689438      5.00      14.0067
      78     2 Ga  31   -0.025289    5.654810    3.323509     13.00      69.7230
      79     1 N    7   -0.026735    5.688662    5.253259      5.00      14.0067
      80     2 Ga  31   -0.020993    7.527012    5.897319     13.00      69.7230
      81     1 N    7   -0.026104    7.533334    7.845910      5.00      14.0067
      82     2 Ga  31   -0.023955    5.657894    8.423016     13.00      69.7230
      83     1 N    7   -0.026520    5.661791   10.402707      5.00      14.0067
      84     2 Ga  31   -0.025301    7.531110   11.001952     13.00      69.7230
      85     1 N    7   -0.025961    7.532879   12.963594      5.00      14.0067
      86     2 Ga  31   -0.026314    5.660900   13.581561     13.00      69.7230
      87     1 N    7   -0.027312    5.693480   15.538853      5.00      14.0067
      88     2 Ga  31   -0.025846    7.532552   15.816499     13.00      69.7230
      89     1 N    7   -1.728841   10.240204    2.512102      5.00      14.0067
      90     2 Ga  31   -1.600232    8.456662    3.332050     13.00      69.7230
      91     1 N    7   -1.620829    8.454370    5.250983      5.00      14.0067
      92     2 Ga  31   -1.612709   10.340902    5.807185     13.00      69.7230
      93     1 N    7   -1.629500   10.319782    7.783146      5.00      14.0067
      94     2 Ga  31   -1.646580    8.470388    8.432957     13.00      69.7230
      95     1 N    7   -1.646239    8.467384   10.409493      5.00      14.0067
      96     2 Ga  31   -1.619779   10.333249   11.035264     13.00      69.7230
      97     1 N    7   -1.603051   10.338891   13.022692      5.00      14.0067
      98     2 Ga  31   -1.648121    8.469010   13.582276     13.00      69.7230
      99     1 N    7   -1.616275    8.450873   15.538957      5.00      14.0067
     100     2 Ga  31   -1.801004   10.224066   16.442329     13.00      69.7230
     101     1 N    7    6.452386    1.963500    2.485350      5.00      14.0067
     102     2 Ga  31    6.409483    0.118086    2.921281     13.00      69.7230
     103     1 N    7    6.401721    0.075384    5.049065      5.00      14.0067
     104     2 Ga  31    6.392815    1.950646    5.712773     13.00      69.7230
     105     1 N    7    6.406093    1.955596    7.726744      5.00      14.0067
     106     2 Ga  31    6.405787    0.119089    8.405634     13.00      69.7230
     107     1 N    7    6.406344    0.109299   10.375724      5.00      14.0067
     108     2 Ga  31    6.404035    1.950732   11.024708     13.00      69.7230
     109     1 N    7    6.404609    1.927174   13.015219      5.00      14.0067
     110     2 Ga  31    6.405150    0.108122   13.836858     13.00      69.7230
     111     1 N    7    6.405555    0.106982   16.023294      5.00      14.0067
     112     2 Ga  31    6.404860    2.154884   16.442334     13.00      69.7230
     113     2 Ga  31    8.907548    1.631026    0.619295     13.00      69.7230
     114     1 N    7    4.719964    4.736265    2.489309      5.00      14.0067
     115     2 Ga  31    4.802475    2.810380    3.024938     13.00      69.7230
     116     1 N    7    4.805189    2.896073    5.098728      5.00      14.0067
     117     2 Ga  31    4.800430    4.752511    5.675174     13.00      69.7230
     118     1 N    7    4.796744    4.756897    7.700181      5.00      14.0067
     119     2 Ga  31    4.810876    2.903017    8.370841     13.00      69.7230
     120     1 N    7    4.808839    2.900340   10.368798      5.00      14.0067
     121     2 Ga  31    4.784192    4.753837   11.026325     13.00      69.7230
     122     1 N    7    4.765868    4.766015   13.015404      5.00      14.0067
     123     2 Ga  31    4.807691    2.897548   13.578417     13.00      69.7230
     124     1 N    7    4.777850    2.881988   15.534116      5.00      14.0067
     125     2 Ga  31    4.968118    4.648996   16.444061     13.00      69.7230
     126     1 N    7    6.409964    3.816656   17.575109      5.00      14.0067
     127     1 N    7    3.167354    7.676769    2.474585      5.00      14.0067
     128     1 N    7    3.165005    5.693326    5.012157      5.00      14.0067
     129     2 Ga  31    3.190858    7.500813    5.790947     13.00      69.7230
     130     1 N    7    3.190445    7.526510    7.766787      5.00      14.0067
     131     2 Ga  31    3.204835    5.668138    8.394594     13.00      69.7230
     132     1 N    7    3.194302    5.674952   10.367076      5.00      14.0067
     133     2 Ga  31    3.194866    7.511657   11.033665     13.00      69.7230
     134     1 N    7    3.191013    7.494912   13.021411      5.00      14.0067
     135     2 Ga  31    3.191038    5.674723   13.834721     13.00      69.7230
     136     1 N    7    3.191044    5.675560   16.024321      5.00      14.0067
     137     2 Ga  31    3.189428    7.719666   16.444322     13.00      69.7230
     138     2 Ga  31    3.158098    9.462433    1.300524     13.00      69.7230
     139     1 N    7    1.675282   10.256704    2.522744      5.00      14.0067
     140     2 Ga  31    1.568039    8.463553    3.301053     13.00      69.7230
     141     1 N    7    1.569896    8.454464    5.234165      5.00      14.0067
     142     2 Ga  31    1.551331   10.335255    5.803637     13.00      69.7230
     143     1 N    7    1.576988   10.319711    7.779942      5.00      14.0067
     144     2 Ga  31    1.596763    8.467984    8.428452     13.00      69.7230
     145     1 N    7    1.594562    8.467245   10.406205      5.00      14.0067
     146     2 Ga  31    1.566018   10.331396   11.036529     13.00      69.7230
     147     1 N    7    1.548834   10.338073   13.023303      5.00      14.0067
     148     2 Ga  31    1.594713    8.469014   13.583677     13.00      69.7230
     149     1 N    7    1.566294    8.453811   15.541301      5.00      14.0067
     150     2 Ga  31    1.746044   10.224319   16.443181     13.00      69.7230
     151     1 N    7    3.194836    9.388583   17.584361      5.00      14.0067
     152     1 N    7    9.589287    1.940728    2.526153      5.00      14.0067
     153     2 Ga  31    9.619422    0.165755    3.294268     13.00      69.7230
     154     1 N    7    9.620874    0.112690    5.228159      5.00      14.0067
     155     2 Ga  31    9.609408    1.981365    5.836745     13.00      69.7230
     156     1 N    7    9.619243    1.965381    7.804309      5.00      14.0067
     157     2 Ga  31    9.625586    0.098335    8.406010     13.00      69.7230
     158     1 N    7    9.624113    0.093069   10.390740      5.00      14.0067
     159     2 Ga  31    9.618564    1.963927   10.985209     13.00      69.7230
     160     1 N    7    9.620298    1.962645   12.951158      5.00      14.0067
     161     2 Ga  31    9.621533    0.093933   13.581634     13.00      69.7230
     162     1 N    7    9.621291    0.123822   15.539422      5.00      14.0067
     163     2 Ga  31    9.621738    1.962494   15.818122     13.00      69.7230
     164     1 N    7    8.131842    4.721937    2.493019      5.00      14.0067
     165     2 Ga  31    7.979471    2.863811    3.189077     13.00      69.7230
     166     1 N    7    8.024576    2.900284    5.163611      5.00      14.0067
     167     2 Ga  31    8.010506    4.773937    5.711995     13.00      69.7230
     168     1 N    7    8.015720    4.759648    7.718516      5.00      14.0067
     169     2 Ga  31    7.995693    2.902450    8.381082     13.00      69.7230
     170     1 N    7    8.002026    2.899999   10.375064      5.00      14.0067
     171     2 Ga  31    8.025971    4.755024   11.028928     13.00      69.7230
     172     1 N    7    8.044441    4.766587   13.017395      5.00      14.0067
     173     2 Ga  31    8.001126    2.897619   13.579345     13.00      69.7230
     174     1 N    7    8.032212    2.880220   15.535631      5.00      14.0067
     175     2 Ga  31    7.846800    4.651979   16.442593     13.00      69.7230
     176     1 N    7    6.391320    7.583582    2.587700      5.00      14.0067
     177     2 Ga  31    6.408623    5.645816    2.927462     13.00      69.7230
     178     1 N    7    6.410694    5.679950    5.019918      5.00      14.0067
     179     2 Ga  31    6.397993    7.479282    5.800362     13.00      69.7230
     180     1 N    7    6.404295    7.521484    7.775050      5.00      14.0067
     181     2 Ga  31    6.401260    5.657787    8.386397     13.00      69.7230
     182     1 N    7    6.404993    5.662491   10.375968      5.00      14.0067
     183     2 Ga  31    6.404801    7.529220   10.986876     13.00      69.7230
     184     1 N    7    6.404308    7.532418   12.950590      5.00      14.0067
     185     2 Ga  31    6.404526    5.663612   13.580009     13.00      69.7230
     186     1 N    7    6.403521    5.697824   15.535360      5.00      14.0067
     187     2 Ga  31    6.403932    7.533364   15.822189     13.00      69.7230
     188     1 N    7    4.693518   10.280097    2.491022      5.00      14.0067
     189     2 Ga  31    4.801041    8.461383    3.258816     13.00      69.7230
     190     1 N    7    4.803329    8.454781    5.196033      5.00      14.0067
     191     2 Ga  31    4.835594   10.336181    5.768623     13.00      69.7230
     192     1 N    7    4.808446   10.320720    7.753482      5.00      14.0067
     193     2 Ga  31    4.796088    8.463627    8.398265     13.00      69.7230
     194     1 N    7    4.789917    8.467295   10.383863      5.00      14.0067
     195     2 Ga  31    4.814561   10.326525   11.033116     13.00      69.7230
     196     1 N    7    4.829497   10.336056   13.020886      5.00      14.0067
     197     2 Ga  31    4.786883    8.467377   13.583212     13.00      69.7230
     198     1 N    7    4.812626    8.453356   15.541444      5.00      14.0067
     199     2 Ga  31    4.636419   10.226439   16.443763     13.00      69.7230
     200     3 O    8    0.006856    3.867491   -0.512367      6.00      15.9994
     201     4 H    1   -0.035556    7.504972    1.662791      1.00       1.0079
     202     5 C    6   -0.717583    2.823074   -1.169237      4.00      12.0107
     203     4 H    1   -0.415157    1.817925   -0.830818      1.00       1.0079
     204     4 H    1   -1.811684    2.920414   -1.029084      1.00       1.0079
     205     4 H    1   -0.511663    2.900976   -2.247014      1.00       1.0079
     206     2 Ga  31    3.086719    5.700846    2.930664     13.00      69.7230
     207     3 O    8    6.779604    5.451397    0.745278      6.00      15.9994
     208     4 H    1    4.832413    4.713269    1.464040      1.00       1.0079
     209     5 C    6    7.935788    4.807033    0.993386      4.00      12.0107
     210     4 H    1    8.829309    5.285744    0.529267      1.00       1.0079
     211     4 H    1    6.419136    7.629358    1.672649      1.00       1.0079
     212     4 H    1    7.948683    3.735538    0.568384      1.00       1.0079




 SCF PARAMETERS         Density guess:                                    ATOMIC
                        --------------------------------------------------------
                        max_scf:                                              80
                        max_scf_history:                                       0
                        max_diis:                                              4
                        --------------------------------------------------------
                        eps_scf:                                        5.00E-06
                        eps_scf_history:                                0.00E+00
                        eps_diis:                                       1.00E-01
                        eps_eigval:                                     1.00E-05
                        --------------------------------------------------------
                        level_shift [a.u.]:                                 0.00
                        --------------------------------------------------------
                        Outer loop SCF in use 
                        No variables optimised in outer loop
                        eps_scf                                         5.00E-06
                        max_scf                                                4
                        No outer loop optimization
                        step_size                                       5.00E-01

 PW_GRID| Information for grid number                                          1
 PW_GRID| Grid distributed over                                    80 processors
 PW_GRID| Real space group dimensions                                    80    1
 PW_GRID| the grid is blocked:                                                NO
 PW_GRID| Cutoff [a.u.]                                                    600.0
 PW_GRID| spherical cutoff:                                                   NO
 PW_GRID|   Bounds   1           -144     143                Points:         288
 PW_GRID|   Bounds   2           -144     143                Points:         288
 PW_GRID|   Bounds   3           -337     337                Points:         675
 PW_GRID| Volume element (a.u.^3)  0.5630E-03     Volume (a.u.^3)     31519.8467
 PW_GRID| Grid span                                                    FULLSPACE
 PW_GRID|   Distribution                         Average         Max         Min
 PW_GRID|   G-Vectors                           699840.0      699840      699840
 PW_GRID|   G-Rays                                2430.0        2430        2430
 PW_GRID|   Real Space Points                   699840.0      777600      583200

 PW_GRID| Information for grid number                                          2
 PW_GRID| Grid distributed over                                    80 processors
 PW_GRID| Real space group dimensions                                    80    1
 PW_GRID| the grid is blocked:                                                NO
 PW_GRID| Cutoff [a.u.]                                                    200.0
 PW_GRID| spherical cutoff:                                                   NO
 PW_GRID|   Bounds   1            -80      79                Points:         160
 PW_GRID|   Bounds   2            -80      79                Points:         160
 PW_GRID|   Bounds   3           -200     199                Points:         400
 PW_GRID| Volume element (a.u.^3)  0.3078E-02     Volume (a.u.^3)     31519.8467
 PW_GRID| Grid span                                                    FULLSPACE
 PW_GRID|   Distribution                         Average         Max         Min
 PW_GRID|   G-Vectors                           128000.0      128160      127840
 PW_GRID|   G-Rays                                 800.0         801         799
 PW_GRID|   Real Space Points                   128000.0      128000      128000

 PW_GRID| Information for grid number                                          3
 PW_GRID| Grid distributed over                                    80 processors
 PW_GRID| Real space group dimensions                                    80    1
 PW_GRID| the grid is blocked:                                                NO
 PW_GRID| Cutoff [a.u.]                                                     66.7
 PW_GRID| spherical cutoff:                                                   NO
 PW_GRID|   Bounds   1            -48      47                Points:          96
 PW_GRID|   Bounds   2            -48      47                Points:          96
 PW_GRID|   Bounds   3           -112     112                Points:         225
 PW_GRID| Volume element (a.u.^3)  0.1520E-01     Volume (a.u.^3)     31519.8467
 PW_GRID| Grid span                                                    FULLSPACE
[...]
      6       Ga     2      13.000    6.949   6.950           -0.001     -0.899
      7       N      1       5.000    2.052   2.052           -0.000      0.896
      8       Ga     2      13.000    6.939   6.939           -0.000     -0.878
      9       N      1       5.000    2.060   2.060           -0.000      0.880
     10       Ga     2      13.000    6.873   6.874           -0.001     -0.746
     11       N      1       5.000    2.132   2.133           -0.001      0.734
     12       Ga     2      13.000    6.921   6.911            0.010     -0.832
     13       Ga     2      13.000    6.938   6.939           -0.000     -0.877
     14       N      1       5.000    2.108   2.108           -0.000      0.784
     15       Ga     2      13.000    6.950   6.950           -0.001     -0.900
     16       N      1       5.000    2.054   2.054           -0.001      0.892
     17       Ga     2      13.000    6.938   6.939           -0.000     -0.877
     18       N      1       5.000    2.059   2.059           -0.000      0.882
     19       Ga     2      13.000    6.939   6.939           -0.001     -0.878
     20       N      1       5.000    2.061   2.062           -0.000      0.877
     21       Ga     2      13.000    6.939   6.939           -0.000     -0.878
     22       N      1       5.000    2.059   2.059           -0.000      0.881
     23       Ga     2      13.000    6.950   6.950            0.000     -0.900
     24       N      1       5.000    2.054   2.047            0.007      0.900
     25       Ga     2      13.000    6.919   6.910            0.010     -0.829
     26       N      1       5.000    2.328   2.136            0.192      0.536
     27       N      1       5.000    2.101   2.101           -0.001      0.798
     28       Ga     2      13.000    7.025   7.025           -0.000     -1.050
     29       N      1       5.000    2.081   2.081           -0.000      0.838
     30       Ga     2      13.000    6.944   6.944           -0.000     -0.889
     31       N      1       5.000    2.058   2.058           -0.000      0.884
     32       Ga     2      13.000    6.949   6.949           -0.000     -0.898
     33       N      1       5.000    2.052   2.052           -0.000      0.897
     34       Ga     2      13.000    6.938   6.939           -0.000     -0.877
     35       N      1       5.000    2.059   2.060           -0.000      0.881
     36       Ga     2      13.000    6.873   6.874           -0.001     -0.747
     37       N      1       5.000    2.133   2.134           -0.001      0.733
     38       Ga     2      13.000    6.920   6.910            0.010     -0.831
     39       Ga     2      13.000    6.718   6.725           -0.008     -0.443
     40       N      1       5.000    2.096   2.096           -0.001      0.808
     41       Ga     2      13.000    6.973   6.973           -0.000     -0.946
     42       N      1       5.000    2.052   2.052           -0.000      0.896
     43       Ga     2      13.000    6.944   6.946           -0.002     -0.890
     44       N      1       5.000    2.060   2.061           -0.001      0.879
     45       Ga     2      13.000    6.938   6.939           -0.001     -0.877
     46       N      1       5.000    2.061   2.062           -0.000      0.877
     47       Ga     2      13.000    6.939   6.939           -0.000     -0.878
     48       N      1       5.000    2.060   2.060            0.000      0.881
     49       Ga     2      13.000    6.950   6.950            0.001     -0.900
     50       N      1       5.000    2.054   2.046            0.008      0.900
     51       Ga     2      13.000    6.921   6.911            0.010     -0.831
     52       N      1       5.000    2.328   2.134            0.195      0.538
     53       N      1       5.000    2.119   2.118            0.001      0.763
     54       Ga     2      13.000    6.950   6.950           -0.001     -0.900
     55       N      1       5.000    2.052   2.052           -0.000      0.896
     56       Ga     2      13.000    6.933   6.933           -0.000     -0.866
     57       N      1       5.000    2.059   2.059           -0.000      0.882
     58       Ga     2      13.000    6.939   6.939           -0.001     -0.878
     59       N      1       5.000    2.061   2.062           -0.000      0.877
     60       Ga     2      13.000    6.946   6.947           -0.000     -0.893
     61       N      1       5.000    2.063   2.061            0.002      0.876
     62       Ga     2      13.000    6.950   6.950            0.001     -0.900
     63       N      1       5.000    2.054   2.046            0.008      0.900
     64       Ga     2      13.000    6.859   6.857            0.002     -0.716
     65       N      1       5.000    2.089   2.089            0.000      0.822
     66       Ga     2      13.000    6.960   6.960            0.000     -0.919
     67       N      1       5.000    2.053   2.053           -0.000      0.895
     68       Ga     2      13.000    6.941   6.943           -0.002     -0.884
     69       N      1       5.000    2.058   2.059           -0.001      0.883
     70       Ga     2      13.000    6.937   6.938           -0.000     -0.875
     71       N      1       5.000    2.062   2.062           -0.000      0.876
     72       Ga     2      13.000    6.938   6.938           -0.000     -0.876
     73       N      1       5.000    2.060   2.060           -0.000      0.880
     74       Ga     2      13.000    6.950   6.949            0.001     -0.899
     75       N      1       5.000    2.057   2.043            0.014      0.900
     76       Ga     2      13.000    6.920   6.910            0.010     -0.830
     77       N      1       5.000    2.236   2.236            0.000      0.528
     78       Ga     2      13.000    6.994   6.994           -0.000     -0.988
     79       N      1       5.000    2.049   2.049           -0.000      0.902
     80       Ga     2      13.000    6.946   6.948           -0.002     -0.895
     81       N      1       5.000    2.053   2.054           -0.001      0.892
     82       Ga     2      13.000    6.939   6.939           -0.001     -0.878
     83       N      1       5.000    2.060   2.061           -0.000      0.879
     84       Ga     2      13.000    6.946   6.946           -0.000     -0.892
     85       N      1       5.000    2.062   2.060            0.002      0.877
     86       Ga     2      13.000    6.950   6.950            0.001     -0.900
     87       N      1       5.000    2.054   2.047            0.007      0.900
     88       Ga     2      13.000    6.859   6.857            0.002     -0.716
     89       N      1       5.000    2.095   2.096           -0.001      0.810
     90       Ga     2      13.000    6.988   6.988           -0.000     -0.976
     91       N      1       5.000    2.047   2.048           -0.000      0.905
     92       Ga     2      13.000    6.947   6.948           -0.001     -0.895
     93       N      1       5.000    2.057   2.058           -0.001      0.885
     94       Ga     2      13.000    6.940   6.940           -0.001     -0.880
     95       N      1       5.000    2.060   2.060           -0.000      0.880
     96       Ga     2      13.000    6.938   6.938           -0.000     -0.876
     97       N      1       5.000    2.060   2.060           -0.000      0.881
     98       Ga     2      13.000    6.950   6.948            0.002     -0.898
     99       N      1       5.000    2.057   2.043            0.015      0.900
    100       Ga     2      13.000    6.921   6.911            0.010     -0.831
    101       N      1       5.000    2.125   2.137           -0.012      0.738
    102       Ga     2      13.000    6.933   6.944           -0.011     -0.877
    103       N      1       5.000    2.084   2.090           -0.006      0.826
    104       Ga     2      13.000    6.933   6.935           -0.002     -0.868
    105       N      1       5.000    2.065   2.065           -0.000      0.870
    106       Ga     2      13.000    6.947   6.947           -0.000     -0.894
    107       N      1       5.000    2.052   2.052           -0.000      0.895
    108       Ga     2      13.000    6.939   6.940           -0.000     -0.879
    109       N      1       5.000    2.060   2.060           -0.000      0.881
    110       Ga     2      13.000    6.873   6.874           -0.001     -0.747
    111       N      1       5.000    2.133   2.134           -0.001      0.733
    112       Ga     2      13.000    6.919   6.911            0.008     -0.830
    113       Ga     2      13.000    6.665   6.705           -0.039     -0.370
    114       N      1       5.000    2.243   2.242            0.000      0.515
    115       Ga     2      13.000    7.029   7.031           -0.001     -1.060
    116       N      1       5.000    2.067   2.068           -0.001      0.866
    117       Ga     2      13.000    6.941   6.943           -0.002     -0.884
    118       N      1       5.000    2.062   2.062           -0.000      0.876
    119       Ga     2      13.000    6.938   6.939           -0.001     -0.877
    120       N      1       5.000    2.062   2.063           -0.000      0.875
    121       Ga     2      13.000    6.939   6.939           -0.000     -0.878
    122       N      1       5.000    2.060   2.060           -0.000      0.881
    123       Ga     2      13.000    6.951   6.950            0.001     -0.901
    124       N      1       5.000    2.053   2.048            0.005      0.899
    125       Ga     2      13.000    6.918   6.911            0.008     -0.829
    126       N      1       5.000    2.309   2.158            0.151      0.533
    127       N      1       5.000    2.060   2.143           -0.083      0.797
    128       N      1       5.000    2.082   2.088           -0.007      0.830
    129       Ga     2      13.000    6.942   6.944           -0.003     -0.886
    130       N      1       5.000    2.059   2.061           -0.001      0.880
    131       Ga     2      13.000    6.949   6.949           -0.001     -0.898
    132       N      1       5.000    2.052   2.052           -0.000      0.896
    133       Ga     2      13.000    6.939   6.939           -0.000     -0.878
    134       N      1       5.000    2.059   2.060           -0.000      0.881
    135       Ga     2      13.000    6.873   6.874           -0.001     -0.746
    136       N      1       5.000    2.133   2.134           -0.001      0.733
    137       Ga     2      13.000    6.920   6.910            0.010     -0.830
    138       Ga     2      13.000    6.477   6.922           -0.445     -0.399
    139       N      1       5.000    2.064   2.147           -0.083      0.788
    140       Ga     2      13.000    6.990   7.002           -0.012     -0.993
    141       N      1       5.000    2.046   2.055           -0.009      0.899
    142       Ga     2      13.000    6.943   6.945           -0.002     -0.888
    143       N      1       5.000    2.058   2.059           -0.001      0.884
    144       Ga     2      13.000    6.939   6.940           -0.001     -0.879
    145       N      1       5.000    2.060   2.061           -0.000      0.879
    146       Ga     2      13.000    6.938   6.939           -0.000     -0.877
    147       N      1       5.000    2.060   2.060           -0.000      0.881
    148       Ga     2      13.000    6.950   6.950            0.001     -0.900
    149       N      1       5.000    2.054   2.047            0.007      0.900
    150       Ga     2      13.000    6.919   6.910            0.010     -0.829
    151       N      1       5.000    2.325   2.140            0.185      0.535
    152       N      1       5.000    2.064   2.075           -0.011      0.861
    153       Ga     2      13.000    6.930   6.942           -0.012     -0.872
    154       N      1       5.000    2.048   2.054           -0.006      0.898
    155       Ga     2      13.000    6.943   6.945           -0.002     -0.887
    156       N      1       5.000    2.057   2.058           -0.001      0.885
    157       Ga     2      13.000    6.938   6.938           -0.001     -0.876
    158       N      1       5.000    2.062   2.062           -0.000      0.876
    159       Ga     2      13.000    6.946   6.947           -0.000     -0.893
    160       N      1       5.000    2.063   2.061            0.002      0.876
    161       Ga     2      13.000    6.950   6.950            0.000     -0.900
    162       N      1       5.000    2.053   2.047            0.006      0.900
    163       Ga     2      13.000    6.859   6.857            0.002     -0.716
    164       N      1       5.000    2.196   2.196           -0.000      0.607
    165       Ga     2      13.000    7.006   7.007           -0.001     -1.012
    166       N      1       5.000    2.059   2.061           -0.001      0.880
    167       Ga     2      13.000    6.942   6.942           -0.000     -0.884
    168       N      1       5.000    2.061   2.061           -0.000      0.878
    169       Ga     2      13.000    6.939   6.940           -0.001     -0.879
    170       N      1       5.000    2.062   2.062           -0.000      0.876
    171       Ga     2      13.000    6.939   6.939           -0.000     -0.878
    172       N      1       5.000    2.060   2.060           -0.000      0.881
    173       Ga     2      13.000    6.951   6.949            0.001     -0.900
    174       N      1       5.000    2.056   2.044            0.012      0.900
    175       Ga     2      13.000    6.919   6.911            0.008     -0.830
    176       N      1       5.000    2.176   2.176            0.001      0.648
    177       Ga     2      13.000    7.094   7.094           -0.000     -1.187
    178       N      1       5.000    2.055   2.056           -0.000      0.889
    179       Ga     2      13.000    6.934   6.936           -0.002     -0.870
    180       N      1       5.000    2.057   2.058           -0.001      0.885
    181       Ga     2      13.000    6.938   6.939           -0.001     -0.877
    182       N      1       5.000    2.062   2.062           -0.000      0.876
    183       Ga     2      13.000    6.946   6.947           -0.000     -0.893
    184       N      1       5.000    2.063   2.061            0.002      0.876
    185       Ga     2      13.000    6.951   6.950            0.001     -0.901
    186       N      1       5.000    2.053   2.048            0.005      0.899
    187       Ga     2      13.000    6.859   6.857            0.002     -0.716
    188       N      1       5.000    2.057   2.155           -0.098      0.787
    189       Ga     2      13.000    6.959   6.970           -0.011     -0.929
    190       N      1       5.000    2.052   2.062           -0.009      0.886
    191       Ga     2      13.000    6.939   6.941           -0.003     -0.880
    192       N      1       5.000    2.061   2.062           -0.001      0.877
    193       Ga     2      13.000    6.938   6.939           -0.001     -0.877
    194       N      1       5.000    2.062   2.062           -0.000      0.876
    195       Ga     2      13.000    6.939   6.939           -0.000     -0.879
    196       N      1       5.000    2.060   2.060           -0.000      0.881
    197       Ga     2      13.000    6.950   6.949            0.001     -0.899
    198       N      1       5.000    2.057   2.043            0.014      0.900
    199       Ga     2      13.000    6.921   6.911            0.010     -0.831
    200       O      3       6.000    3.008   3.009           -0.001     -0.016
    201       H      4       1.000    0.233   0.233            0.000      0.534
    202       C      5       4.000    2.386   2.387           -0.001     -0.773
    203       H      4       1.000    0.280   0.280            0.000      0.441
    204       H      4       1.000    0.277   0.277           -0.000      0.447
    205       H      4       1.000    0.279   0.279           -0.000      0.443
    206       Ga     2      13.000    6.954   6.964           -0.010     -0.919
    207       O      3       6.000    3.311   3.312           -0.000     -0.623
    208       H      4       1.000    0.230   0.230           -0.000      0.541
    209       C      5       4.000    2.058   2.058           -0.000     -0.116
    210       H      4       1.000    0.276   0.276           -0.000      0.448
    211       H      4       1.000    0.201   0.201           -0.000      0.599
    212       H      4       1.000    0.273   0.273           -0.000      0.454

  Total Charge                                                            0.002
 !-----------------------------------------------------------------------------!

 ENERGY| Total FORCE_EVAL ( QS ) energy (a.u.):            -8504.825926061710561


 --------  Informations at step =    59 ------------
  Optimization Method        =                 BFGS
  Total Energy               =     -8504.8259260617
  Real energy change         =        -0.0000333382
  Predicted change in energy =        -0.0000071755
  Scaling factor             =         0.9795535750
  Step size                  =         0.0175198064
  Trust radius               =         0.4724315332
  Decrease in energy         =                   NO
  Used time                  =              333.043

  Convergence check :
  Max. step size             =         0.0175198064
  Conv. limit for step size  =         0.0030000000
  Convergence in step size   =                   NO
  RMS step size              =         0.0012328349
  Conv. limit for RMS step   =         0.0015000000
  Convergence in RMS step    =                  YES
  Max. gradient              =         0.0007593257
  Conv. limit for gradients  =         0.0004500000
  Conv. for gradients        =                   NO
  RMS gradient               =         0.0001050766
  Conv. limit for RMS grad.  =         0.0003000000
  Conv. in RMS gradients     =                  YES
 ---------------------------------------------------

 --------------------------
 OPTIMIZATION STEP:     60
 --------------------------

 Spin 1

 Number of electrons:                                                        914
 Number of occupied orbitals:                                                914
 Number of molecular orbitals:                                               914

 Spin 2

 Number of electrons:                                                        914
 Number of occupied orbitals:                                                914
 Number of molecular orbitals:                                               914

 Number of orbital functions:                                               3892
 Number of independent orbital functions:                                   3892

 Parameters for the always stable predictor-corrector (ASPC) method:

  ASPC order: 3

  B(1) =   3.000000
  B(2) =  -3.428571
  B(3) =   1.928571
  B(4) =  -0.571429
  B(5) =   0.071429

 Parameters for the always stable predictor-corrector (ASPC) method:

  ASPC order: 3

  B(1) =   3.000000
  B(2) =  -3.428571
  B(3) =   1.928571
  B(4) =  -0.571429
  B(5) =   0.071429

 Extrapolation method: ASPC


 SCF WAVEFUNCTION OPTIMIZATION

  ----------------------------------- OT ---------------------------------------
  Minimizer      : CG                  : conjugate gradient
  Preconditioner : FULL_ALL            : diagonalization, state selective
  Precond_solver : DEFAULT
  Line search    : 2PNT                : 2 energies, one gradient
  stepsize       :    0.15000000                  energy_gap     :    0.08000000
  eps_taylor     :   0.10000E-15                  max_taylor     :             4
  ----------------------------------- OT ---------------------------------------

  Step     Update method      Time    Convergence         Total energy    Change
  ------------------------------------------------------------------------------
