     212
 i =        1, E =     -8503.8387941216
  N        -0.0299273444        2.1061583810        2.4598850510
 Ga        -0.0270129827        0.1572986878        2.8167498568
  N        -0.0228838868        0.1066342965        4.9781518268
 Ga        -0.0261720671        1.9400353581        5.7470915232
  N        -0.0297243628        1.9518489629        7.7452467140
 Ga        -0.0265604573        0.1089872210        8.4041807578
  N        -0.0270499889        0.1056269546       10.3726435322
 Ga        -0.0240501802        1.9441012838       11.0323080106
  N        -0.0262886260        1.9250249536       13.0206362473
 Ga        -0.0264284206        0.1049341939       13.8355361596
  N        -0.0257357180        0.1055704508       16.0240424243
 Ga        -0.0270041913        2.1493203307       16.4411204818
 Ga         0.0382126373        3.8283326155        1.3005901380
  N        -1.4924302161        4.6861415217        2.4853418521
 Ga        -1.6932565243        2.8613975980        3.2076989448
  N        -1.6530220427        2.8821268874        5.1791909026
 Ga        -1.6542944370        4.7417056837        5.7970158487
  N        -1.6414439374        4.7468997550        7.7736535840
 Ga        -1.6245444895        2.8885439724        8.4082615453
  N        -1.6230358278        2.8950147198       10.3919757380
 Ga        -1.6535022639        4.7546465987       11.0353176136
  N        -1.6688292698        4.7663541085       13.0222949289
 Ga        -1.6248559822        2.8965982954       13.5800426492
  N        -1.6510870697        2.8826523340       15.5377033379
 Ga        -1.4700717877        4.6524834201       16.4412007764
  N        -0.0218551812        3.8158484502       17.5829643316
  N        -3.2156698771        7.6620738665        2.5083265002
 Ga        -3.1138886341        5.6876787895        2.9901924229
  N        -3.2123445155        5.6937780341        5.0455840885
 Ga        -3.2374505235        7.5038446967        5.8122681333
  N        -3.2425782911        7.5273194835        7.7799802485
 Ga        -3.2524271871        5.6685732923        8.4033094699
  N        -3.2458405485        5.6744401099       10.3720005562
 Ga        -3.2481511472        7.5127578869       11.0355135367
  N        -3.2452828838        7.4947659483       13.0224259764
 Ga        -3.2448354371        5.6753118139       13.8389230381
  N        -3.2434674733        5.6761012032       16.0230007569
 Ga        -3.2435216430        7.7246194316       16.4432539250
 Ga        -3.2234307292        9.4221320824        1.4481184674
  N        -4.7448182649       10.2579452538        2.4779587743
 Ga        -4.8554357026        8.4568186738        3.3159007384
  N        -4.8573669906        8.4523136900        5.2364843925
 Ga        -4.8790356124       10.3472033594        5.7717465572
  N        -4.8614135854       10.3213944093        7.7562300127
 Ga        -4.8522576604        8.4652817444        8.4007569471
  N        -4.8441387455        8.4668380159       10.3850033913
 Ga        -4.8669261534       10.3274179250       11.0307479512
  N        -4.8835497878       10.3363881063       13.0188413183
 Ga        -4.8422850342        8.4676260379       13.5816167217
  N        -4.8711908492        8.4527354869       15.5374366732
 Ga        -4.6811398768       10.2211575059       16.4443069694
  N        -3.2387624343        9.3884759878       17.5746410614
  N         3.1818147539        1.9605453569        2.5531604743
 Ga         3.1996112283        0.2412821978        3.2523167595
  N         3.1928720696        0.0985724827        5.2117046829
 Ga         3.2166220499        1.9869001747        5.7871606805
  N         3.1965379963        1.9645413416        7.7771522381
 Ga         3.1863132360        0.1053834945        8.3989854340
  N         3.1871780207        0.0946193610       10.3863938623
 Ga         3.1924931041        1.9653830368       10.9805150286
  N         3.1900359576        1.9640209134       12.9468672249
 Ga         3.1880158033        0.0957472181       13.5792627651
  N         3.1867845249        0.1278808051       15.5355257731
 Ga         3.1882368140        1.9638520476       15.8198424378
  N         1.4418719225        4.6921884996        2.4876409596
 Ga         1.6738430406        2.8478053031        3.2275559249
  N         1.5826024635        2.8938035144        5.2048307703
 Ga         1.6106076994        4.7488111240        5.7910356011
  N         1.5913991502        4.7525957148        7.7710296400
 Ga         1.5783877671        2.8877134148        8.3885928274
  N         1.5711333767        2.8942260069       10.3802955756
 Ga         1.6023786707        4.7527432045       11.0286697650
  N         1.6153098226        4.7658509277       13.0185229947
 Ga         1.5717434647        2.8968960697       13.5793225452
  N         1.5963759633        2.8825949927       15.5378667564
 Ga         1.4199949667        4.6546664632       16.4419038155
  N        -0.0254377048        7.5171590460        2.6891518955
 Ga        -0.0253323141        5.6547021586        3.3242052465
  N        -0.0267213634        5.6884145705        5.2536046681
 Ga        -0.0209447340        7.5264367385        5.8973542710
  N        -0.0260910707        7.5333833511        7.8456789083
 Ga        -0.0239285917        5.6578461519        8.4224719123
  N        -0.0265212352        5.6618792086       10.4023354942
 Ga        -0.0253017573        7.5312622838       11.0019820894
  N        -0.0259794948        7.5329781391       12.9637023070
 Ga        -0.0263158135        5.6609757196       13.5816775541
  N        -0.0273103584        5.6934933980       15.5389755950
 Ga        -0.0258612975        7.5325818205       15.8164118648
  N        -1.7280971591       10.2407820569        2.5120761382
 Ga        -1.5977426636        8.4583531919        3.3330537483
  N        -1.6198093992        8.4548806710        5.2516859415
 Ga        -1.6122814587       10.3412191764        5.8071664948
  N        -1.6296622066       10.3196961960        7.7829369548
 Ga        -1.6465281161        8.4703423213        8.4326827246
  N        -1.6464130463        8.4672820108       10.4092070762
 Ga        -1.6199146694       10.3331423403       11.0353462665
  N        -1.6030467576       10.3388549134       13.0228579567
 Ga        -1.6482121292        8.4689806639       13.5823457323
  N        -1.6163047894        8.4508967566       15.5390000133
 Ga        -1.8008861979       10.2241033746       16.4422696451
  N         6.4526394119        1.9622133393        2.4851150552
 Ga         6.4095405306        0.1174492809        2.9216482054
  N         6.4017609846        0.0756069102        5.0488441572
 Ga         6.3928120140        1.9506059966        5.7124281715
  N         6.4060765235        1.9557065652        7.7262860334
 Ga         6.4057927457        0.1190378467        8.4051949649
  N         6.4063300751        0.1091659955       10.3755153997
 Ga         6.4040261713        1.9507434780       11.0247987538
  N         6.4046198985        1.9271128275       13.0154705468
 Ga         6.4051379790        0.1080346430       13.8370364355
  N         6.4055781282        0.1069569472       16.0232906559
 Ga         6.4048749929        2.1547829472       16.4423738791
 Ga         8.9075303593        1.6310536948        0.6195850438
  N         4.7091806085        4.7286886156        2.4854076121
 Ga         4.8026656037        2.8063996460        3.0267848451
  N         4.8051656130        2.8958408060        5.0995123274
 Ga         4.7989942291        4.7514660179        5.6759866418
  N         4.7968227641        4.7571477078        7.7001034736
 Ga         4.8107685453        2.9032429133        8.3703143211
  N         4.8088112272        2.9005390448       10.3684735763
 Ga         4.7843359419        4.7541224935       11.0262976899
  N         4.7659243675        4.7661059194       13.0154613571
 Ga         4.8077080329        2.8976289662       13.5785504806
  N         4.7778805975        2.8819922540       15.5342516535
 Ga         4.9680943814        4.6490577085       16.4440783443
  N         6.4099463190        3.8166153511       17.5750344138
  N         3.1562893952        7.6735290857        2.4657629246
  N         3.1647690969        5.6921748632        5.0129418120
 Ga         3.1865247957        7.4980132277        5.7934199652
  N         3.1905947560        7.5264788084        7.7680067829
 Ga         3.2049126227        5.6680214934        8.3942092098
  N         3.1944559691        5.6751491975       10.3666357141
 Ga         3.1951252227        7.5117573087       11.0336289981
  N         3.1910920633        7.4949782456       13.0213945373
 Ga         3.1911301695        5.6748554659       13.8348179464
  N         3.1910555801        5.6756032056       16.0243386311
 Ga         3.1894488889        7.7196927845       16.4442533023
 Ga         3.1552038485        9.4640581771        1.2982954841
  N         1.6746840332       10.2571558984        2.5224752176
 Ga         1.5654443782        8.4652508172        3.3022106059
  N         1.5690045851        8.4549109581        5.2349474554
 Ga         1.5509507179       10.3355146394        5.8035944747
  N         1.5771374007       10.3195985567        7.7796847787
 Ga         1.5967555658        8.4679166426        8.4281431898
  N         1.5947310711        8.4671376558       10.4058816594
 Ga         1.5661329941       10.3312844226       11.0365971497
  N         1.5488292002       10.3380467725       13.0234691124
 Ga         1.5947834947        8.4689744980       13.5837167858
  N         1.5662853105        8.4538144473       15.5412987150
 Ga         1.7460231637       10.2243233414       16.4431297217
  N         3.1947670877        9.3885756279       17.5842962810
  N         9.5898301666        1.9413127335        2.5257673999
 Ga         9.6166162421        0.1673843362        3.2953483103
  N         9.6200148402        0.1133554519        5.2288612840
 Ga         9.6096610449        1.9818120811        5.8365177736
  N         9.6192744951        1.9653142540        7.8038347767
 Ga         9.6256562716        0.0983392657        8.4056678922
  N         9.6243108406        0.0928489972       10.3904295301
 Ga         9.6185395206        1.9637860618       10.9852532517
  N         9.6202655139        1.9625746261       12.9513320843
 Ga         9.6216122292        0.0938062594       13.5816778976
  N         9.6212780573        0.1238167770       15.5394253838
 Ga         9.6217119071        1.9624822003       15.8180686791
  N         8.1431671542        4.7138717969        2.4881657900
 Ga         7.9794000777        2.8605477149        3.1906885837
  N         8.0245934225        2.8999940736        5.1644861458
 Ga         8.0119400147        4.7728567301        5.7128268681
  N         8.0156090497        4.7598935661        7.7185458451
 Ga         7.9957905409        2.9026343401        8.3805742218
  N         8.0020462015        2.9002049137       10.3747611538
 Ga         8.0258249219        4.7553186062       11.0289176218
  N         8.0443990637        4.7666751364       13.0174593705
 Ga         8.0011194859        2.8977112144       13.5794646658
  N         8.0321845735        2.8802310219       15.5357383584
 Ga         7.8468123575        4.6520157054       16.4426147533
  N         6.3867665939        7.5668364634        2.7557889945
 Ga         6.4092305031        5.6065714695        2.9377707133
  N         6.4106551947        5.6768707327        5.0258048541
 Ga         6.3980878113        7.4760969817        5.8032617252
  N         6.4042643682        7.5215041554        7.7769663703
 Ga         6.4012186787        5.6576164449        8.3861809508
  N         6.4049948508        5.6627827460       10.3754951527
 Ga         6.4048043554        7.5293055915       10.9867950544
  N         6.4043329632        7.5324760845       12.9504363799
 Ga         6.4045377336        5.6637836118       13.5800484034
  N         6.4035258956        5.6978176402       15.5353752179
 Ga         6.4039451724        7.5333662799       15.8220524241
  N         4.6910460401       10.2909430702        2.4830391898
 Ga         4.7633001988        8.4831202114        3.2814914488
  N         4.8013465454        8.4560565605        5.2161568036
 Ga         4.8357400878       10.3413532818        5.7710999241
  N         4.8085852775       10.3206022098        7.7546654373
 Ga         4.7960454536        8.4636683745        8.3982667544
  N         4.7900737252        8.4672276463       10.3835094456
 Ga         4.8147153927       10.3262700636       11.0330784582
  N         4.8295335050       10.3359581778       13.0208473624
 Ga         4.7869830808        8.4673330936       13.5831736425
  N         4.8126403579        8.4533394802       15.5413543677
 Ga         4.6363809526       10.2263811584       16.4437049874
  O         0.0069055319        3.8676047453       -0.5128005120
  H        -0.0355355929        7.5050713033        1.6625720641
  C        -0.7177009011        2.8229707326       -1.1690040806
  H        -0.4152283069        1.8177746622       -0.8308278014
  H        -1.8117944584        2.9204750632       -1.0291191381
  H        -0.5115441574        2.9012287104       -2.2466620228
 Ga         3.0826844432        5.7003143238        2.9327444067
  O         6.7782150699        5.4523916577        0.7513751415
  H         4.8326821910        4.7133068432        1.4613427695
  C         7.9357622301        4.8070778049        0.9909182577
  H         8.8301813840        5.2859819457        0.5290949180
  H         6.4269281501        7.6392059661        1.4226487483
  H         7.9488349541        3.7347960650        0.5683659884
     212
 i =        2, E =     -8504.7223755486
  N        -0.0298235884        2.1037562048        2.4602657200
 Ga        -0.0278459076        0.1501573836        2.8129408886
  N        -0.0226415514        0.1063177836        4.9784261200
 Ga        -0.0262121627        1.9406747405        5.7482500924
  N        -0.0298533000        1.9525716087        7.7462824885
 Ga        -0.0265744348        0.1109881393        8.4079201450
  N        -0.0269876615        0.1064499884       10.3753175501
 Ga        -0.0240672727        1.9447173535       11.0322975928
  N        -0.0262596662        1.9253885673       13.0206322762
 Ga        -0.0263022732        0.1053281442       13.8352199344
  N        -0.0257112076        0.1054255575       16.0252903796
 Ga        -0.0270308366        2.1496037462       16.4397910328
 Ga         0.0385099065        3.8301178632        1.3004477255
  N        -1.4952506652        4.6879504405        2.4860422266
 Ga        -1.6933836964        2.8620096100        3.2067496524
  N        -1.6537873153        2.8817941323        5.1790104637
 Ga        -1.6545366810        4.7415446320        5.7982371815
  N        -1.6410603434        4.7464311233        7.7748200312
 Ga        -1.6248190382        2.8883270155        8.4092149086
  N        -1.6230119241        2.8949862189       10.3925904437
 Ga        -1.6531243508        4.7543380268       11.0352278365
  N        -1.6684641162        4.7661409908       13.0223701226
 Ga        -1.6246641799        2.8966017900       13.5802362907
  N        -1.6512071110        2.8825481135       15.5377835788
 Ga        -1.4696564374        4.6522548806       16.4400088132
  N        -0.0216478248        3.8157948944       17.5814029810
  N        -3.2227369351        7.6711974497        2.5168092834
 Ga        -3.1192458950        5.6908386514        2.9870942367
  N        -3.2114116387        5.6949672811        5.0440812380
 Ga        -3.2340441191        7.5025091900        5.8215818687
  N        -3.2392614641        7.5252259994        7.7874982263
 Ga        -3.2516873835        5.6672909268        8.4061320107
  N        -3.2453534672        5.6738491230       10.3740491884
 Ga        -3.2477822510        7.5126305979       11.0349821531
  N        -3.2450546516        7.4948859587       13.0226151537
 Ga        -3.2445880223        5.6751662875       13.8385806652
  N        -3.2435071969        5.6761912903       16.0244330081
 Ga        -3.2434910816        7.7252417981       16.4420673269
 Ga        -3.2212182881        9.4218441697        1.4410214937
  N        -4.7399106659       10.2459610439        2.4854202412
 Ga        -4.8698435958        8.4473168520        3.3283375365
  N        -4.8421003710        8.4598831564        5.2497975796
 Ga        -4.8786027807       10.3495384274        5.7810259414
  N        -4.8615234396       10.3253428470        7.7636824757
 Ga        -4.8529183548        8.4647241159        8.3975369463
  N        -4.8435457845        8.4672655533       10.3843332700
 Ga        -4.8666561504       10.3277770569       11.0303992231
  N        -4.8833755749       10.3364873554       13.0190388696
 Ga        -4.8420735329        8.4677666881       13.5817185476
  N        -4.8716365224        8.4525392060       15.5374913757
 Ga        -4.6806235698       10.2208439519       16.4430359051
  N        -3.2387344690        9.3884587303       17.5731683450
  N         3.1803132627        1.9602684702        2.5498769676
 Ga         3.1988464763        0.2426226177        3.2502295488
  N         3.1924857614        0.0990156809        5.2106356224
 Ga         3.2175791765        1.9872280838        5.7883777234
  N         3.1966483690        1.9647313563        7.7781663085
 Ga         3.1874529408        0.1062658170        8.4008196947
  N         3.1878017114        0.0949811646       10.3877414234
 Ga         3.1923364350        1.9655608688       10.9803951294
  N         3.1898731764        1.9641114286       12.9469557664
 Ga         3.1881208781        0.0958504243       13.5794865967
  N         3.1867229887        0.1283846034       15.5356793045
 Ga         3.1881298608        1.9639538520       15.8178712879
  N         1.4446921877        4.6941877039        2.4887080475
 Ga         1.6740835809        2.8485408241        3.2268596781
  N         1.5831820921        2.8935052982        5.2048022372
 Ga         1.6108033820        4.7486432796        5.7922661409
  N         1.5908798467        4.7522274548        7.7722541683
 Ga         1.5785890210        2.8874801662        8.3893050602
  N         1.5710789120        2.8941659699       10.3808187208
 Ga         1.6019738391        4.7523914374       11.0286239073
  N         1.6149870125        4.7656491636       13.0185982424
 Ga         1.5716721748        2.8968948519       13.5796555524
  N         1.5965360466        2.8824703703       15.5381280677
 Ga         1.4197381557        4.6545635204       16.4406210650
  N        -0.0261981131        7.5151699063        2.6882026528
 Ga        -0.0254141946        5.6539789932        3.3236524157
  N        -0.0267882731        5.6886628131        5.2536126927
 Ga        -0.0209671207        7.5270004655        5.8982063771
  N        -0.0261119550        7.5333226245        7.8464970488
 Ga        -0.0240321446        5.6579984870        8.4234211322
  N        -0.0265226973        5.6617780298       10.4031052881
 Ga        -0.0252706970        7.5309999998       11.0018777846
  N        -0.0260820576        7.5326540731       12.9637389888
 Ga        -0.0262934527        5.6608390898       13.5818261547
  N        -0.0273425599        5.6936691213       15.5390064353
 Ga        -0.0258821847        7.5323829269       15.8142657269
  N        -1.7280647502       10.2411276350        2.5125268055
 Ga        -1.5955525007        8.4570586740        3.3306535598
  N        -1.6197521553        8.4546096177        5.2499080031
 Ga        -1.6128563571       10.3408965124        5.8089346456
  N        -1.6291887009       10.3200568389        7.7844584958
 Ga        -1.6454171941        8.4710032753        8.4346073351
  N        -1.6458056768        8.4676775609       10.4107129822
 Ga        -1.6196823183       10.3333257517       11.0353113465
  N        -1.6031382380       10.3387600493       13.0229969638
 Ga        -1.6480295318        8.4690373474       13.5824146858
  N        -1.6158481316        8.4505934921       15.5389733454
 Ga        -1.8013830698       10.2237528008       16.4410146637
  N         6.4530042667        1.9644953219        2.4856315261
 Ga         6.4098109729        0.1185270180        2.9210694168
  N         6.4018131749        0.0759572326        5.0491243107
 Ga         6.3927866931        1.9515037738        5.7147117687
  N         6.4061338835        1.9554851668        7.7276452039
 Ga         6.4058158419        0.1194374674        8.4062480640
  N         6.4062621624        0.1093239192       10.3761652586
 Ga         6.4040853131        1.9507083231       11.0245565794
  N         6.4046261206        1.9272345210       13.0154506033
 Ga         6.4050911373        0.1080856546       13.8367082711
  N         6.4055781918        0.1068520588       16.0245373381
 Ga         6.4049286482        2.1553983876       16.4414331702
 Ga         8.9075367953        1.6300570756        0.6183906602
  N         4.7132228754        4.7248932802        2.4854286382
 Ga         4.7993988004        2.8051375198        3.0242404162
  N         4.8052827035        2.8942803011        5.0967882932
 Ga         4.7941552725        4.7475609674        5.6829356144
  N         4.7950050871        4.7558751808        7.7047204554
 Ga         4.8109188622        2.9025717140        8.3713005984
  N         4.8088006156        2.8999233966       10.3691516347
 Ga         4.7841290484        4.7535560927       11.0261525627
  N         4.7659553455        4.7658926537       13.0157355962
 Ga         4.8076646431        2.8974808058       13.5789089757
  N         4.7775149225        2.8818176093       15.5345261035
 Ga         4.9686089256        4.6487973963       16.4431164986
  N         6.4098773128        3.8166389498       17.5742893679
  N         3.1632730540        7.6836603124        2.4745962447
  N         3.1638240579        5.6933105664        5.0113162516
 Ga         3.1824636572        7.4961750695        5.8032992219
  N         3.1873804680        7.5244700103        7.7756806042
 Ga         3.2042459663        5.6666325341        8.3968896736
  N         3.1939929275        5.6744932976       10.3686284138
 Ga         3.1947638347        7.5116408314       11.0329907191
  N         3.1909126610        7.4950065064       13.0215292122
 Ga         3.1909428625        5.6745459139       13.8345430627
  N         3.1910933029        5.6756781906       16.0256134589
 Ga         3.1893390078        7.7204220457       16.4427654580
 Ga         3.1526868602        9.4625588830        1.2906907887
  N         1.6755842491       10.2576192561        2.5221165441
 Ga         1.5616350381        8.4639431568        3.2995149525
  N         1.5688455448        8.4547751517        5.2330338385
 Ga         1.5515112768       10.3352631948        5.8055027081
  N         1.5766774827       10.3200192160        7.7811819602
 Ga         1.5955682595        8.4686681397        8.4299492325
  N         1.5941477718        8.4675441615       10.4072132252
 Ga         1.5658886313       10.3315164076       11.0363840164
  N         1.5489322980       10.3379733084       13.0235332307
 Ga         1.5944943839        8.4689310009       13.5834826234
  N         1.5657534653        8.4535314779       15.5408975952
 Ga         1.7467811560       10.2238149773       16.4416026197
  N         3.1949290823        9.3884248756       17.5831802612
  N         9.5902324967        1.9423092998        2.5229440614
 Ga         9.6170345483        0.1704895073        3.2936067888
  N         9.6202522097        0.1139589147        5.2277607352
 Ga         9.6088595801        1.9819690282        5.8380345244
  N         9.6191844502        1.9655431449        7.8049022972
 Ga         9.6244526254        0.0992647575        8.4074779349
  N         9.6237062783        0.0932570469       10.3916568693
 Ga         9.6187069574        1.9639549014       10.9850379901
  N         9.6204826194        1.9628539130       12.9512936719
 Ga         9.6215236953        0.0940705843       13.5814480502
  N         9.6212615460        0.1243686855       15.5390790272
 Ga         9.6218225200        1.9626225190       15.8158207539
  N         8.1376934352        4.7125402758        2.4928454565
 Ga         7.9828939603        2.8588357855        3.1903092414
  N         8.0248270611        2.8986912711        5.1629515965
 Ga         8.0171575867        4.7691709135        5.7202766362
  N         8.0175789305        4.7585444327        7.7235405273
 Ga         7.9956696479        2.9019374254        8.3816173531
  N         8.0021364630        2.8996041028       10.3754437245
 Ga         8.0261144116        4.7547531669       11.0286838990
  N         8.0444031649        4.7664624640       13.0177420514
 Ga         8.0011221018        2.8975445703       13.5796734232
  N         8.0325331072        2.8800103357       15.5358482427
 Ga         7.8462384494        4.6516490305       16.4417985820
  N         6.3868947036        7.5155209450        2.8253172599
 Ga         6.4079065664        5.5890830964        2.9611495588
  N         6.4108916446        5.6592606146        5.0501225379
 Ga         6.3981338763        7.4808639766        5.7870453824
  N         6.4041526013        7.5200037250        7.7690579062
 Ga         6.4012936633        5.6578477832        8.3850867023
  N         6.4050249393        5.6618783245       10.3760479516
 Ga         6.4048391118        7.5293428434       10.9858682540
  N         6.4045160742        7.5323452584       12.9505598560
 Ga         6.4045243009        5.6635176887       13.5802959881
  N         6.4035048236        5.6981660276       15.5355412459
 Ga         6.4039360706        7.5332884262       15.8200581794
  N         4.6848809364       10.2775674171        2.4896714806
 Ga         4.7792378706        8.4721559492        3.2962708748
  N         4.7850131428        8.4646559379        5.2318299845
 Ga         4.8354200478       10.3448941627        5.7807050180
  N         4.8086302911       10.3245358093        7.7621449812
 Ga         4.7967935910        8.4632159038        8.3952339717
  N         4.7895217512        8.4676487033       10.3828825710
 Ga         4.8144833936       10.3266816968       11.0325533766
  N         4.8294446127       10.3360649551       13.0209891440
 Ga         4.7869838477        8.4673169479       13.5830133485
  N         4.8130651558        8.4530922061       15.5411357207
 Ga         4.6356742189       10.2260345631       16.4422021379
  O         0.0067479382        3.8678976860       -0.5144160273
  H        -0.0352389052        7.5050224949        1.6609825031
  C        -0.7182017353        2.8230414696       -1.1700808734
  H        -0.4156471360        1.8171909496       -0.8299780329
  H        -1.8132314232        2.9212487221       -1.0288094924
  H        -0.5116427603        2.9010620134       -2.2487600181
 Ga         3.0890653248        5.7032659739        2.9287163294
  O         6.7791271272        5.4565195897        0.7617972506
  H         4.8273503269        4.7104107698        1.4598296774
  C         7.9404389092        4.8093291749        0.9949425480
  H         8.8304950115        5.2877436845        0.5237576485
  H         6.4372889712        7.7260536092        1.1726487483
  H         7.9432624248        3.7401807489        0.5623703912
     212
 i =        3, E =     -8504.7263384125
  N        -0.0300326150        2.1028524301        2.4591741419
 Ga        -0.0281533469        0.1522703735        2.8159166780
  N        -0.0228923034        0.1039604729        4.9807440813
 Ga        -0.0260826947        1.9398896243        5.7463562079
  N        -0.0298310144        1.9528584797        7.7453318412
 Ga        -0.0264889285        0.1115666797        8.4097395042
  N        -0.0269279008        0.1068460896       10.3772131161
 Ga        -0.0240036707        1.9452326924       11.0330459202
  N        -0.0262561743        1.9251233252       13.0210949761
 Ga        -0.0262810288        0.1051440239       13.8347901250
  N        -0.0256435796        0.1055312644       16.0235599059
 Ga        -0.0270089501        2.1485166298       16.4411173132
 Ga         0.0384747999        3.8284460586        1.3024724955
  N        -1.4945757663        4.6880300076        2.4852742269
 Ga        -1.6923536720        2.8618723097        3.2062834296
  N        -1.6534838825        2.8820338017        5.1785770406
 Ga        -1.6540162353        4.7416647729        5.7969887599
  N        -1.6410262251        4.7465065967        7.7740617874
 Ga        -1.6247282768        2.8885869462        8.4092875221
  N        -1.6230963437        2.8950018186       10.3928365474
 Ga        -1.6529107766        4.7542544686       11.0357313186
  N        -1.6687761202        4.7662857564       13.0225815744
 Ga        -1.6244628816        2.8967804750       13.5796612758
  N        -1.6506765832        2.8827775860       15.5376272410
 Ga        -1.4704609735        4.6527093417       16.4413664906
  N        -0.0215956217        3.8157005852       17.5812601054
  N        -3.2227692405        7.6659927476        2.5192629960
 Ga        -3.1176389099        5.6905670211        2.9901052293
  N        -3.2123613757        5.6958946927        5.0471920780
 Ga        -3.2352039299        7.5058355068        5.8197849595
  N        -3.2385618165        7.5250101556        7.7866954435
 Ga        -3.2507155501        5.6674936914        8.4083413812
  N        -3.2453990143        5.6735190360       10.3759447147
 Ga        -3.2482370022        7.5129198291       11.0348443909
  N        -3.2451716490        7.4944771062       13.0224124780