     156
 i =        1, E =     -6136.3959762351
 Ga        -0.0031972471       -0.0158329600       -0.5375896815
  N        -0.0002729638        1.8584778159        0.6070087035
 Ga        -0.0003341043        1.8280295747        2.6383753554
  N        -0.0033776016       -0.0156159555        3.2696575642
 Ga        -0.0021650411       -0.0150506725        5.2603753728
  N         0.0008174939        1.8596742415        5.8482888299
 Ga         0.0022926585        1.8581501252        7.8482681765
  N         0.0008340666       -0.0150049246        8.4506148047
 Ga         0.0037487148       -0.0157269608       10.4498140615
  N         0.0042733864        1.8600716958       11.0415067279
 Ga         0.0095496408        1.8622643654       13.0319811313
  N         0.0153414741       -0.0087537085       13.6324699921
 Ga         0.0304421134       -0.0177989557       15.6248787846
  N         0.0198613602        1.8575634013       16.2218073458
 Ga         0.0448163136        1.8472862650       18.2880240425
  N         0.0484665689       -0.0267869817       18.6982757794
 Ga        -1.6230534711        2.7898789738        0.3238601216
  N        -1.6248093893        4.6597398522        0.6067097981
 Ga        -1.5956883869        4.6757300384        2.6367611053
  N        -1.6231060489        2.7899846603        3.2282964745
 Ga        -1.6217675914        2.7906191428        5.2398436196
  N        -1.6212822802        4.6608904819        5.8464809549
 Ga        -1.6191123057        4.6615353200        7.8452299988
  N        -1.6203691310        2.7918389795        8.4512206449
 Ga        -1.6194734630        2.7953585040       10.4472090133
  N        -1.6174681608        4.6668766685       11.0551729469
 Ga        -1.6181782689        4.6714310305       13.0527262121
  N        -1.6072639124        2.7998657298       13.6584287839
 Ga        -1.6007598868        2.8165661687       15.6630111961
  N        -1.5863658505        4.6838974312       16.3119402550
 Ga        -1.5149128622        4.6806405871       18.3862656083
  N        -1.5542867597        2.7886835877       18.7555118614
 Ga        -3.2437386136        5.5955550882        0.3237787095
  N        -3.2373753347        7.4661486717        0.6072666921
 Ga        -3.2641805292        7.4807088312        2.6385144536
  N        -3.2426867854        5.5950415296        3.2286353140
 Ga        -3.2419165556        5.5960174450        5.2400919610
  N        -3.2357829081        7.4663004744        5.8469804993
 Ga        -3.2358765857        7.4670823629        7.8461638756
  N        -3.2398781001        5.5961814272        8.4495423444
 Ga        -3.2389506497        5.5972380791       10.4449974018
  N        -3.2308410837        7.4658204674       11.0555991627
 Ga        -3.2219028092        7.4629209450       13.0543968421
  N        -3.2355654795        5.5972723375       13.6928998256
 Ga        -3.2225571988        5.5918932994       15.7299873198
  N        -3.2085814689        7.4742085344       16.2706188971
 Ga        -3.1858300948        7.4478712067       18.3278771810
  N        -3.1583877947        5.5864042233       18.8505876727
 Ga         3.2425510776       -0.0154445342        0.3241658214
  N         3.2414640625        1.8548065679        0.6064103498
 Ga         3.2696595791        1.8704489330        2.6372742053
  N         3.2428079464       -0.0153018882        3.2282976179
 Ga         3.2440036463       -0.0146005247        5.2399694265
  N         3.2446613230        1.8555403098        5.8474815755
 Ga         3.2471222302        1.8563009909        7.8469095653
  N         3.2448898736       -0.0146533461        8.4498715842
 Ga         3.2477523456       -0.0140988865       10.4454204971
  N         3.2516270131        1.8569292233       11.0511876501
 Ga         3.2584331812        1.8539841369       13.0485486249
  N         3.2578084741       -0.0166687448       13.6599126041
 Ga         3.2698504752       -0.0188468999       15.6658340923
  N         3.2837312061        1.8546951513       16.2309390038
 Ga         3.3196928279        1.8602289774       18.2554028198
  N         3.3064100164       -0.0257685393       18.7097550313
 Ga         1.6221355972        2.7905838469        0.3237622897
  N         1.6293376110        4.6603703245        0.6070305578
 Ga         1.6011644095        4.6758747787        2.6371249287
  N         1.6229363517        2.7900953975        3.2290319705
 Ga         1.6243017232        2.7909482791        5.2408940662
  N         1.6297315917        4.6611465277        5.8483980748
 Ga         1.6302386797        4.6616205418        7.8483719481
  N         1.6261118672        2.7902919801        8.4496395442
 Ga         1.6296899041        2.7921108649       10.4450896064
  N         1.6277743695        4.6624164926       11.0490573923
 Ga         1.6291237253        4.6647331172       13.0447171403
  N         1.6312524066        2.7873769759       13.6464072649
 Ga         1.6546388227        2.7850162348       15.6411447829
  N         1.6291032046        4.6650713818       16.1845028411
 Ga         1.6782692928        4.6402700574       18.1814742610
  N         1.6848910619        2.7776784635       18.6345256953
 Ga         0.0031267953        5.5957809587       -0.5460630812
  N         0.0059631042        7.4707669541        0.6066965234
 Ga         0.0060797548        7.4382909776        2.6368414645
  N         0.0030123272        5.5951899614        3.2695463281
 Ga         0.0046918811        5.5962069139        5.2597857554
  N         0.0074731894        7.4707307635        5.8477492608
 Ga         0.0089322388        7.4693588643        7.8473910465
  N         0.0049608161        5.5956917470        8.4475240785
 Ga         0.0067170692        5.5972388495       10.4447954546
  N         0.0116957475        7.4694054233       11.0449335659
 Ga         0.0151567075        7.4713853827       13.0370278988
  N         0.0056919942        5.6027617113       13.6457123266
 Ga         0.0063602418        5.6014669898       15.6419303369
  N         0.0373070149        7.4658510446       16.2694472888
 Ga         0.0724293765        7.4326251308       18.3564262131
  N         0.1375338312        5.5812275270       18.8950731284
 Ga         6.4873195011       -0.0150112932        0.3233802181
  N         6.4933547064        1.8552431736        0.6060825669
 Ga         6.4660952550        1.8703005469        2.6370737072
  N         6.4880555977       -0.0152152564        3.2289110268
 Ga         6.4897975312       -0.0146100679        5.2408657601
  N         6.4945651013        1.8559331867        5.8479464537
 Ga         6.4944343591        1.8568659808        7.8475143281
  N         6.4910148774       -0.0135251666        8.4516052118
 Ga         6.4945724645       -0.0112831409       10.4482009424
  N         6.4964402271        1.8611467456       11.0528836085
 Ga         6.5009033501        1.8654483920       13.0500700829
  N         6.4899434265       -0.0070163247       13.6381403517
 Ga         6.5088734208       -0.0001214345       15.6390647015
  N         6.5164440976        1.8736452585       16.2292462706
 Ga         6.5726127329        1.8765201537       18.2704591078
  N         6.5608151942       -0.0215517122       18.6558287296
 Ga         4.8675978459        2.7916178068       -0.5407185129
  N         4.8709926167        4.6643842798        0.6069559861
 Ga         4.8708434637        4.6332342858        2.6375504144
  N         4.8683123742        2.7899034180        3.2692874481
 Ga         4.8696075071        2.7911738093        5.2595284271
  N         4.8722551647        4.6651829439        5.8481370746
 Ga         4.8727509169        4.6640330120        7.8478342976
  N         4.8709694192        2.7914548753        8.4504883336
 Ga         4.8737860065        2.7956415777       10.4497272683
  N         4.8796250022        4.6660318802       11.0583707373
 Ga         4.8810148833        4.6698084167       13.0608514690
  N         4.8759968928        2.7957834815       13.6539165031
 Ga         4.8829698231        2.8016829358       15.6676833222
  N         4.8620967879        4.6739824570       16.1684832702
 Ga         4.9337148530        4.6623270014       19.0892700389
  N         4.9399914443        2.7833504219       18.7398259026
 Ga         3.2489114957        5.5950411153        0.3233233096
  N         3.2480357383        7.4655301722        0.6067773482
 Ga         3.2754805222        7.4805714594        2.6380916490
  N         3.2486686485        5.5952812734        3.2290861099
 Ga         3.2500912323        5.5963523520        5.2407608094
  N         3.2504881859        7.4661952970        5.8494277453
 Ga         3.2531334887        7.4666187935        7.8498807249
  N         3.2515175570        5.5959990858        8.4552177836
 Ga         3.2549085113        5.5976485031       10.4543371890
  N         3.2566788694        7.4714385399       11.0506286952
 Ga         3.2573307427        7.4729053418       13.0478427141
  N         3.2491285696        5.5986883362       13.6294570510
 Ga         3.2564757622        5.6058505379       15.6353218008
  N         3.2799119527        7.4864929469       16.1588742362
 Ga         3.3268684754        7.4924364564       18.1722245233
  N         3.3624514484        5.5702093022       18.4640666576
  O         1.6652007310        5.2536003217       21.1667555572
  H         0.9742319089        5.4349143093       20.4299468755
  C         0.7616474300        3.8555793812       21.9656311995
  H         0.0768362594        3.5088820151       21.1659305842
  H         1.5754856212        3.1522231961       22.2146526950
  H         0.2818240734        4.3741477456       22.8177174393
  O         4.2632795396        4.7164960437       21.0742863462
  H         3.2572207630        4.8646045874       21.0672146678
  C         4.5526522288        3.5932207971       21.9456944410
  H         4.1172255232        2.6611086971       21.5594123614
  H         5.6444650832        3.5049505467       21.9644517339
  H         4.1779164664        3.8123010924       22.9537671668
     156
 i =        2, E =     -6136.5207323588
 Ga        -0.0031741005       -0.0158175569       -0.5436484079
  N        -0.0002202450        1.8587296629        0.6075224226
 Ga        -0.0001990638        1.8275732043        2.6378185134
  N        -0.0033002594       -0.0156295460        3.2704453544
 Ga        -0.0021150570       -0.0150345280        5.2605085668
  N         0.0009722616        1.8597870461        5.8488440534
 Ga         0.0025842623        1.8583754251        7.8487020165
  N         0.0010960065       -0.0151360713        8.4496512337
 Ga         0.0044164979       -0.0153158918       10.4484392314
  N         0.0043582585        1.8598417640       11.0471048852
 Ga         0.0110824606        1.8615556588       13.0393796476
  N         0.0173000652       -0.0095805346       13.6403999137
 Ga         0.0338400263       -0.0280394836       15.6336648436
  N         0.0273606541        1.8554665633       16.2148954083
 Ga         0.0469221843        1.8525866970       18.2758491918
  N         0.0421701050       -0.0179040940       18.6872304200
 Ga        -1.6226066458        2.7897414199        0.3241648690
  N        -1.6244968895        4.6598423305        0.6065240469
 Ga        -1.5959240993        4.6755883742        2.6366562584
  N        -1.6228257319        2.7898233621        3.2284906232
 Ga        -1.6216817112        2.7907677753        5.2399231832
  N        -1.6210869096        4.6610609407        5.8470156510
 Ga        -1.6190137229        4.6620075091        7.8456321071
  N        -1.6204227928        2.7920908092        8.4510463085
 Ga        -1.6191004991        2.7955840123       10.4468462395
  N        -1.6176935755        4.6666462609       11.0566688074
 Ga        -1.6190867534        4.6700613151       13.0548088563
  N        -1.6056666951        2.7992289067       13.6648520854
 Ga        -1.6018826228        2.8142739164       15.6693425765
  N        -1.5905361341        4.6782064409       16.3081416386
 Ga        -1.5219791176        4.6789333127       18.3805118053
  N        -1.5499334463        2.7864925717       18.7432170662
 Ga        -3.2435580060        5.5959143807        0.3240991461
  N        -3.2370370345        7.4660081621        0.6077821943
 Ga        -3.2644721930        7.4808589667        2.6380066335
  N        -3.2426469077        5.5952304415        3.2288414641
 Ga        -3.2418150128        5.5960163224        5.2401205672
  N        -3.2356061446        7.4663816074        5.8472697297
 Ga        -3.2355027037        7.4669999774        7.8462013684
  N        -3.2398393728        5.5963891682        8.4502775375
 Ga        -3.2390797025        5.5972901920       10.4459957700
  N        -3.2309760747        7.4661963114       11.0555212072
 Ga        -3.2228187119        7.4619867513       13.0542922500
  N        -3.2368076275        5.5967153465       13.6924975864
 Ga        -3.2247176417        5.5897332084       15.7300501375
  N        -3.2028703873        7.4635625413       16.2763465827
 Ga        -3.1934846611        7.4441253369       18.3322520678
  N        -3.1549877363        5.5869557909       18.8571348846
 Ga         3.2423764669       -0.0157073635        0.3244366362
  N         3.2417605299        1.8549296461        0.6062035913
 Ga         3.2695431860        1.8703292370        2.6373167548
  N         3.2426712510       -0.0154256593        3.2284782631
 Ga         3.2442659998       -0.0145766617        5.2399737980
  N         3.2447165746        1.8555532565        5.8478709502
 Ga         3.2473473927        1.8562731544        7.8470051931
  N         3.2448490735       -0.0144965775        8.4500191198
 Ga         3.2475159282       -0.0138640340       10.4453383667
  N         3.2522145957        1.8571321039       11.0515819373
 Ga         3.2596214324        1.8527658793       13.0485137397
  N         3.2552772721       -0.0166309611       13.6614088856
 Ga         3.2628369432       -0.0183991579       15.6677418121
  N         3.2841430626        1.8505119312       16.2383989898
 Ga         3.3231538716        1.8607751998       18.2653936399
  N         3.2966640920       -0.0220808007       18.7323974014
 Ga         1.6218228549        2.7904674668        0.3241797804
  N         1.6291332161        4.6604860266        0.6069067194
 Ga         1.6016259774        4.6756629285        2.6370454410
  N         1.6228348844        2.7899497837        3.2292400911
 Ga         1.6244543874        2.7911291081        5.2408894259
  N         1.6297834148        4.6612622730        5.8488175350
 Ga         1.6303438188        4.6619296756        7.8485591630
  N         1.6266138129        2.7906082140        8.4497453744
 Ga         1.6296841925        2.7921485463       10.4451705706
  N         1.6277741569        4.6627175992       11.0473026004
 Ga         1.6259233707        4.6655690198       13.0429325004
  N         1.6347855250        2.7887658403       13.6471633913
 Ga         1.6595843984        2.7887723762       15.6405856813
  N         1.6263279926        4.6629679288       16.1786109285
 Ga         1.6796040953        4.6437832086       18.1788343328
  N         1.6837615082        2.7818373135       18.6250640473
 Ga         0.0032524893        5.5956713515       -0.5456232931
  N         0.0060287980        7.4704320707        0.6065870662
 Ga         0.0061663706        7.4386314479        2.6368280083
  N         0.0031401700        5.5951584521        3.2691025937
 Ga         0.0048614611        5.5963164945        5.2595688744
  N         0.0075771832        7.4707076676        5.8484854862
 Ga         0.0088861721        7.4693957099        7.8479771105
  N         0.0051457606        5.5957445667        8.4476276029
 Ga         0.0062859674        5.5970012730       10.4448230798
  N         0.0117076786        7.4695972957       11.0441588306
 Ga         0.0141753088        7.4729316858       13.0363234474
  N         0.0037015315        5.6046337829       13.6454625540
 Ga         0.0066529130        5.5975005411       15.6438810337
  N         0.0410033322        7.4729610180       16.2571887782
 Ga         0.0580821037        7.4409278034       18.3473186765
  N         0.1267788612        5.5846227596       18.8703955703
 Ga         6.4876439121       -0.0152826548        0.3236787936
  N         6.4931854871        1.8553729657        0.6058653174
 Ga         6.4663292996        1.8701239351        2.6370912050
  N         6.4883395257       -0.0153440160        3.2291492277
 Ga         6.4898027770       -0.0146573774        5.2409081410
  N         6.4947026156        1.8558905713        5.8483506682
 Ga         6.4943501721        1.8569057623        7.8476906501
  N         6.4910322122       -0.0134060086        8.4511163923
 Ga         6.4945574663       -0.0103715671       10.4475652640
  N         6.4966616888        1.8619468985       11.0549995340
 Ga         6.5018856700        1.8677626751       13.0527450243
  N         6.4917942166       -0.0055904983       13.6327745301
 Ga         6.5119027150        0.0017956223       15.6319847836
  N         6.5166302588        1.8708094934       16.2351142137
 Ga         6.5733767716        1.8734735343       18.2777595261
  N         6.5560862912       -0.0248571369       18.6634896271
 Ga         4.8676734974        2.7915028674       -0.5394685291
  N         4.8710712474        4.6640596436        0.6067191688
 Ga         4.8708863184        4.6334658654        2.6375658980
  N         4.8683981140        2.7899196112        3.2691806697
 Ga         4.8697100888        2.7912608263        5.2595555995
  N         4.8723542108        4.6653008681        5.8485899124
 Ga         4.8728621394        4.6642953438        7.8481240981
  N         4.8709955249        2.7916286765        8.4502750150
 Ga         4.8740725838        2.7956730300       10.4491176065
  N         4.8789868758        4.6656523668       11.0581392662
 Ga         4.8805156526        4.6702715980       13.0613191561
  N         4.8751246620        2.7969449932       13.6589319822
 Ga         4.8826110840        2.7989487754       15.6756629472
  N         4.8535750890        4.6746484369       16.1570294613
 Ga         4.9440609063        4.6570912797       19.0970862155
  N         4.9427885126        2.7822841973       18.7435174957
 Ga         3.2488553453        5.5953624825        0.3236971833
  N         3.2478414029        7.4653625181        0.6074072528
 Ga         3.2759063222        7.4806967024        2.6376791022
  N         3.2487734644        5.5954690245        3.2293778151
 Ga         3.2501593898        5.5963714075        5.2408423649
  N         3.2505287074        7.4662263245        5.8498172355
 Ga         3.2530827598        7.4665562833        7.8500860809
  N         3.2515639765        5.5960605215        8.4548410964
 Ga         3.2548847249        5.5980508252       10.4539207616
  N         3.2570995115        7.4724775670       11.0487992650
 Ga         3.2591793045        7.4751115020       13.0459957038
  N         3.2462720797        5.6008833163       13.6217100653
 Ga         3.2537984639        5.6086083564       15.6268843198
  N         3.2772134535        7.4851082852       16.1608673975
 Ga         3.3220768109        7.4900174627       18.1753831055
  N         3.3814072735        5.5619009667       18.4415589821
  O         1.7346649605        5.5036003217       21.1411503685
  H         0.9990494492        5.4948496726       20.3719660218
  C         0.6860622553        3.6967604415       22.0355639122
  H         0.0359126349        3.4592241611       21.1692247136
  H         1.5789312721        3.0889558790       22.2507407874
  H         0.2634220980        4.3276242580       22.8431453142
  O         4.2618319963        4.7070402842       21.0743348789
  H         3.2598451833        4.9141529728       21.0319291280
  C         4.5769612094        3.5931717749       21.9434489296
  H         4.1213677949        2.6678473966       21.5595410000
  H         5.6640284972        3.4746317242       21.9864733967
  H         4.1809821874        3.8116904865       22.9453805474
     156
 i =        3, E =     -6136.5435159212
 Ga        -0.0031255521       -0.0158237388       -0.5460708091
  N        -0.0001598198        1.8590388044        0.6075415396
 Ga        -0.0001590697        1.8273694231        2.6376454783
  N        -0.0031931321       -0.0156541215        3.2706619333
 Ga        -0.0019411989       -0.0148922952        5.2606646097
  N         0.0010505406        1.8599239693        5.8485143787
 Ga         0.0027003595        1.8586926544        7.8479852540
  N         0.0014420153       -0.0144521053        8.4499977162
 Ga         0.0050632425       -0.0140343571       10.4484808929
  N         0.0047086378        1.8597517625       11.0507830039
 Ga         0.0123525270        1.8599758946       13.0444966633
  N         0.0181295228       -0.0121850852       13.6433175787
 Ga         0.0348296768       -0.0316840047       15.6369214761
  N         0.0320205594        1.8541041456       16.2110265886
 Ga         0.0478638458        1.8561542953       18.2675779866
  N         0.0377833300       -0.0143341919       18.6796870162
 Ga        -1.6224006330        2.7898906409        0.3248314474
  N        -1.6242239025        4.6599632793        0.6066830977
 Ga        -1.5957800233        4.6755728823        2.6369175699
  N        -1.6226665893        2.7898199661        3.2285939946
 Ga        -1.6214391740        2.7908430241        5.2400210686
  N        -1.6210974435        4.6610939487        5.8468592391
 Ga        -1.6190607917        4.6617765772        7.8455086117
  N        -1.6199162558        2.7919855700        8.4527184248
 Ga        -1.6182842422        2.7953098631       10.4486357227
  N        -1.6179765547        4.6661277761       11.0578077917
 Ga        -1.6196161241        4.6693514077       13.0563087818
  N        -1.6047925646        2.7985950694       13.6670827653
 Ga        -1.6010106713        2.8116043209       15.6715254819
  N        -1.5936757337        4.6742611794       16.3055993238
 Ga        -1.5216328745        4.6808805081       18.3780206425
  N        -1.5470316558        2.7870720080       18.7407775969
 Ga        -3.2432704278        5.5959634684        0.3246833003
  N        -3.2366676631        7.4658210422        0.6077165927
 Ga        -3.2645494173        7.4809508106        2.6377339019
  N        -3.2425003246        5.5953098134        3.2287937203
 Ga        -3.2416445103        5.5961430594        5.2400805542
  N        -3.2355131190        7.4663438544        5.8471338852
 Ga        -3.2355220098        7.4670477430        7.8459514925
  N        -3.2395869351        5.5965322157        8.4508672264
 Ga        -3.2389130283        5.5969561089       10.4468205011
  N        -3.2314440242        7.4660650521       11.0550874115
 Ga        -3.2229264256        7.4619158211       13.0535369770
  N        -3.2390582870        5.5960752181       13.6898561113
 Ga        -3.2248861644        5.5888240539       15.7271730555
  N        -3.2012683025        7.4584311878       16.2810842268
 Ga        -3.1975847041        7.4425710528       18.3379972633
  N        -3.1508269842        5.5870340044       18.8637303094
 Ga         3.2425295334       -0.0159661969        0.3250315559
  N         3.2416946379        1.8548029012        0.6062160704
 Ga         3.2695968196        1.8702659846        2.6376364450
  N         3.2427445683       -0.0155257148        3.2284942790
 Ga         3.2442216961       -0.0145940338        5.2400213626
  N         3.2448425718        1.8556165094        5.8475863534
 Ga         3.2472487666        1.8565775450        7.8467736232
  N         3.2447550688       -0.0142710446        8.4502527022
 Ga         3.2471855440       -0.0137173928       10.4456997328
  N         3.2529969448        1.8571404229       11.0519487906
 Ga         3.2600660791        1.8538786073       13.0487075606
  N         3.2538193132       -0.0153720531       13.6604831597
 Ga         3.2605609472       -0.0180822654       15.6670967864
  N         3.2841236165        1.8479506117       16.2446834221
 Ga         3.3217517570        1.8633431638       18.2734559082
  N         3.2927816856       -0.0197386747       18.7434541193
 Ga         1.6217407194        2.7905974025        0.3248131563
  N         1.6290268965        4.6605824962        0.6071069054
 Ga         1.6016376758        4.6756780115        2.6373565907
  N         1.6228656659        2.7898998530        3.2292638621
 Ga         1.6244346133        2.7911086951        5.2409556519
  N         1.6298729330        4.6612737696        5.8486607016
 Ga         1.6303740041        4.6617680888        7.8486760110
  N         1.6264164918        2.7903412679        8.4511584842
 Ga         1.6296028214        2.7917554381       10.4469259659
  N         1.6270559007        4.6628203377       11.0455503124
 Ga         1.6247223084        4.6663768034       13.0404903494
  N         1.6362751919        2.7903590588       13.6463769762
 Ga         1.6627781530        2.7889866144       15.6389677800
  N         1.6240122170        4.6622617047       16.1707810383
 Ga         1.6816426039        4.6448103660       18.1696863755
  N         1.6819291051        2.7877519452       18.6265923474
 Ga         0.0033312030        5.5955964469       -0.5461345209
  N         0.0061093338        7.4701253940        0.6066879921
 Ga         0.0062528186        7.4385471370        2.6370236282
  N         0.0031917976        5.5951863804        3.2693100695
 Ga         0.0048773391        5.5963063269        5.2597260432
  N         0.0076483045        7.4707934063        5.8482173235
 Ga         0.0089970131        7.4695238811        7.8479005993
  N         0.0049065310        5.5957493916        8.4479643585
 Ga         0.0055124258        5.5971712901       10.4454224451
  N         0.0115153319        7.4700968302       11.0444170096
 Ga         0.0134377981        7.4731109411       13.0370023344
  N         0.0029417289        5.6045481475       13.6443648846
 Ga         0.0052655716        5.5974120126       15.6436494300
  N         0.0407455288        7.4761545141       16.2559371741
 Ga         0.0480653411        7.4425454020       18.3447351549
  N         0.1310352012        5.5823399003       18.8612536026
 Ga         6.4876506509       -0.0155470516        0.3242606411
  N         6.4933844758        1.8552305633        0.6058812023
 Ga         6.4665030600        1.8701024799        2.6374247964
  N         6.4884142876       -0.0154146829        3.2292044701
 Ga         6.4900000020       -0.0146076124        5.2410272780
  N         6.4948714857        1.8560317425        5.8479497320
 Ga         6.4948419197        1.8572964845        7.8472439275
  N         6.4910829597       -0.0128638683        8.4518791769
 Ga         6.4947771976       -0.0093804824       10.4487475816
  N         6.4966138999        1.8633091412       11.0553564737
 Ga         6.5027297143        1.8694275140       13.0529961824
  N         6.4926856642       -0.0038542158       13.6303468130
 Ga         6.5103703947        0.0021191191       15.6287156045
  N         6.5177181532        1.8690657423       16.2387715014
 Ga         6.5762034881        1.8694671853       18.2836367484
  N         6.5523497567       -0.0305160527       18.6657514759
 Ga         4.8677640907        2.7914618236       -0.5390926933
  N         4.8711379248        4.6642142468        0.6067020772
 Ga         4.8710224157        4.6334986417        2.6378486053
  N         4.8684912830        2.7899019866        3.2693083645
 Ga         4.8698495812        2.7913615028        5.2597376559
  N         4.8725925189        4.6653993868        5.8483968240
 Ga         4.8730597039        4.6644174931        7.8480761438
  N         4.8712536143        2.7915142286        8.4505827963
 Ga         4.8741686257        2.7960448638       10.4493934109
  N         4.8787759856        4.6657015118       11.0575374296
 Ga         4.8787687916        4.6689927217       13.0604714814
  N         4.8756885701        2.7968347948       13.6623470672
 Ga         4.8818858033        2.7951186809       15.6811163237
  N         4.8474669329        4.6766247140       16.1499602211
 Ga         4.9539536371        4.6496484979       19.0960293858
  N         4.9461473693        2.7751728050       18.7511015618
 Ga         3.2487172346        5.5954169663        0.3242654634
  N         3.2476203377        7.4651670844        0.6073987292
 Ga         3.2761523378        7.4808195000        2.6374418592
  N         3.2488677457        5.5955338460        3.2293919427
 Ga         3.2502916467        5.5964876832        5.2409736345
  N         3.2506990550        7.4663316240        5.8496337503
 Ga         3.2533024154        7.4669366630        7.8499735404
  N         3.2516516159        5.5963093253        8.4549522902
 Ga         3.2546354938        5.5981081521       10.4543803065
  N         3.2582336838        7.4732715068       11.0463727791
 Ga         3.2592774040        7.4771315695       13.0426509654
  N         3.2448124029        5.6033460320       13.6160456136
 Ga         3.2503104508        5.6112944376       15.6196340604
  N         3.2743795854        7.4850654071       16.1616383601
 Ga         3.3182149108        7.4873393582       18.1775241775
  N         3.3941802321        5.5540912536       18.4263378574
  O         1.7784953776        5.6219829646       21.0994958909
  H         1.0576412262        5.6104813504       20.3622470874
  C         0.6371857496        3.6076369735       22.0720031133