     156
 i =        1, E =     -6136.5663675166
 Ga        -0.0031972860       -0.0158329547       -0.5375916865
  N        -0.0002729729        1.8584779909        0.6070042997
 Ga        -0.0003340823        1.8280290746        2.6383736353
  N        -0.0033776500       -0.0156159221        3.2696675670
 Ga        -0.0021652440       -0.0150505183        5.2603857705
  N         0.0008176063        1.8596742007        5.8482870687
 Ga         0.0022935066        1.8581494953        7.8482602144
  N         0.0008334923       -0.0150045213        8.4505964659
 Ga         0.0037469551       -0.0157249188       10.4498028779
  N         0.0042759913        1.8600699669       11.0415525263
 Ga         0.0095681982        1.8622477221       13.0320269608
  N         0.0153323037       -0.0087480632       13.6325103789
 Ga         0.0304171590       -0.0177865556       15.6248575035
  N         0.0199130644        1.8575216979       16.2217036155
 Ga         0.0448658629        1.8472307343       18.2878696607
  N         0.0484217582       -0.0267924176       18.6984390757
 Ga        -1.6230535284        2.7898790533        0.3238584115
  N        -1.6248092657        4.6597399021        0.6067053764
 Ga        -1.5956877827        4.6757302949        2.6367591925
  N        -1.6231060978        2.7899847041        3.2283063622
 Ga        -1.6217674984        2.7906187303        5.2398538274
  N        -1.6212821119        4.6608903916        5.8464779577
 Ga        -1.6191122256        4.6615342979        7.8452212067
  N        -1.6203687699        2.7918376521        8.4511994896
 Ga        -1.6194711047        2.7953491536       10.4471956714
  N        -1.6174692345        4.6668740617       11.0551931349
 Ga        -1.6181915831        4.6714128218       13.0527569688
  N        -1.6072579567        2.7998371160       13.6584063918
 Ga        -1.6007405730        2.8163990537       15.6629595530
  N        -1.5864195306        4.6838592933       16.3116474894
 Ga        -1.5144991641        4.6809476660       18.3865108984
  N        -1.5542740868        2.7885605815       18.7557821016
 Ga        -3.2437385319        5.5955550040        0.3237769429
  N        -3.2373751833        7.4661485922        0.6072622604
 Ga        -3.2641809950        7.4807091508        2.6385127232
  N        -3.2426867221        5.5950414480        3.2286450388
 Ga        -3.2419166727        5.5960175464        5.2401020878
  N        -3.2357830094        7.4663007255        5.8469781694
 Ga        -3.2358773554        7.4670841208        7.8461556498
  N        -3.2398785983        5.5961819196        8.4495191877
 Ga        -3.2389558205        5.5972428183       10.4449832301
  N        -3.2308427021        7.4658246358       11.0556391152
 Ga        -3.2219201361        7.4629503099       13.0544408409
  N        -3.2355838223        5.5972847755       13.6928690989
 Ga        -3.2226953932        5.5919646928       15.7299412080
  N        -3.2086235834        7.4742709408       16.2704946050
 Ga        -3.1859021160        7.4478241596       18.3277673569
  N        -3.1589304932        5.5862012866       18.8507674872
 Ga         3.2425511733       -0.0154445079        0.3241640876
  N         3.2414640716        1.8548065786        0.6064059483
 Ga         3.2696600512        1.8704492563        2.6372723842
  N         3.2428080798       -0.0153018389        3.2283075045
 Ga         3.2440036900       -0.0146003281        5.2399796605
  N         3.2446612939        1.8555404291        5.8474796865
 Ga         3.2471217032        1.8563014328        7.8469015704
  N         3.2448897684       -0.0146527780        8.4498513358
 Ga         3.2477492173       -0.0140938796       10.4454079851
  N         3.2516259661        1.8569302611       11.0512344820
 Ga         3.2584325992        1.8539967440       13.0485964332
  N         3.2577983439       -0.0166532927       13.6599107826
 Ga         3.2697720648       -0.0187689986       15.6657919627
  N         3.2837269664        1.8547289131       16.2308313162
 Ga         3.3197727743        1.8603545029       18.2552586038
  N         3.3063281569       -0.0256579978       18.7099816128
 Ga         1.6221356504        2.7905839103        0.3237605844
  N         1.6293375148        4.6603703634        0.6070261759
 Ga         1.6011638694        4.6758750510        2.6371230670
  N         1.6229364067        2.7900954796        3.2290419563
 Ga         1.6243016789        2.7909481362        5.2409043591
  N         1.6297316129        4.6611464128        5.8483957826
 Ga         1.6302396980        4.6616191868        7.8483635561
  N         1.6261116752        2.7902914320        8.4496207680
 Ga         1.6296900267        2.7921056017       10.4450778977
  N         1.6277775603        4.6624120919       11.0490911341
 Ga         1.6291584750        4.6647054751       13.0447559797
  N         1.6312527589        2.7873616938       13.6464323841
 Ga         1.6546438333        2.7849585333       15.6411177527
  N         1.6291957186        4.6650052661       16.1843891246
 Ga         1.6784311650        4.6402299394       18.1815176456
  N         1.6849130714        2.7776047471       18.6346988009
 Ga         0.0031267525        5.5957809091       -0.5460644950
  N         0.0059631073        7.4707668775        0.6066921360
 Ga         0.0060797994        7.4382903530        2.6368396072
  N         0.0030123582        5.5951899702        3.2695561326
 Ga         0.0046921361        5.5962069854        5.2597958687
  N         0.0074732693        7.4707308120        5.8477468012
 Ga         0.0089324417        7.4693602069        7.8473825621
  N         0.0049615621        5.5956919798        8.4475001846
 Ga         0.0067218724        5.5972401033       10.4447801031
  N         0.0116956763        7.4694098096       11.0449627830
 Ga         0.0151583957        7.4714207804       13.0370631448
  N         0.0057065744        5.6027641008       13.6456368070
 Ga         0.0064572011        5.6014665152       15.6418601212
  N         0.0373073496        7.4659430280       16.2692164372
 Ga         0.0724447920        7.4322931122       18.3565343643
  N         0.1388702294        5.5809741521       18.8986912393
 Ga         6.4873194166       -0.0150112692        0.3233785080
  N         6.4933547123        1.8552431831        0.6060781700
 Ga         6.4660947503        1.8703007993        2.6370718902
  N         6.4880555340       -0.0152152288        3.2289209903
 Ga         6.4897976911       -0.0146100469        5.2408760173
  N         6.4945650335        1.8559331561        5.8479443433
 Ga         6.4944340054        1.8568656763        7.8475061072
  N         6.4910154863       -0.0135251662        8.4515850387
 Ga         6.4945775142       -0.0112819396       10.4481881991
  N         6.4964387340        1.8611465478       11.0529235895
 Ga         6.5008854798        1.8654485983       13.0501134098
  N         6.4899615992       -0.0070129179       13.6381411184
 Ga         6.5089750253       -0.0000881602       15.6390233396
  N         6.5163898210        1.8736491279       16.2291162498
 Ga         6.5724842931        1.8765905535       18.2703289926
  N         6.5609333766       -0.0215332532       18.6560412379
 Ga         4.8675978390        2.7916176897       -0.5407201830
  N         4.8709926226        4.6643843343        0.6069515858
 Ga         4.8708433838        4.6332336556        2.6375486352
  N         4.8683123888        2.7899033646        3.2692973676
 Ga         4.8696074592        2.7911735604        5.2595386883
  N         4.8722549966        4.6651827733        5.8481345599
 Ga         4.8727497921        4.6640321907        7.8478258917
  N         4.8709691860        2.7914542012        8.4504684404
 Ga         4.8737836279        2.7956381383       10.4497153041
  N         4.8796227612        4.6660294044       11.0584074994
 Ga         4.8809941648        4.6697889776       13.0608952456
  N         4.8759906287        2.7957755596       13.6539496338
 Ga         4.8829440282        2.8016729181       15.6676622014
  N         4.8620442169        4.6739366766       16.1684143581
 Ga         4.9330064952        4.6623500963       19.0919730478
  N         4.9399548735        2.7836732157       18.7399362443
 Ga         3.2489114294        5.5950410534        0.3233215692
  N         3.2480356067        7.4655301136        0.6067729416
 Ga         3.2754809325        7.4805717199        2.6380899215
  N         3.2486685688        5.5952812381        3.2290960257
 Ga         3.2500910907        5.5963525412        5.2407710484
  N         3.2504882190        7.4661953874        5.8494258815
 Ga         3.2531340228        7.4666193863        7.8498726629
  N         3.2515172522        5.5959997761        8.4551972996
 Ga         3.2549088743        5.5976525771       10.4543245472
  N         3.2566807174        7.4714401880       11.0506729538
 Ga         3.2573460322        7.4729108068       13.0478889160
  N         3.2491325106        5.5987014777       13.6294748372
 Ga         3.2565069144        5.6058901993       15.6352976813
  N         3.2799484642        7.4864958479       16.1587729848
 Ga         3.3269344065        7.4923884035       18.1720905193
  N         3.3626830022        5.5701679331       18.4641359958
  O         1.6287812896        5.1735437852       21.1982169659
  H         0.9806785564        5.4177773944       20.4524558201
  C         0.7976251129        3.9127442626       21.9287995324
  H         0.0942036238        3.5232774381       21.1744878420
  H         1.5652082737        3.1760862993       22.2035213342
  H         0.2971520803        4.3733961146       22.7953857459
  O         4.2494588113        4.7161384169       21.0734874102
  H         3.2423950881        4.8651305062       21.0713379151
  C         4.5518964928        3.5954634635       21.9440595335
  H         4.1177000921        2.6620497140       21.5597984158
  H         5.6436790850        3.5047724819       21.9646262422
  H         4.1783425778        3.8118927820       22.9530346119
     156
 i =        2, E =     -6136.5926908254
 Ga        -0.0031852482       -0.0158319357       -0.5429688453
  N        -0.0002243445        1.8587404753        0.6074880408
 Ga        -0.0002127109        1.8276504622        2.6379892961
  N        -0.0033123016       -0.0156303456        3.2703000338
 Ga        -0.0021190382       -0.0150347552        5.2604186023
  N         0.0009560462        1.8597739039        5.8487378410
 Ga         0.0025437988        1.8583630760        7.8485699788
  N         0.0010568040       -0.0150875885        8.4497184592
 Ga         0.0043485355       -0.0153875878       10.4485233137
  N         0.0043418297        1.8598784643       11.0461716895
 Ga         0.0109283612        1.8617280840       13.0381152304
  N         0.0170700077       -0.0093075295       13.6393482049
 Ga         0.0335400445       -0.0266083139       15.6325031944
  N         0.0263881763        1.8560115057       16.2170129234
 Ga         0.0469328722        1.8521273753       18.2794437533
  N         0.0427380097       -0.0191886638       18.6889314557
 Ga        -1.6226233090        2.7897157864        0.3242075348
  N        -1.6246270278        4.6597740880        0.6064618672
 Ga        -1.5958924196        4.6756074922        2.6367297187
  N        -1.6228994038        2.7898524294        3.2284008623
 Ga        -1.6216881208        2.7907478132        5.2398368788
  N        -1.6211170757        4.6610434948        5.8469258320
 Ga        -1.6190085327        4.6619333809        7.8455472528
  N        -1.6203990142        2.7920517289        8.4510221743
 Ga        -1.6191671134        2.7955818995       10.4467989325
  N        -1.6176518920        4.6666434702       11.0563119395
 Ga        -1.6189832087        4.6702286715       13.0542658407
  N        -1.6057735387        2.7993011466       13.6640341397
 Ga        -1.6018621443        2.8146256599       15.6684926670
  N        -1.5895759281        4.6790217667       16.3101785516
 Ga        -1.5181922932        4.6805872214       18.3847246883
  N        -1.5514642918        2.7866639751       18.7417944347
 Ga        -3.2435969805        5.5959230838        0.3241568413
  N        -3.2370336205        7.4660044614        0.6077450098
 Ga        -3.2644183135        7.4808305625        2.6381665311
  N        -3.2426627244        5.5951693225        3.2287402274
 Ga        -3.2418306903        5.5960186873        5.2400219691
  N        -3.2356208827        7.4663689011        5.8472144253
 Ga        -3.2355559938        7.4670173918        7.8461630744
  N        -3.2398266215        5.5963617047        8.4501724196
 Ga        -3.2390500125        5.5972986365       10.4458738989
  N        -3.2309734933        7.4661899199       11.0553875222
 Ga        -3.2226512892        7.4621380451       13.0541145829
  N        -3.2365476258        5.5968536312       13.6923983703
 Ga        -3.2242707977        5.5900337807       15.7298956527
  N        -3.2034512163        7.4649674435       16.2758057157
 Ga        -3.1926548174        7.4443208478       18.3320569446
  N        -3.1557051930        5.5862012334       18.8577666055
 Ga         3.2423467965       -0.0156807353        0.3245054300
  N         3.2417137467        1.8549138362        0.6061216601
 Ga         3.2695694113        1.8703512964        2.6373640301
  N         3.2427151087       -0.0153851838        3.2283854111
 Ga         3.2442341528       -0.0145732343        5.2398848908
  N         3.2447157937        1.8555549007        5.8478052201
 Ga         3.2472981024        1.8562803109        7.8469628757
  N         3.2448591173       -0.0145160747        8.4499931895
 Ga         3.2475537904       -0.0138958035       10.4453431250
  N         3.2520698706        1.8570786900       11.0514621002
 Ga         3.2595223739        1.8529756021       13.0484276861
  N         3.2556041344       -0.0166027899       13.6610433272
 Ga         3.2639303537       -0.0183303351       15.6672350787
  N         3.2842495214        1.8509461511       16.2376130138
 Ga         3.3233584003        1.8609950911       18.2640272940
  N         3.2982931062       -0.0226893695       18.7293103664
 Ga         1.6218255968        2.7904423933        0.3242085223
  N         1.6292490705        4.6604157883        0.6068388960
 Ga         1.6015692865        4.6756882356        2.6371157936
  N         1.6228860661        2.7899776205        3.2291467242
 Ga         1.6244346969        2.7911039518        5.2408064731
  N         1.6297813842        4.6612443272        5.8487438450
 Ga         1.6303080384        4.6618799246        7.8485033457
  N         1.6265269231        2.7905602344        8.4496987408
 Ga         1.6297222835        2.7921663086       10.4450940761
  N         1.6277617195        4.6626564541       11.0473557911
 Ga         1.6262961944        4.6654284856       13.0428775393
  N         1.6342438966        2.7885840298       13.6471208995
 Ga         1.6592971723        2.7880301446       15.6406456638
  N         1.6263164740        4.6634132543       16.1785909652
 Ga         1.6792418372        4.6428291896       18.1775132334
  N         1.6845992146        2.7812883310       18.6246915974
 Ga         0.0032409544        5.5956984929       -0.5450517556
  N         0.0060188008        7.4705933870        0.6065199654
 Ga         0.0061576597        7.4385937529        2.6368848099
  N         0.0031251568        5.5951673006        3.2690833335
 Ga         0.0048437243        5.5962995819        5.2595265318
  N         0.0075614039        7.4707111930        5.8483752919
 Ga         0.0088947272        7.4693789934        7.8478745531
  N         0.0051167434        5.5957381438        8.4476326737
 Ga         0.0063481321        5.5970525274       10.4448366400
  N         0.0116795467        7.4695770052       11.0442148824
 Ga         0.0143220506        7.4727729579       13.0363408281
  N         0.0039325750        5.6043297612       13.6451507245
 Ga         0.0064231425        5.5984049669       15.6429890634
  N         0.0403003729        7.4719584107       16.2588234111
 Ga         0.0604771360        7.4390065198       18.3483805068
  N         0.1339203324        5.5850736304       18.8843540706
 Ga         6.4876563286       -0.0152569723        0.3237550205
  N         6.4932180935        1.8553558304        0.6057855718
 Ga         6.4662855858        1.8701477171        2.6371408659
  N         6.4882791505       -0.0153022499        3.2290491075
 Ga         6.4897982092       -0.0146511027        5.2408108277
  N         6.4946755781        1.8558974717        5.8482771201
 Ga         6.4943828343        1.8569028048        7.8476317465
  N         6.4910259111       -0.0134165398        8.4511928273
 Ga         6.4945317833       -0.0105056081       10.4476746808
  N         6.4966988427        1.8618485523       11.0546365904
 Ga         6.5016738172        1.8674647864       13.0522888725
  N         6.4915582767       -0.0057305894       13.6335022516
 Ga         6.5111093098        0.0017217513       15.6328861926
  N         6.5166813927        1.8712428829       16.2348528294
 Ga         6.5719921702        1.8732323168       18.2771441450
  N         6.5570578852       -0.0248761360       18.6636920476
 Ga         4.8676665428        2.7915080128       -0.5388711102
  N         4.8710626145        4.6641096177        0.6066375648
 Ga         4.8708769095        4.6334241623        2.6376158993
  N         4.8683885413        2.7899185748        3.2691113134
 Ga         4.8696934403        2.7912464681        5.2594573080
  N         4.8723435786        4.6652769400        5.8485152314
 Ga         4.8728502822        4.6642689460        7.8480630192
  N         4.8709954142        2.7915972396        8.4503349961
 Ga         4.8740109044        2.7956604302       10.4492925959
  N         4.8790509277        4.6657498752       11.0581317760
 Ga         4.8805855538        4.6700574244       13.0612875314
  N         4.8752294574        2.7966407158       13.6581075939
 Ga         4.8826412065        2.7988615373       15.6742863723
  N         4.8550278960        4.6740142617       16.1581140818
 Ga         4.9405019288        4.6586696966       19.0972476827
  N         4.9423931824        2.7833358042       18.7440323837
 Ga         3.2488779084        5.5953730845        0.3237586369
  N         3.2478182532        7.4653566407        0.6073601190
 Ga         3.2758323562        7.4806688602        2.6378263732
  N         3.2487691943        5.5954096390        3.2292704491
 Ga         3.2501512162        5.5963688041        5.2407412956
  N         3.2505174885        7.4662226363        5.8497438921
 Ga         3.2530887523        7.4665755499        7.8500166111
  N         3.2515426257        5.5960580374        8.4548399413
 Ga         3.2548555881        5.5979912259       10.4539216124
  N         3.2570798917        7.4723632944       11.0489126739
 Ga         3.2588553107        7.4748789557       13.0460865957
  N         3.2465166597        5.6006240097       13.6226931073
 Ga         3.2545151089        5.6081391554       15.6281063982
  N         3.2773669149        7.4855122011       16.1600434264
 Ga         3.3226685204        7.4904337393       18.1739761848
  N         3.3767331059        5.5638686669       18.4459931132
  O         1.6653800782        5.2737664316       21.1931536374
  H         0.9953194883        5.4387275598       20.4319281245
  C         0.7588048020        3.8458196122       21.9613402277
  H         0.0775648968        3.5034308358       21.1713414590
  H         1.5681268332        3.1544423218       22.2153358091
  H         0.2880087572        4.3554846346       22.8089192222
  O         4.2453690435        4.7112582060       21.0732368704
  H         3.2400319748        4.8903838118       21.0538925364
  C         4.5641819799        3.5962040204       21.9423475138
  H         4.1201064044        2.6658201099       21.5600406040
  H         5.6533782548        3.4892806779       21.9760074109
  H         4.1799909073        3.8114806123       22.9484066225
     156
 i =        3, E =     -6136.5971669070
 Ga        -0.0031475253       -0.0158400078       -0.5453136544
  N        -0.0001678301        1.8589229682        0.6074814647
 Ga        -0.0001759715        1.8273843337        2.6378023320
  N        -0.0032071779       -0.0156519066        3.2706684597
 Ga        -0.0019591250       -0.0148991231        5.2607563483
  N         0.0010247299        1.8599070001        5.8483756482
 Ga         0.0026655715        1.8586477124        7.8479650434
  N         0.0013831228       -0.0145076305        8.4497973414
 Ga         0.0049519597       -0.0141428479       10.4484171246
  N         0.0045889667        1.8598358326       11.0496891557
 Ga         0.0120663564        1.8602231944       13.0428480884
  N         0.0180291299       -0.0113130977       13.6427955144
 Ga         0.0349847691       -0.0308112167       15.6363201818
  N         0.0305835159        1.8542694963       16.2137031231
 Ga         0.0477821141        1.8547952222       18.2724418962
  N         0.0385053776       -0.0160461762       18.6824879746
 Ga        -1.6223402665        2.7898846925        0.3246368945
  N        -1.6242912205        4.6599260152        0.6066134771
 Ga        -1.5957889191        4.6755697377        2.6370198074
  N        -1.6227137880        2.7898062668        3.2285634423
 Ga        -1.6214775521        2.7908251386        5.2401090030
  N        -1.6211008852        4.6610822219        5.8467201018
 Ga        -1.6190749374        4.6617722378        7.8454577657
  N        -1.6199698628        2.7919861467        8.4521957512
 Ga        -1.6183526055        2.7952840039       10.4480850627
  N        -1.6179292782        4.6660468094       11.0572123400
 Ga        -1.6196262363        4.6695995463       13.0555044437
  N        -1.6046531100        2.7988582011       13.6672699495
 Ga        -1.6013688621        2.8121562011       15.6719834124
  N        -1.5921119640        4.6752836405       16.3082872305
 Ga        -1.5188744092        4.6831788492       18.3830622298
  N        -1.5489567036        2.7873536865       18.7347051308
 Ga        -3.2432532773        5.5960219449        0.3245150829
  N        -3.2367640415        7.4658805613        0.6076680896
 Ga        -3.2645554996        7.4809570851        2.6378972119
  N        -3.2425471017        5.5952954441        3.2287696283
 Ga        -3.2416580803        5.5961263485        5.2401801638
  N        -3.2355285683        7.4663397421        5.8470026793
 Ga        -3.2355446752        7.4670490796        7.8459419697
  N        -3.2396074559        5.5965129776        8.4506316627
 Ga        -3.2389534713        5.5970328500       10.4466734959
  N        -3.2314606900        7.4661438606       11.0551406653
 Ga        -3.2228469340        7.4619897785       13.0538397904
  N        -3.2379871885        5.5963719963       13.6904038850
 Ga        -3.2244187080        5.5891258775       15.7278402079
  N        -3.2019118599        7.4594375360       16.2794839480
 Ga        -3.1971328794        7.4427851132       18.3359732346
  N        -3.1523335547        5.5869064937       18.8664189362
 Ga         3.2424762805       -0.0159912372        0.3248772934
  N         3.2416909973        1.8548334948        0.6059648687
 Ga         3.2696131599        1.8702921835        2.6376744855
  N         3.2427241808       -0.0154803612        3.2284743471
 Ga         3.2442077359       -0.0145922444        5.2401169714
  N         3.2448371346        1.8556037950        5.8474743994
 Ga         3.2472396203        1.8565348821        7.8467796413
  N         3.2447580016       -0.0143087658        8.4500844008
 Ga         3.2471947521       -0.0137416106       10.4456279777
  N         3.2526834258        1.8571690310       11.0516294465
 Ga         3.2598458585        1.8537420159       13.0485350997
  N         3.2541360513       -0.0154741807       13.6603297146
 Ga         3.2611391393       -0.0185979221       15.6668018022
  N         3.2845820095        1.8484399570       16.2426905396
 Ga         3.3228510614        1.8627088764       18.2710614058
  N         3.2947758027       -0.0213655737       18.7396321326
 Ga         1.6216608106        2.7905920195        0.3246049095
  N         1.6290701903        4.6605391027        0.6070362241
 Ga         1.6016058007        4.6756761624        2.6374489931
  N         1.6228804196        2.7898827534        3.2292367701
 Ga         1.6244219611        2.7910886507        5.2410524741
  N         1.6298365511        4.6612674774        5.8484988523
 Ga         1.6303376717        4.6617481274        7.8485797126
  N         1.6263904167        2.7903526808        8.4506799914
 Ga         1.6295153410        2.7917132340       10.4464116916
  N         1.6271474058        4.6626911900       11.0456531042
 Ga         1.6249239641        4.6661621512       13.0407309144
  N         1.6355573143        2.7899513352       13.6467668836
 Ga         1.6622857262        2.7882688009       15.6398119761
  N         1.6238415945        4.6631788509       16.1722792848
 Ga         1.6811824269        4.6455420401       18.1709077104
  N         1.6829406382        2.7863968611       18.6216293384
 Ga         0.0033231992        5.5956410424       -0.5454629639
  N         0.0060883349        7.4702414316        0.6066394146
 Ga         0.0062299232        7.4385519958        2.6371222446
  N         0.0031721546        5.5951911716        3.2692904934
 Ga         0.0048515689        5.5962948213        5.2597869091
  N         0.0076353707        7.4707757404        5.8480835395
 Ga         0.0089618805        7.4695145312        7.8478471202
  N         0.0049130897        5.5957432114        8.4477450815
 Ga         0.0055951878        5.5971573906       10.4452434056
  N         0.0115177172        7.4700054503       11.0443243584
 Ga         0.0134527192        7.4731564785       13.0369622150
  N         0.0029774168        5.6043647712       13.6443538944
 Ga         0.0051142249        5.5983798108       15.6429434242
  N         0.0401270496        7.4754639357       16.2567627734
 Ga         0.0521892990        7.4417714292       18.3446255259
  N         0.1356005272        5.5855418889       18.8743862766
 Ga         6.4876714629       -0.0155796484        0.3241220105
  N         6.4933700919        1.8552548053        0.6056408219
 Ga         6.4664548996        1.8701360746        2.6374730119
  N         6.4883983814       -0.0153701265        3.2291606983
 Ga         6.4899661624       -0.0145994672        5.2410920233
  N         6.4948308350        1.8560109125        5.8478612623
 Ga         6.4947816154        1.8572635994        7.8472682225
  N         6.4910694144       -0.0129313260        8.4517083322
 Ga         6.4947781904       -0.0095123289       10.4486780103
  N         6.4968236479        1.8631813080       11.0551415735
 Ga         6.5025627282        1.8690319671       13.0528524984
  N         6.4923408626       -0.0041432977       13.6311641595
 Ga         6.5099732369        0.0021228014       15.6296958635
  N         6.5174246748        1.8692904843       16.2382825894
 Ga         6.5731267423        1.8692166874       18.2825820242
  N         6.5548507521       -0.0300746182       18.6676949871
 Ga         4.8677540438        2.7914489920       -0.5376291365
  N         4.8711235512        4.6642056169        0.6064537475
 Ga         4.8710067420        4.6334507737        2.6379003651
  N         4.8684720812        2.7898967195        3.2692889536
 Ga         4.8698302268        2.7913316361        5.2598086398
  N         4.8725670115        4.6653659248        5.8482597527
 Ga         4.8730529315        4.6643812799        7.8480470229
  N         4.8712151025        2.7915088551        8.4504797872
 Ga         4.8741641024        2.7959886094       10.4495188376
  N         4.8788069903        4.6657734775       11.0578835380
 Ga         4.8793483337        4.6690549479       13.0613231015
  N         4.8755339442        2.7962907318       13.6609419495
 Ga         4.8822963381        2.7957492950       15.6791762224
  N         4.8497670500        4.6756410171       16.1502189082
 Ga         4.9468143838        4.6536263685       19.0968013156
  N         4.9451288232        2.7776779556       18.7525346426
 Ga         3.2486705199        5.5954726176        0.3241074596
  N         3.2476846691        7.4652207297        0.6073514537
 Ga         3.2761303088        7.4808236300        2.6376029403
  N         3.2488770692        5.5955156988        3.2293576973
 Ga         3.2502671252        5.5964690734        5.2410571412
  N         3.2506600320        7.4663285388        5.8494845554
 Ga         3.2532900361        7.4669143615        7.8499109289
  N         3.2516177292        5.5962786992        8.4547310517
 Ga         3.2547190851        5.5981200803       10.4542110158
  N         3.2581468812        7.4731571765       11.0469033081
 Ga         3.2591443187        7.4769805931       13.0434836771
  N         3.2448377909        5.6029307894       13.6174206517
 Ga         3.2520965536        5.6104707333       15.6220609809
  N         3.2745375095        7.4856263357       16.1598119719
 Ga         3.3194988368        7.4881409488       18.1739628514
  N         3.3881797874        5.5584612647       18.4293036512
  O         1.6862740251        5.3239011320       21.1908121534
  H         1.0222403135        5.4694315390       20.4267329722
  C         0.7349894935        3.8065317518       21.9837230364