 DBCSR| Multiplication driver                                               BLAS
 DBCSR| Multrec recursion limit                                              512
 DBCSR| Multiplication stack size                                           1000
 DBCSR| Maximum elements for images                                    UNLIMITED
 DBCSR| Multiplicative factor virtual images                                   1
 DBCSR| Multiplication size stacks                                             3
 DBCSR| Number of 3D layers                                               SINGLE
 DBCSR| Use MPI memory allocation                                              T
 DBCSR| Use RMA algorithm                                                      F
 DBCSR| Use Communication thread                                               T
 DBCSR| Communication thread load                                             87


  **** **** ******  **  PROGRAM STARTED AT               2019-05-14 22:54:35.399
 ***** ** ***  *** **   PROGRAM STARTED ON        blg8434.int.ets1.calculquebec.
 **    ****   ******    PROGRAM STARTED BY                                   rzk
 ***** **    ** ** **   PROGRAM PROCESS ID                                288103
  **** **  *******  **  PROGRAM STARTED IN /lustre03/project/6004141/rzk/GaN-car
                                           bene/00-Surface/00-Preoptimization/11
                                           4-native/Trial2

 CP2K| version string:                    CP2K version 7.0 (Development Version)
 CP2K| source code revision number:                                    svn:18619
 CP2K| cp2kflags: libint fftw3 libxc parallel mpi3 scalapack mkl                
 CP2K| is freely available from                            https://www.cp2k.org/
 CP2K| Program compiled at                          Sun Apr  7 00:48:11 EDT 2019
 CP2K| Program compiled on                      beluga2.int.ets1.calculquebec.ca
 CP2K| Program compiled for                    Beluga-Linux-x86-64-intel-openmpi
 CP2K| Data directory path    /home/rzk/projects/def-rzk/group/cp2k/cp2k-mcgill/
 CP2K| Input file name                                            114-native.inp
 
 GLOBAL| Force Environment number                                              1
 GLOBAL| Basis set file name                                        BASIS_MOLOPT
 GLOBAL| Potential file name                                      GTH_POTENTIALS
 GLOBAL| MM Potential file name                                     MM_POTENTIAL
 GLOBAL| Coordinate file name                                     114-native.xyz
 GLOBAL| Method name                                                        CP2K
 GLOBAL| Project name                                                       TEST
 GLOBAL| Preferred FFT library                                             FFTW3
 GLOBAL| Preferred diagonalization lib.                                       SL
 GLOBAL| Run type                                                       CELL_OPT
 GLOBAL| All-to-all communication in single precision                          F
 GLOBAL| FFTs using library dependent lengths                                  F
 GLOBAL| Global print level                                                  LOW
 GLOBAL| MPI I/O enabled                                                       T
 GLOBAL| Total number of message passing processes                            40
 GLOBAL| Number of threads for this process                                    1
 GLOBAL| This output is from process                                           0
 GLOBAL| CPU model name :  Intel(R) Xeon(R) Gold 6148 CPU @ 2.40GHz

 MEMORY| system memory details [Kb]
 MEMORY|                        rank 0           min           max       average
 MEMORY| MemTotal             97523924      97523924      97523924      97523924
 MEMORY| MemFree              83796876      83796876      83796876      83796876
 MEMORY| Buffers                    76            76            76            76
 MEMORY| Cached                1461348       1461348       1461348       1461348
 MEMORY| Slab                  1456240       1456240       1456240       1456240
 MEMORY| SReclaimable           160080        160080        160080        160080
 MEMORY| MemLikelyFree        85418380      85418380      85418380      85418380

 
 GENERATE|  Preliminary Number of Bonds generated:                             0
 GENERATE|  Achieved consistency in connectivity generation.

 *** WARNING in cryssym.F:163 :: Symmetry library SPGLIB not available ***


 *******************************************************************************
 *******************************************************************************
 **                                                                           **
 **     #####                         ##              ##                      **
 **    ##   ##            ##          ##              ##                      **
 **   ##     ##                       ##            ######                    **
 **   ##     ##  ##   ##  ##   #####  ##  ##   ####   ##    #####    #####    **
 **   ##     ##  ##   ##  ##  ##      ## ##   ##      ##   ##   ##  ##   ##   **
 **   ##  ## ##  ##   ##  ##  ##      ####     ###    ##   ######   ######    **
 **    ##  ###   ##   ##  ##  ##      ## ##      ##   ##   ##       ##        **
 **     #######   #####   ##   #####  ##  ##  ####    ##    #####   ##        **
 **           ##                                                    ##        **
 **                                                                           **
 **                                                ... make the atoms dance   **
 **                                                                           **
 **            Copyright (C) by CP2K developers group (2000 - 2018)           **
 **                                                                           **
 *******************************************************************************

 *** WARNING in qs_environment.F:1146 :: More added MOs requested than ***
 *** available. The full set of unoccupied MOs will be used.           ***



 TOTAL NUMBERS AND MAXIMUM NUMBERS

  Total number of            - Atomic kinds:                                   2
                             - Atoms:                                         16
                             - Shell sets:                                    16
                             - Shells:                                        96
                             - Primitive Cartesian functions:                 88
                             - Cartesian basis functions:                    352
                             - Spherical basis functions:                    304

  Maximum angular momentum of- Orbital basis functions:                        3
                             - Local part of the GTH pseudopotential:          2
                             - Non-local part of the GTH pseudopotential:      4


 SCF PARAMETERS         Density guess:                                    ATOMIC
                        --------------------------------------------------------
                        max_scf:                                             500
                        max_scf_history:                                       0
                        max_diis:                                              4
                        --------------------------------------------------------
                        eps_scf:                                        1.00E-06
                        eps_scf_history:                                0.00E+00
                        eps_diis:                                       1.00E-01
                        eps_eigval:                                     1.00E-05
                        --------------------------------------------------------
                        level_shift [a.u.]:                                 0.00
                        added MOs                                       232    0
                        --------------------------------------------------------
                        Mixing method:                              PULAY_MIXING
                                                charge density mixing in g-space
                        --------------------------------------------------------
                        No outer SCF
 
 KPOINTS| Number of kpoint groups                                              1
 KPOINTS| Size of each kpoint group                                           40
 KPOINTS| Number of kpoints per group                                         16

 CELL_OPT| Pressure tolerance [bar]:                                       100.0
 CELL_OPT| Keep angles between the cell vectors:                             YES
 CELL_OPT| Keep cell symmetry:                                               YES
 CELL_OPT| Constraint:                                                         Z

 BFGS| Use rational function optimization for step estimation:                NO
 BFGS| Use model Hessian for initial guess:                                   NO
 BFGS| Restart Hessian:                                                       NO
 BFGS| Trust radius:                                                       0.472

 *******************************************************************************
 ***                     STARTING   CELL   OPTIMIZATION                      ***
 ***                                   BFGS                                  ***
 *******************************************************************************

 CELL| Volume [angstrom^3]:                                              351.627
 CELL| Vector a [angstrom]:       3.186     0.000     0.000    |a| =       3.186
 CELL| Vector b [angstrom]:      -1.593     2.759     0.000    |b| =       3.186
 CELL| Vector c [angstrom]:       0.000     0.000    40.000    |c| =      40.000
 CELL| Angle (b,c), alpha [degree]:                                       90.000
 CELL| Angle (a,c), beta  [degree]:                                       90.000
 CELL| Angle (a,b), gamma [degree]:                                      120.000
 CELL| Numerically orthorhombic:                                              NO

 Number of electrons:                                                        144
 Number of occupied orbitals:                                                 72
 Number of molecular orbitals:                                               304

 Number of orbital functions:                                                304
 Number of independent orbital functions:                                    304

 Extrapolation method: initial_guess


 SCF WAVEFUNCTION OPTIMIZATION

  Step     Update method      Time    Convergence         Total energy    Change
  ------------------------------------------------------------------------------
     1 NoMix/Diag. 0.10E+00    1.2     2.02550082      -676.4394360441 -6.76E+02
     2 Pulay/Diag. 0.10E+00    1.3     0.06515156      -663.4703255562  1.30E+01
     3 Pulay/Diag. 0.10E+00    1.3     9.10824149      -667.7918604245 -4.32E+00
     4 Pulay/Diag. 0.10E+00    1.3     8.80322420      -677.2865497276 -9.49E+00
     5 Pulay/Diag. 0.10E+00    1.3     0.39099615      -676.8231121012  4.63E-01
     6 Pulay/Diag. 0.10E+00    1.3     1.19255170      -676.3611124485  4.62E-01
     7 Pulay/Diag. 0.10E+00    1.3     0.23553449      -674.9052428962  1.46E+00
     8 Pulay/Diag. 0.10E+00    1.3     1.05858744      -674.7042824182  2.01E-01
     9 Pulay/Diag. 0.10E+00    1.3     0.26304110      -675.0351323531 -3.31E-01
    10 Pulay/Diag. 0.10E+00    1.3     1.06289595      -675.1504629528 -1.15E-01
    11 Pulay/Diag. 0.10E+00    1.6     1.70043090      -674.8180373037  3.32E-01
    12 Pulay/Diag. 0.10E+00    1.3     2.14069775      -675.3658731522 -5.48E-01
    13 Pulay/Diag. 0.10E+00    1.3     0.03967316      -674.9023315189  4.64E-01
    14 Pulay/Diag. 0.10E+00    1.3     5.68436074      -675.0452952502 -1.43E-01
    15 Pulay/Diag. 0.10E+00    1.3     4.93059721      -677.3469023001 -2.30E+00
    16 Pulay/Diag. 0.10E+00    1.3     1.12813067      -676.0905510614  1.26E+00
    17 Pulay/Diag. 0.10E+00    1.3     0.02213498      -674.9939667420  1.10E+00
    18 Pulay/Diag. 0.10E+00    1.3     0.01997118      -675.0464672061 -5.25E-02
    19 Pulay/Diag. 0.10E+00    1.3     0.02236322      -675.1026619773 -5.62E-02
    20 Pulay/Diag. 0.10E+00    1.3     0.02438658      -675.1227385802 -2.01E-02
    21 Pulay/Diag. 0.10E+00    1.3     0.59092240      -675.0178561027  1.05E-01
    22 Pulay/Diag. 0.10E+00    1.6     0.19712376      -675.6665467630 -6.49E-01
    23 Pulay/Diag. 0.10E+00    1.3     0.52849663      -675.8661845872 -2.00E-01
    24 Pulay/Diag. 0.10E+00    1.3     0.70414831      -676.2205633790 -3.54E-01
    25 Pulay/Diag. 0.10E+00    1.3     0.71070655      -675.7081323711  5.12E-01
    26 Pulay/Diag. 0.10E+00    1.3     1.11246034      -676.1137701866 -4.06E-01
    27 Pulay/Diag. 0.10E+00    1.3     1.12232117      -675.2149983116  8.99E-01
    28 Pulay/Diag. 0.10E+00    1.3     1.12513080      -676.0985856669 -8.84E-01
    29 Pulay/Diag. 0.10E+00    1.3     0.23889513      -675.2143895917  8.84E-01
    30 Pulay/Diag. 0.10E+00    1.3     0.17001028      -674.8961784237  3.18E-01
    31 Pulay/Diag. 0.10E+00    1.3     0.00215849      -675.1485030522 -2.52E-01
    32 Pulay/Diag. 0.10E+00    1.3     0.13080700      -675.1374130423  1.11E-02
    33 Pulay/Diag. 0.10E+00    1.3     0.14288228      -674.9878732456  1.50E-01
    34 Pulay/Diag. 0.10E+00    1.5     0.00151449      -675.2714856887 -2.84E-01
    35 Pulay/Diag. 0.10E+00    1.3     0.09945877      -675.2685939027  2.89E-03
    36 Pulay/Diag. 0.10E+00    1.3     1.20446642      -675.1884384378  8.02E-02
    37 Pulay/Diag. 0.10E+00    1.3     1.13268487      -676.2304096515 -1.04E+00
    38 Pulay/Diag. 0.10E+00    1.3     0.84611975      -675.2811739193  9.49E-01
    39 Pulay/Diag. 0.10E+00    1.3     0.84495617      -676.0024068943 -7.21E-01
    40 Pulay/Diag. 0.10E+00    1.3     0.18009026      -675.2750685513  7.27E-01
    41 Pulay/Diag. 0.10E+00    1.3     0.17706284      -675.2308876019  4.42E-02
    42 Pulay/Diag. 0.10E+00    1.3     0.14220806      -674.9194595658  3.11E-01
    43 Pulay/Diag. 0.10E+00    1.3     0.00842518      -675.1121566176 -1.93E-01
    44 Pulay/Diag. 0.10E+00    1.3     0.00267115      -675.0882003929  2.40E-02
    45 Pulay/Diag. 0.10E+00    1.6     0.09125488      -675.1010446960 -1.28E-02
    46 Pulay/Diag. 0.10E+00    1.3     0.09244390      -675.2332256525 -1.32E-01
    47 Pulay/Diag. 0.10E+00    1.3     0.13379568      -675.1390406934  9.42E-02
    48 Pulay/Diag. 0.10E+00    1.3     0.14503990      -675.0650386109  7.40E-02
    49 Pulay/Diag. 0.10E+00    1.3     1.13157684      -675.2952823982 -2.30E-01
    50 Pulay/Diag. 0.10E+00    1.3     1.14912134      -676.0870347846 -7.92E-01
    51 Pulay/Diag. 0.10E+00    1.3     0.16108605      -675.2535488472  8.33E-01
    52 Pulay/Diag. 0.10E+00    1.3     0.00310528      -675.1691424013  8.44E-02
    53 Pulay/Diag. 0.10E+00    1.6     0.00272343      -675.1723625412 -3.22E-03
    54 Pulay/Diag. 0.10E+00    2.9     0.01266967      -675.1819245312 -9.56E-03
    55 Pulay/Diag. 0.10E+00    2.5     0.00720693      -675.1936356421 -1.17E-02
    56 Pulay/Diag. 0.10E+00    2.5     0.13213649      -675.1803812929  1.33E-02
    57 Pulay/Diag. 0.10E+00    2.4     0.13187156      -674.9242149680  2.56E-01
    58 Pulay/Diag. 0.10E+00    2.6     0.14445871      -675.1655332906 -2.41E-01
    59 Pulay/Diag. 0.10E+00    2.9     2.41100549      -675.0400698796  1.25E-01
    60 Pulay/Diag. 0.10E+00    2.3     0.48797298      -676.9947044061 -1.95E+00
    61 Pulay/Diag. 0.10E+00    2.3     0.70649784      -676.6532633452  3.41E-01
    62 Pulay/Diag. 0.10E+00    2.2     0.29561191      -676.2207310436  4.33E-01
    63 Pulay/Diag. 0.10E+00    2.2     0.82907202      -676.0400875688  1.81E-01
    64 Pulay/Diag. 0.10E+00    1.3     0.01248507      -675.2687337820  7.71E-01
    65 Pulay/Diag. 0.10E+00    1.3     0.09564815      -675.2486451109  2.01E-02
    66 Pulay/Diag. 0.10E+00    1.3     0.02343412      -675.1049586690  1.44E-01
    67 Pulay/Diag. 0.10E+00    1.3     0.00533313      -675.1075547278 -2.60E-03
    68 Pulay/Diag. 0.10E+00    1.3     0.09976612      -675.1223156163 -1.48E-02
    69 Pulay/Diag. 0.10E+00    1.3     0.09874755      -675.2662070522 -1.44E-01
    70 Pulay/Diag. 0.10E+00    1.5     0.17007697      -675.1339644098  1.32E-01
    71 Pulay/Diag. 0.10E+00    1.4     0.41142997      -675.2460084399 -1.12E-01
    72 Pulay/Diag. 0.10E+00    1.3     0.40964836      -675.6822545201 -4.36E-01
    73 Pulay/Diag. 0.10E+00    1.3     0.40219949      -675.2602487001  4.22E-01
    74 Pulay/Diag. 0.10E+00    1.3     0.24932336      -675.6693002121 -4.09E-01
    75 Pulay/Diag. 0.10E+00    1.3     0.00278972      -675.6961365884 -2.68E-02
    76 Pulay/Diag. 0.10E+00    1.3     0.23746132      -675.6894594283  6.68E-03
    77 Pulay/Diag. 0.10E+00    1.3     0.04643812      -675.4475969949  2.42E-01
    78 Pulay/Diag. 0.10E+00    1.3     0.26155523      -675.4968506190 -4.93E-02
    79 Pulay/Diag. 0.10E+00    1.3     0.25391898      -675.5157589047 -1.89E-02
    80 Pulay/Diag. 0.10E+00    1.3     0.22919629      -675.2476935697  2.68E-01
    81 Pulay/Diag. 0.10E+00    1.3     0.22934748      -675.5383596572 -2.91E-01
    82 Pulay/Diag. 0.10E+00    1.6     0.01183793      -675.2528301496  2.86E-01
    83 Pulay/Diag. 0.10E+00    1.3     0.23184715      -675.2661771444 -1.33E-02
    84 Pulay/Diag. 0.10E+00    1.3     0.23115676      -675.5559486032 -2.90E-01
    85 Pulay/Diag. 0.10E+00    1.3     0.18439972      -675.2635985810  2.92E-01
    86 Pulay/Diag. 0.10E+00    1.3     0.00032844      -675.2886925446 -2.51E-02
    87 Pulay/Diag. 0.10E+00    1.3     0.18388785      -675.2864754718  2.22E-03
    88 Pulay/Diag. 0.10E+00    1.3     0.00083554      -675.2563593434  3.01E-02
    89 Pulay/Diag. 0.10E+00    1.3     0.15864299      -675.2599822732 -3.62E-03
    90 Pulay/Diag. 0.10E+00    1.3     0.00092153      -675.1623345062  9.76E-02
    91 Pulay/Diag. 0.10E+00    1.3     0.00333461      -675.1554597899  6.87E-03
    92 Pulay/Diag. 0.10E+00    1.3     0.01105784      -675.1576733161 -2.21E-03
    93 Pulay/Diag. 0.10E+00    1.6     0.10163224      -675.1964094894 -3.87E-02
    94 Pulay/Diag. 0.10E+00    1.3     0.00207814      -675.3273277103 -1.31E-01
    95 Pulay/Diag. 0.10E+00    1.3     0.00183867      -675.3191727186  8.15E-03
    96 Pulay/Diag. 0.10E+00    1.3     0.10050077      -675.3163336723  2.84E-03
    97 Pulay/Diag. 0.10E+00    1.3     0.13189074      -675.1756321581  1.41E-01
    98 Pulay/Diag. 0.10E+00    1.3     0.00639435      -675.0100006770  1.66E-01
    99 Pulay/Diag. 0.10E+00    1.3     0.59435736      -675.0217643262 -1.18E-02
   100 Pulay/Diag. 0.10E+00    1.3     0.39607728      -675.6911164308 -6.69E-01
   101 Pulay/Diag. 0.10E+00    1.3     0.00303860      -675.9753294597 -2.84E-01
   102 Pulay/Diag. 0.10E+00    1.3     0.00443385      -675.9871791444 -1.18E-02
   103 Pulay/Diag. 0.10E+00    1.3     0.00448058      -675.9811635612  6.02E-03
   104 Pulay/Diag. 0.10E+00    1.3     0.85131491      -675.9839461493 -2.78E-03
   105 Pulay/Diag. 0.10E+00    1.6     0.18216470      -675.2439045879  7.40E-01
   106 Pulay/Diag. 0.10E+00    1.3     0.00122544      -675.2559422483 -1.20E-02
   107 Pulay/Diag. 0.10E+00    1.3     0.16526942      -675.2566517470 -7.09E-04
   108 Pulay/Diag. 0.10E+00    1.3     0.00294168      -675.1522029803  1.04E-01
   109 Pulay/Diag. 0.10E+00    1.3     0.00456953      -675.1452615886  6.94E-03
   110 Pulay/Diag. 0.10E+00    1.3     0.00531600      -675.1543315143 -9.07E-03
   111 Pulay/Diag. 0.10E+00    1.3     0.00128505      -675.1445729400  9.76E-03
   112 Pulay/Diag. 0.10E+00    1.3     0.12965556      -675.1502817409 -5.71E-03
   113 Pulay/Diag. 0.10E+00    1.3     0.02982170      -675.0658721336  8.44E-02
   114 Pulay/Diag. 0.10E+00    1.3     0.02348523      -675.0672956778 -1.42E-03
   115 Pulay/Diag. 0.10E+00    1.3     6.24375521      -675.0841935659 -1.69E-02
   116 Pulay/Diag. 0.10E+00    1.6     6.22138167      -677.2110698304 -2.13E+00
   117 Pulay/Diag. 0.10E+00    1.3     0.45465757      -675.0156483985  2.20E+00
   118 Pulay/Diag. 0.10E+00    1.3     0.64747680      -675.4892457282 -4.74E-01
   119 Pulay/Diag. 0.10E+00    1.3     0.38047000      -675.7299029544 -2.41E-01
   120 Pulay/Diag. 0.10E+00    1.3     0.38685674      -675.2886545962  4.41E-01
   121 Pulay/Diag. 0.10E+00    1.3     0.00529008      -675.7414486716 -4.53E-01
   122 Pulay/Diag. 0.10E+00    1.3     0.00395012      -675.7290170253  1.24E-02
   123 Pulay/Diag. 0.10E+00    1.3     0.01177793      -675.7206119765  8.41E-03
   124 Pulay/Diag. 0.10E+00    1.3     0.41502803      -675.7066674763  1.39E-02
   125 Pulay/Diag. 0.10E+00    1.3     0.09511468      -675.2860190407  4.21E-01
   126 Pulay/Diag. 0.10E+00    1.3     0.00733370      -675.1641892419  1.22E-01
   127 Pulay/Diag. 0.10E+00    1.6     0.00056648      -675.1424872905  2.17E-02
   128 Pulay/Diag. 0.10E+00    2.3     0.10187603      -675.1414387429  1.05E-03
   129 Pulay/Diag. 0.10E+00    2.4     0.00059690      -675.2622474482 -1.21E-01
   130 Pulay/Diag. 0.10E+00    2.6     0.09933576      -675.2612697291  9.78E-04
   131 Pulay/Diag. 0.10E+00    2.3     0.00253068      -675.1318972278  1.29E-01
   132 Pulay/Diag. 0.10E+00    2.4     1.19869999      -675.1501500002 -1.83E-02
   133 Pulay/Diag. 0.10E+00    2.3     1.13540376      -676.1461534926 -9.96E-01
   134 Pulay/Diag. 0.10E+00    2.2     0.18257789      -675.2765540792  8.70E-01
   135 Pulay/Diag. 0.10E+00    2.6     0.23655651      -675.2600492499  1.65E-02
   136 Pulay/Diag. 0.10E+00    2.4     0.12159700      -675.5638455058 -3.04E-01
   137 Pulay/Diag. 0.10E+00    2.3     0.11982712      -675.4250736498  1.39E-01
   138 Pulay/Diag. 0.10E+00    2.2     0.28742552      -675.5504746229 -1.25E-01
   139 Pulay/Diag. 0.10E+00    2.2     0.00101049      -675.2746600885  2.76E-01
   140 Pulay/Diag. 0.10E+00    1.5     0.42118163      -675.2792154517 -4.56E-03
   141 Pulay/Diag. 0.10E+00    1.6     0.00462004      -675.7073944980 -4.28E-01
   142 Pulay/Diag. 0.10E+00    1.3     0.39681606      -675.7113039361 -3.91E-03
   143 Pulay/Diag. 0.10E+00    1.3     0.00095688      -675.2548292470  4.56E-01
   144 Pulay/Diag. 0.10E+00    1.3     0.18214254      -675.2565651583 -1.74E-03
   145 Pulay/Diag. 0.10E+00    1.3     0.18212284      -675.2854638131 -2.89E-02
   146 Pulay/Diag. 0.10E+00    1.3     0.00152964      -675.2570828270  2.84E-02
   147 Pulay/Diag. 0.10E+00    1.3     0.00123842      -675.2578368873 -7.54E-04
   148 Pulay/Diag. 0.10E+00    1.3     0.00093085      -675.2588820334 -1.05E-03
   149 Pulay/Diag. 0.10E+00    1.3     0.00075524      -675.2599359647 -1.05E-03
   150 Pulay/Diag. 0.10E+00    1.3     2.81747084      -675.2711429001 -1.12E-02
   151 Pulay/Diag. 0.10E+00    1.3     0.50923613      -677.1059487296 -1.83E+00
   152 Pulay/Diag. 0.10E+00    1.7     0.01718824      -677.0677622276  3.82E-02
   153 Pulay/Diag. 0.10E+00    1.3     1.12888332      -677.0578479427  9.91E-03
   154 Pulay/Diag. 0.10E+00    1.3     0.05364761      -676.1987471077  8.59E-01
   155 Pulay/Diag. 0.10E+00    1.3     0.03595402      -676.1906587077  8.09E-03
   156 Pulay/Diag. 0.10E+00    1.3     0.04399579      -676.2000493118 -9.39E-03
   157 Pulay/Diag. 0.10E+00    1.3     0.31747568      -676.2008973987 -8.48E-04
   158 Pulay/Diag. 0.10E+00    1.3     1.04547875      -675.9670327447  2.34E-01
   159 Pulay/Diag. 0.10E+00    1.3     0.03961352      -674.6826914315  1.28E+00
   160 Pulay/Diag. 0.10E+00    1.3     0.02118727      -674.7974588342 -1.15E-01
   161 Pulay/Diag. 0.10E+00    1.3     0.01768240      -674.8308486704 -3.34E-02
   162 Pulay/Diag. 0.10E+00    1.3     1.03063101      -674.8613993090 -3.06E-02
   163 Pulay/Diag. 0.10E+00    1.5     0.95419362      -675.9329223047 -1.07E+00
   164 Pulay/Diag. 0.10E+00    1.4     0.01480534      -675.1016169385  8.31E-01
   165 Pulay/Diag. 0.10E+00    1.3     0.51159556      -675.1215715663 -2.00E-02
   166 Pulay/Diag. 0.10E+00    1.3     0.00547135      -675.6993918600 -5.78E-01
   167 Pulay/Diag. 0.10E+00    1.3     0.00411446      -675.7208117688 -2.14E-02
   168 Pulay/Diag. 0.10E+00    1.3     0.20563360      -675.7003375432  2.05E-02
   169 Pulay/Diag. 0.10E+00    1.3     0.11113839      -675.5051245056  1.95E-01
   170 Pulay/Diag. 0.10E+00    1.3     0.26635075      -675.4038081115  1.01E-01
   171 Pulay/Diag. 0.10E+00    1.3     0.09927762      -675.1389739380  2.65E-01
   172 Pulay/Diag. 0.10E+00    1.3     0.09929090      -675.2544658039 -1.15E-01
   173 Pulay/Diag. 0.10E+00    2.2     0.00095682      -675.1299425576  1.25E-01
   174 Pulay/Diag. 0.10E+00    2.3     0.00246188      -675.1318269962 -1.88E-03
   175 Pulay/Diag. 0.10E+00    2.3     0.00492165      -675.1283988079  3.43E-03
   176 Pulay/Diag. 0.10E+00    2.4     0.01598540      -675.1163486866  1.21E-02
   177 Pulay/Diag. 0.10E+00    2.5     0.00195005      -675.1354633736 -1.91E-02
   178 Pulay/Diag. 0.10E+00    2.5     0.13292622      -675.1308178451  4.65E-03
   179 Pulay/Diag. 0.10E+00    2.4     0.14277375      -675.0035613411  1.27E-01
   180 Pulay/Diag. 0.10E+00    2.2     2.29238175      -675.2404091794 -2.37E-01
   181 Pulay/Diag. 0.10E+00    2.5     2.34632714      -676.9066187275 -1.67E+00
   182 Pulay/Diag. 0.10E+00    2.5     0.53124000      -675.0004241780  1.91E+00
   183 Pulay/Diag. 0.10E+00    2.6     0.37349656      -675.7058970879 -7.05E-01
   184 Pulay/Diag. 0.10E+00    2.3     0.38406676      -675.2615287505  4.44E-01
   185 Pulay/Diag. 0.10E+00    2.2     0.42554431      -675.7127214495 -4.51E-01
   186 Pulay/Diag. 0.10E+00    1.3     0.42878630      -675.2846191144  4.28E-01
   187 Pulay/Diag. 0.10E+00    1.6     0.38984597      -675.7077087992 -4.23E-01
   188 Pulay/Diag. 0.10E+00    2.4     0.18215060      -675.2644269534  4.43E-01
   189 Pulay/Diag. 0.10E+00    2.7     0.41842544      -675.2894325236 -2.50E-02
   190 Pulay/Diag. 0.10E+00    2.5     0.16274060      -675.7075376438 -4.18E-01
   191 Pulay/Diag. 0.10E+00    2.2     0.16269673      -675.5566457230  1.51E-01
   192 Pulay/Diag. 0.10E+00    2.3     0.16338575      -675.7074811752 -1.51E-01
   193 Pulay/Diag. 0.10E+00    2.4     0.00468934      -675.5576598462  1.50E-01
   194 Pulay/Diag. 0.10E+00    2.3     0.17835681      -675.5540688656  3.59E-03
   195 Pulay/Diag. 0.10E+00    2.3     0.12633225      -675.5558916489 -1.82E-03
   196 Pulay/Diag. 0.10E+00    2.3     0.11405014      -675.4185961446  1.37E-01
   197 Pulay/Diag. 0.10E+00    2.2     0.18449124      -675.2800219453  1.39E-01
   198 Pulay/Diag. 0.10E+00    2.5     0.00987690      -675.2867935490 -6.77E-03
   199 Pulay/Diag. 0.10E+00    1.6     0.18238054      -675.2875992314 -8.06E-04
   200 Pulay/Diag. 0.10E+00    1.3     0.00986530      -675.2588274022  2.88E-02
   201 Pulay/Diag. 0.10E+00    1.5     0.00707160      -675.2635891949 -4.76E-03
   202 Pulay/Diag. 0.10E+00    1.3     0.18248121      -675.2593501666  4.24E-03
   203 Pulay/Diag. 0.10E+00    1.3     0.18266724      -675.2855559741 -2.62E-02
   204 Pulay/Diag. 0.10E+00    1.3     0.80510230      -675.2475091656  3.80E-02
   205 Pulay/Diag. 0.10E+00    1.3     0.40672165      -675.9644537860 -7.17E-01
   206 Pulay/Diag. 0.10E+00    1.3     0.00140736      -675.6991318980  2.65E-01
   207 Pulay/Diag. 0.10E+00    1.3     0.00068167      -675.7053241261 -6.19E-03
   208 Pulay/Diag. 0.10E+00    1.3     0.00176366      -675.7039798946  1.34E-03
   209 Pulay/Diag. 0.10E+00    1.3     0.00103104      -675.7032231015  7.57E-04
   210 Pulay/Diag. 0.10E+00    1.3     0.00274383      -675.7029338158  2.89E-04
   211 Pulay/Diag. 0.10E+00    1.3     0.34339703      -675.7103432469 -7.41E-03
   212 Pulay/Diag. 0.10E+00    1.6     0.40342246      -675.5842429906  1.26E-01
   213 Pulay/Diag. 0.10E+00    1.3     0.75034701      -675.7918693813 -2.08E-01
   214 Pulay/Diag. 0.10E+00    1.3     0.45265433      -674.9597897383  8.32E-01
   215 Pulay/Diag. 0.10E+00    1.3     0.30355064      -675.4779903832 -5.18E-01
   216 Pulay/Diag. 0.10E+00    1.3     0.01030785      -675.2483984211  2.30E-01
   217 Pulay/Diag. 0.10E+00    1.3     0.00548517      -675.2503225800 -1.92E-03
   218 Pulay/Diag. 0.10E+00    1.3     0.18177208      -675.2565878355 -6.27E-03
   219 Pulay/Diag. 0.10E+00    1.3     0.18171664      -675.2847999537 -2.82E-02
   220 Pulay/Diag. 0.10E+00    1.3     0.23811676      -675.2655754007  1.92E-02
   221 Pulay/Diag. 0.10E+00    1.3     0.11971827      -675.4846541787 -2.19E-01
   222 Pulay/Diag. 0.10E+00    1.3     0.41652413      -675.2942493205  1.90E-01
   223 Pulay/Diag. 0.10E+00    1.4     0.41927763      -675.7109671059 -4.17E-01
   224 Pulay/Diag. 0.10E+00    1.4     0.00108824      -675.2926611011  4.18E-01
   225 Pulay/Diag. 0.10E+00    1.3     0.28331160      -675.2945530874 -1.89E-03
   226 Pulay/Diag. 0.10E+00    1.3     0.17992750      -675.5624399689 -2.68E-01
   227 Pulay/Diag. 0.10E+00    1.3     0.28555681      -675.5642955154 -1.86E-03
   228 Pulay/Diag. 0.10E+00    1.3     0.09973603      -675.2869468696  2.77E-01
   229 Pulay/Diag. 0.10E+00    1.3     0.00295697      -675.1459203748  1.41E-01
   230 Pulay/Diag. 0.10E+00    1.3     0.09944423      -675.1471788372 -1.26E-03
   231 Pulay/Diag. 0.10E+00    1.3     0.00206176      -675.2746491073 -1.27E-01
   232 Pulay/Diag. 0.10E+00    1.3     0.09883004      -675.2693970860  5.25E-03
   233 Pulay/Diag. 0.10E+00    1.3     0.00224156      -675.1429647025  1.26E-01
   234 Pulay/Diag. 0.10E+00    1.3     0.12980937      -675.1382329782  4.73E-03
   235 Pulay/Diag. 0.10E+00    1.6     0.01886619      -674.9864635617  1.52E-01
   236 Pulay/Diag. 0.10E+00    1.3     0.00162187      -674.9810950113  5.37E-03
   237 Pulay/Diag. 0.10E+00    1.3     0.00164771      -674.9800828229  1.01E-03
   238 Pulay/Diag. 0.10E+00    1.3     0.00253636      -674.9803314009 -2.49E-04
   239 Pulay/Diag. 0.10E+00    1.3     0.00673702      -674.9796551416  6.76E-04
   240 Pulay/Diag. 0.10E+00    1.3     1.43212516      -675.0647613175 -8.51E-02
   241 Pulay/Diag. 0.10E+00    1.3     0.20805240      -676.3511416999 -1.29E+00
   242 Pulay/Diag. 0.10E+00    1.3     0.29072561      -676.1622273412  1.89E-01
   243 Pulay/Diag. 0.10E+00    1.3     0.89520962      -675.9626213020  2.00E-01
   244 Pulay/Diag. 0.10E+00    1.8     0.42037723      -675.2608555300  7.02E-01
   245 Pulay/Diag. 0.10E+00    2.4     0.00033549      -675.6763294310 -4.15E-01
   246 Pulay/Diag. 0.10E+00    2.5     0.52327406      -675.6699124469  6.42E-03
   247 Pulay/Diag. 0.10E+00    2.4     0.00246092      -675.1091357940  5.61E-01
   248 Pulay/Diag. 0.10E+00    2.5     0.00984719      -675.1199600180 -1.08E-02
   249 Pulay/Diag. 0.10E+00    2.4     0.10269821      -675.1325953670 -1.26E-02
   250 Pulay/Diag. 0.10E+00    2.3     0.00473906      -675.2664619103 -1.34E-01
   251 Pulay/Diag. 0.10E+00    2.3     0.00564240      -675.2746830366 -8.22E-03
   252 Pulay/Diag. 0.10E+00    2.2     0.10135114      -675.2625401504  1.21E-02
   253 Pulay/Diag. 0.10E+00    2.2     0.10090337      -675.1302599017  1.32E-01
   254 Pulay/Diag. 0.10E+00    2.2     0.13141188      -675.2639269918 -1.34E-01
   255 Pulay/Diag. 0.10E+00    2.3     0.01009186      -675.0122704392  2.52E-01
   256 Pulay/Diag. 0.10E+00    1.9     0.01498375      -674.9935902741  1.87E-02
   257 Pulay/Diag. 0.10E+00    1.3     0.00994510      -674.9796897471  1.39E-02
   258 Pulay/Diag. 0.10E+00    1.3     0.16353951      -674.9939673920 -1.43E-02
   259 Pulay/Diag. 0.10E+00    1.3     0.00304994      -675.2535136956 -2.60E-01
   260 Pulay/Diag. 0.10E+00    1.6     0.40554160      -675.2554168445 -1.90E-03
   261 Pulay/Diag. 0.10E+00    1.3     0.42935283      -675.6651624822 -4.10E-01
   262 Pulay/Diag. 0.10E+00    1.3     0.83158731      -675.2823883746  3.83E-01
   263 Pulay/Diag. 0.10E+00    1.3     0.43555604      -676.0709694184 -7.89E-01
   264 Pulay/Diag. 0.10E+00    1.3     0.00490305      -675.7174640469  3.54E-01
   265 Pulay/Diag. 0.10E+00    1.3     0.40041991      -675.7029763721  1.45E-02
   266 Pulay/Diag. 0.10E+00    1.3     0.16649588      -675.2469881880  4.56E-01
   267 Pulay/Diag. 0.10E+00    1.3     0.10084860      -675.1454672160  1.02E-01
   268 Pulay/Diag. 0.10E+00    1.3     0.00110408      -675.2779192760 -1.32E-01
   269 Pulay/Diag. 0.10E+00    1.3     0.09897139      -675.2700345312  7.88E-03
   270 Pulay/Diag. 0.10E+00    1.3     0.00213163      -675.1357675150  1.34E-01
   271 Pulay/Diag. 0.10E+00    1.7     0.00198889      -675.1318678187  3.90E-03
   272 Pulay/Diag. 0.10E+00    1.3     0.16398008      -675.1253436305  6.52E-03
   273 Pulay/Diag. 0.10E+00    1.3     0.18725251      -675.2464865117 -1.21E-01
   274 Pulay/Diag. 0.10E+00    1.3     0.00352757      -675.2004972762  4.60E-02
   275 Pulay/Diag. 0.10E+00    1.3     0.09537134      -675.2104234685 -9.93E-03
   276 Pulay/Diag. 0.10E+00    1.3     0.22723560      -675.3519411539 -1.42E-01
   277 Pulay/Diag. 0.10E+00    1.3     0.22952556      -675.6598238807 -3.08E-01
   278 Pulay/Diag. 0.10E+00    1.3     0.09654348      -675.3272343105  3.33E-01
   279 Pulay/Diag. 0.10E+00    1.3     0.10336919      -675.1700402220  1.57E-01
   280 Pulay/Diag. 0.10E+00    1.3     0.09923801      -675.2768726106 -1.07E-01
   281 Pulay/Diag. 0.10E+00    1.3     0.00215025      -675.1178900834  1.59E-01
   282 Pulay/Diag. 0.10E+00    1.6     0.15990398      -675.1164639544  1.43E-03
   283 Pulay/Diag. 0.10E+00    1.3     0.01688256      -675.2303021608 -1.14E-01
   284 Pulay/Diag. 0.10E+00    1.3     0.18132479      -675.2591749190 -2.89E-02
   285 Pulay/Diag. 0.10E+00    1.3     0.12523681      -675.3133917884 -5.42E-02
   286 Pulay/Diag. 0.10E+00    1.3     0.09962853      -675.2214109995  9.20E-02
   287 Pulay/Diag. 0.10E+00    1.3     0.39435097      -675.3479636483 -1.27E-01
   288 Pulay/Diag. 0.10E+00    1.3     0.27931745      -675.8025406845 -4.55E-01
   289 Pulay/Diag. 0.10E+00    1.3     0.11717795      -675.4991807356  3.03E-01
   290 Pulay/Diag. 0.10E+00    1.3     0.18013165      -675.3055270755  1.94E-01
   291 Pulay/Diag. 0.10E+00    1.3     0.16617717      -675.2409659609  6.46E-02
   292 Pulay/Diag. 0.10E+00    1.3     0.16534565      -675.4591297255 -2.18E-01
   293 Pulay/Diag. 0.10E+00    1.4     0.18145407      -675.2540044280  2.05E-01
   294 Pulay/Diag. 0.10E+00    1.5     0.00278698      -675.2881369808 -3.41E-02
   295 Pulay/Diag. 0.10E+00    1.3     0.00405378      -675.2895844654 -1.45E-03
   296 Pulay/Diag. 0.10E+00    1.3     0.00072172      -675.2930004067 -3.42E-03
   297 Pulay/Diag. 0.10E+00    1.3     0.00423184      -675.2951379636 -2.14E-03
   298 Pulay/Diag. 0.10E+00    1.3     0.00254075      -675.2997428017 -4.60E-03
   299 Pulay/Diag. 0.10E+00    1.3     0.28897526      -675.3033797507 -3.64E-03
   300 Pulay/Diag. 0.10E+00    1.3     0.16393332      -675.5710660888 -2.68E-01
   301 Pulay/Diag. 0.10E+00    1.3     0.16393084      -675.7112126977 -1.40E-01
   302 Pulay/Diag. 0.10E+00    1.3     0.23121552      -675.5271386125  1.84E-01
   303 Pulay/Diag. 0.10E+00    1.3     0.23429824      -675.5506359427 -2.35E-02
   304 Pulay/Diag. 0.10E+00    1.3     0.11902203      -675.2625014667  2.88E-01
   305 Pulay/Diag. 0.10E+00    1.6     0.11386914      -675.4236642407 -1.61E-01
   306 Pulay/Diag. 0.10E+00    1.3     0.27165719      -675.5466289751 -1.23E-01
   307 Pulay/Diag. 0.10E+00    1.3     0.16078280      -675.2921001702  2.55E-01
   308 Pulay/Diag. 0.10E+00    1.3     0.11738916      -675.4208689301 -1.29E-01
   309 Pulay/Diag. 0.10E+00    1.3     0.13336598      -675.2650174190  1.56E-01
   310 Pulay/Diag. 0.10E+00    1.3     0.13412430      -675.4387322395 -1.74E-01
   311 Pulay/Diag. 0.10E+00    2.2     0.23239605      -675.2636141442  1.75E-01
   312 Pulay/Diag. 0.10E+00    2.7     0.13783943      -675.5557673165 -2.92E-01
   313 Pulay/Diag. 0.10E+00    2.5     0.05869965      -675.4902855746  6.55E-02
   314 Pulay/Diag. 0.10E+00    3.1     0.11279913      -675.4275692120  6.27E-02
   315 Pulay/Diag. 0.10E+00    2.5     0.05286147      -675.5071834228 -7.96E-02
   316 Pulay/Diag. 0.10E+00    2.4     0.00217409      -675.5707179058 -6.35E-02
   317 Pulay/Diag. 0.10E+00    2.5     0.00094610      -675.5694846944  1.23E-03
   318 Pulay/Diag. 0.10E+00    2.4     0.16367499      -675.5686835270  8.01E-04
   319 Pulay/Diag. 0.10E+00    2.4     0.39773931      -675.7154002899 -1.47E-01
   320 Pulay/Diag. 0.10E+00    2.4     0.18352768      -675.2657574246  4.50E-01
   321 Pulay/Diag. 0.10E+00    2.5     0.01311704      -675.2972078909 -3.15E-02
   322 Pulay/Diag. 0.10E+00    2.2     0.00035945      -675.2943572608  2.85E-03
   323 Pulay/Diag. 0.10E+00    2.2     0.18299294      -675.2919944426  2.36E-03
   324 Pulay/Diag. 0.10E+00    2.4     0.23212103      -675.2638433139  2.82E-02
   325 Pulay/Diag. 0.10E+00    2.2     0.11922107      -675.5564342648 -2.93E-01
   326 Pulay/Diag. 0.10E+00    2.5     0.00084864      -675.4243602389  1.32E-01
   327 Pulay/Diag. 0.10E+00    2.5     0.00386129      -675.4257674459 -1.41E-03
   328 Pulay/Diag. 0.10E+00    2.3     0.01644025      -675.4226200498  3.15E-03
   329 Pulay/Diag. 0.10E+00    2.3     0.01623520      -675.4392779329 -1.67E-02
   330 Pulay/Diag. 0.10E+00    2.4     0.15762728      -675.4231663016  1.61E-02
   331 Pulay/Diag. 0.10E+00    2.2     0.10179564      -675.4294423918 -6.28E-03
   332 Pulay/Diag. 0.10E+00    2.4     0.00827083      -675.5411758524 -1.12E-01
   333 Pulay/Diag. 0.10E+00    2.6     0.09724085      -675.5418681937 -6.92E-04
   334 Pulay/Diag. 0.10E+00    2.5     0.11065442      -675.4382107404  1.04E-01
   335 Pulay/Diag. 0.10E+00    2.4     0.00017269      -675.5599162486 -1.22E-01
   336 Pulay/Diag. 0.10E+00    2.4     0.03983608      -675.5597078848  2.08E-04
   337 Pulay/Diag. 0.10E+00    2.1     0.07355987      -675.5154881760  4.42E-02
   338 Pulay/Diag. 0.10E+00    2.4     0.26964983      -675.4374651894  7.80E-02
   339 Pulay/Diag. 0.10E+00    2.2     0.00113539      -675.7183366290 -2.81E-01
   340 Pulay/Diag. 0.10E+00    2.5     0.41716738      -675.7152257243  3.11E-03
   341 Pulay/Diag. 0.10E+00    2.3     0.00103413      -675.2863907271  4.29E-01
   342 Pulay/Diag. 0.10E+00    2.6     0.18360834      -675.2790788341  7.31E-03
   343 Pulay/Diag. 0.10E+00    2.6     0.00246659      -675.2486103400  3.05E-02
   344 Pulay/Diag. 0.10E+00    2.9     0.39993383      -675.2581927576 -9.58E-03
   345 Pulay/Diag. 0.10E+00    2.4     0.00251796      -675.7127954309 -4.55E-01
   346 Pulay/Diag. 0.10E+00    2.7     0.41594189      -675.7110467179  1.75E-03
   347 Pulay/Diag. 0.10E+00    2.3     0.00028939      -675.2885692206  4.22E-01
   348 Pulay/Diag. 0.10E+00    2.3     0.18259316      -675.2869631509  1.61E-03
   349 Pulay/Diag. 0.10E+00    2.4     0.21679976      -675.2592666329  2.77E-02
   350 Pulay/Diag. 0.10E+00    2.2     0.10601384      -675.5360848560 -2.77E-01
   351 Pulay/Diag. 0.10E+00    2.3     0.00123246      -675.4211322084  1.15E-01
   352 Pulay/Diag. 0.10E+00    2.3     0.15929903      -675.4196076467  1.52E-03
   353 Pulay/Diag. 0.10E+00    2.2     0.18263064      -675.2879709738  1.32E-01
   354 Pulay/Diag. 0.10E+00    2.4     0.83362621      -675.2660303802  2.19E-02
   355 Pulay/Diag. 0.10E+00    2.5     0.43563082      -676.0464735137 -7.80E-01
   356 Pulay/Diag. 0.10E+00    2.3     0.16622186      -675.7094430176  3.37E-01
   357 Pulay/Diag. 0.10E+00    2.4     0.00088357      -675.5554867196  1.54E-01
   358 Pulay/Diag. 0.10E+00    1.3     0.00100679      -675.5562836523 -7.97E-04
   359 Pulay/Diag. 0.10E+00    1.3     0.00223625      -675.5571403126 -8.57E-04
   360 Pulay/Diag. 0.10E+00    1.3     0.17810141      -675.5546233777  2.52E-03
   361 Pulay/Diag. 0.10E+00    1.3     0.28454935      -675.5572856073 -2.66E-03
   362 Pulay/Diag. 0.10E+00    1.3     0.18323224      -675.2889762732  2.68E-01
   363 Pulay/Diag. 0.10E+00    1.3     0.18304656      -675.2561919397  3.28E-02
   364 Pulay/Diag. 0.10E+00    1.3     0.00128249      -675.2831297622 -2.69E-02
   365 Pulay/Diag. 0.10E+00    1.3     0.00202196      -675.2853973653 -2.27E-03
   366 Pulay/Diag. 0.10E+00    1.3     0.00045038      -675.2874395048 -2.04E-03
   367 Pulay/Diag. 0.10E+00    1.3     0.18293671      -675.2873632810  7.62E-05
   368 Pulay/Diag. 0.10E+00    1.7     0.39957980      -675.2626051697  2.48E-02
   369 Pulay/Diag. 0.10E+00    1.3     0.16726503      -675.7096540607 -4.47E-01
   370 Pulay/Diag. 0.10E+00    1.3     0.28553202      -675.5536445002  1.56E-01
   371 Pulay/Diag. 0.10E+00    1.3     0.00076193      -675.2863742484  2.67E-01
   372 Pulay/Diag. 0.10E+00    1.3     0.18277802      -675.2869018371 -5.28E-04
   373 Pulay/Diag. 0.10E+00    1.3     0.00021834      -675.2607045052  2.62E-02
   374 Pulay/Diag. 0.10E+00    1.3     0.00032499      -675.2607063209 -1.82E-06
   375 Pulay/Diag. 0.10E+00    1.3     0.00047299      -675.2609230648 -2.17E-04
   376 Pulay/Diag. 0.10E+00    1.3     0.18253821      -675.2623676956 -1.44E-03
   377 Pulay/Diag. 0.10E+00    1.3     0.00109301      -675.2889817542 -2.66E-02
   378 Pulay/Diag. 0.10E+00    1.3     1.62762939      -675.4096844739 -1.21E-01
   379 Pulay/Diag. 0.10E+00    1.7     1.22987196      -676.9827282214 -1.57E+00
   380 Pulay/Diag. 0.10E+00    1.3     0.01481282      -675.7080332544  1.27E+00
   381 Pulay/Diag. 0.10E+00    1.3     0.00665601      -675.7155722818 -7.54E-03
   382 Pulay/Diag. 0.10E+00    1.3     0.00191939      -675.7035524270  1.20E-02
   383 Pulay/Diag. 0.10E+00    1.3     0.00056826      -675.7015004309  2.05E-03
   384 Pulay/Diag. 0.10E+00    1.3     0.16584176      -675.7001505255  1.35E-03
   385 Pulay/Diag. 0.10E+00    1.3     0.26289822      -675.5304707550  1.70E-01
   386 Pulay/Diag. 0.10E+00    1.3     0.23547373      -675.2604507743  2.70E-01
   387 Pulay/Diag. 0.10E+00    1.3     0.24026089      -675.5695750282 -3.09E-01
   388 Pulay/Diag. 0.10E+00    1.3     0.16337782      -675.7518042815 -1.82E-01
   389 Pulay/Diag. 0.10E+00    1.3     0.24505796      -675.5995227520  1.52E-01
   390 Pulay/Diag. 0.10E+00    1.6     0.00601586      -675.2977270248  3.02E-01
   391 Pulay/Diag. 0.10E+00    1.4     0.00496560      -675.2910006177  6.73E-03
   392 Pulay/Diag. 0.10E+00    1.3     0.18255815      -675.2872315093  3.77E-03
   393 Pulay/Diag. 0.10E+00    1.3     0.00441740      -675.2574181681  2.98E-02
   394 Pulay/Diag. 0.10E+00    1.3     0.01156727      -675.2554320908  1.99E-03
   395 Pulay/Diag. 0.10E+00    1.3     0.39018653      -675.2783867187 -2.30E-02
   396 Pulay/Diag. 0.10E+00    1.3     0.00268132      -675.7680653901 -4.90E-01
   397 Pulay/Diag. 0.10E+00    1.3     0.00293951      -675.7703282406 -2.26E-03
   398 Pulay/Diag. 0.10E+00    1.3     0.00567166      -675.7669190838  3.41E-03
   399 Pulay/Diag. 0.10E+00    1.3     0.24295760      -675.7613559837  5.56E-03
   400 Pulay/Diag. 0.10E+00    1.3     0.00257661      -675.7219161105  3.94E-02
   401 Pulay/Diag. 0.10E+00    1.4     0.00387332      -675.7180440017  3.87E-03
   402 Pulay/Diag. 0.10E+00    1.5     0.00432969      -675.7130975264  4.95E-03
   403 Pulay/Diag. 0.10E+00    1.3     5.59653971      -675.5576458200  1.55E-01
   404 Pulay/Diag. 0.10E+00    1.3     5.59864085      -674.5130983559  1.04E+00
   405 Pulay/Diag. 0.10E+00    1.3     0.05176176      -674.4892422704  2.39E-02
   406 Pulay/Diag. 0.10E+00    1.3     0.14915556      -674.8814571939 -3.92E-01
   407 Pulay/Diag. 0.10E+00    1.3     0.15311508      -675.1498094216 -2.68E-01
   408 Pulay/Diag. 0.10E+00    1.3     0.16843205      -674.9743476733  1.75E-01
   409 Pulay/Diag. 0.10E+00    1.3     0.39808480      -675.2726974136 -2.98E-01
   410 Pulay/Diag. 0.10E+00    1.3     0.00398175      -675.7323398151 -4.60E-01
   411 Pulay/Diag. 0.10E+00    1.3     0.16316373      -675.7367344825 -4.39E-03
   412 Pulay/Diag. 0.10E+00    1.3     0.29168889      -675.5684839645  1.68E-01
   413 Pulay/Diag. 0.10E+00    1.6     0.00058145      -675.2868882045  2.82E-01
   414 Pulay/Diag. 0.10E+00    1.3     0.00627196      -675.2867400364  1.48E-04
   415 Pulay/Diag. 0.10E+00    1.3     0.09524589      -675.2743985065  1.23E-02
   416 Pulay/Diag. 0.10E+00    1.3     0.09871454      -675.1487378738  1.26E-01
   417 Pulay/Diag. 0.10E+00    1.3     0.09877059      -675.2766650043 -1.28E-01
   418 Pulay/Diag. 0.10E+00    1.3     0.10076027      -675.1283206029  1.48E-01
   419 Pulay/Diag. 0.10E+00    1.3     0.41744054      -675.2721441621 -1.44E-01
   420 Pulay/Diag. 0.10E+00    1.3     0.52422238      -675.6997098854 -4.28E-01
   421 Pulay/Diag. 0.10E+00    1.9     0.13614277      -674.9920103697  7.08E-01
   422 Pulay/Diag. 0.10E+00    2.4     0.08966116      -675.1546209456 -1.63E-01
   423 Pulay/Diag. 0.10E+00    2.4     0.00151456      -675.2702451076 -1.16E-01
   424 Pulay/Diag. 0.10E+00    2.6     0.00063559      -675.2708691190 -6.24E-04
   425 Pulay/Diag. 0.10E+00    2.9     0.00042727      -675.2708131506  5.60E-05
   426 Pulay/Diag. 0.10E+00    2.3     0.00157267      -675.2713657500 -5.53E-04
   427 Pulay/Diag. 0.10E+00    2.6     0.10096899      -675.2573318340  1.40E-02
   428 Pulay/Diag. 0.10E+00    2.5     0.13967682      -675.1170791057  1.40E-01
   429 Pulay/Diag. 0.10E+00    2.5     0.01904365      -675.0169278986  1.00E-01
   430 Pulay/Diag. 0.10E+00    2.3     0.95730250      -675.0534143890 -3.65E-02
   431 Pulay/Diag. 0.10E+00    2.3     0.31837902      -675.9582110539 -9.05E-01
   432 Pulay/Diag. 0.10E+00    2.6     0.71097330      -676.1823341431 -2.24E-01
   433 Pulay/Diag. 0.10E+00    2.4     0.42077297      -675.7048202637  4.78E-01
   434 Pulay/Diag. 0.10E+00    2.9     0.41863726      -675.2695276587  4.35E-01
   435 Pulay/Diag. 0.10E+00    2.5     0.41891278      -675.6976272029 -4.28E-01
   436 Pulay/Diag. 0.10E+00    2.3     0.13583065      -675.2581202257  4.40E-01
   437 Pulay/Diag. 0.10E+00    2.3     0.13631556      -674.9590802476  2.99E-01
   438 Pulay/Diag. 0.10E+00    2.5     0.10047955      -675.1176898527 -1.59E-01
   439 Pulay/Diag. 0.10E+00    2.6     0.18145958      -675.2679662968 -1.50E-01
   440 Pulay/Diag. 0.10E+00    2.3     0.18139876      -675.2391764491  2.88E-02
   441 Pulay/Diag. 0.10E+00    2.4     0.00152080      -675.2700688861 -3.09E-02
   442 Pulay/Diag. 0.10E+00    2.5     0.28740297      -675.2655002324  4.57E-03
   443 Pulay/Diag. 0.10E+00    2.5     0.16578802      -675.5462460478 -2.81E-01
   444 Pulay/Diag. 0.10E+00    1.9     0.41543011      -675.7138080934 -1.68E-01
   445 Pulay/Diag. 0.10E+00    1.3     0.41632396      -675.2777047247  4.36E-01
   446 Pulay/Diag. 0.10E+00    1.3     0.43752360      -675.6968281689 -4.19E-01
   447 Pulay/Diag. 0.10E+00    1.3     0.00226958      -675.9953009853 -2.98E-01
   448 Pulay/Diag. 0.10E+00    1.3     0.00814634      -675.9872253006  8.08E-03
   449 Pulay/Diag. 0.10E+00    1.7     0.00260026      -675.9714933807  1.57E-02
   450 Pulay/Diag. 0.10E+00    1.3     0.00573690      -675.9820766151 -1.06E-02
   451 Pulay/Diag. 0.10E+00    1.3     0.43597752      -675.9866879454 -4.61E-03
   452 Pulay/Diag. 0.10E+00    1.3     0.00459004      -675.6944833152  2.92E-01
   453 Pulay/Diag. 0.10E+00    1.3     0.45075326      -675.6898833405  4.60E-03
   454 Pulay/Diag. 0.10E+00    1.3     0.82839157      -675.9876558446 -2.98E-01
   455 Pulay/Diag. 0.10E+00    1.3     0.00915088      -675.2752799756  7.12E-01
   456 Pulay/Diag. 0.10E+00    1.3     0.18139098      -675.2737520865  1.53E-03
   457 Pulay/Diag. 0.10E+00    1.3     0.28493897      -675.3039653738 -3.02E-02
   458 Pulay/Diag. 0.10E+00    1.3     0.11806015      -675.5541964649 -2.50E-01
   459 Pulay/Diag. 0.10E+00    1.3     0.12303091      -675.4307112691  1.23E-01
   460 Pulay/Diag. 0.10E+00    1.7     0.16359590      -675.5572621588 -1.27E-01
   461 Pulay/Diag. 0.10E+00    1.3     0.41650130      -675.7082029541 -1.51E-01
   462 Pulay/Diag. 0.10E+00    1.3     0.41554482      -675.2964796126  4.12E-01
   463 Pulay/Diag. 0.10E+00    1.4     0.00215999      -675.7130743043 -4.17E-01
   464 Pulay/Diag. 0.10E+00    1.3     0.38839684      -675.7077850485  5.29E-03
   465 Pulay/Diag. 0.10E+00    1.3     0.38713462      -675.2715004195  4.36E-01
   466 Pulay/Diag. 0.10E+00    1.3     0.00227812      -675.7043659351 -4.33E-01
   467 Pulay/Diag. 0.10E+00    1.3     0.00407459      -675.7017043265  2.66E-03
   468 Pulay/Diag. 0.10E+00    1.3     0.00051774      -675.7065320993 -4.83E-03
   469 Pulay/Diag. 0.10E+00    1.3     0.00175202      -675.7063533131  1.79E-04
   470 Pulay/Diag. 0.10E+00    1.3     0.00607080      -675.7165462359 -1.02E-02
   471 Pulay/Diag. 0.10E+00    1.7     0.43462927      -675.7275485678 -1.10E-02
   472 Pulay/Diag. 0.10E+00    1.3     0.00024985      -676.0497023281 -3.22E-01
   473 Pulay/Diag. 0.10E+00    1.4     0.87402712      -676.0529439624 -3.24E-03
   474 Pulay/Diag. 0.10E+00    1.3     0.10685359      -675.1833620120  8.70E-01
   475 Pulay/Diag. 0.10E+00    1.3     0.00576178      -675.2975517456 -1.14E-01
   476 Pulay/Diag. 0.10E+00    1.4     0.18223855      -675.2946571676  2.89E-03
   477 Pulay/Diag. 0.10E+00    2.4     0.00146965      -675.2633982493  3.13E-02
   478 Pulay/Diag. 0.10E+00    2.7     0.39677968      -675.2659472349 -2.55E-03
   479 Pulay/Diag. 0.10E+00    3.9     0.39613607      -675.7130050590 -4.47E-01
   480 Pulay/Diag. 0.10E+00    2.6     0.18224986      -675.2671977381  4.46E-01
   481 Pulay/Diag. 0.10E+00    2.5     0.41934435      -675.2953787563 -2.82E-02
   482 Pulay/Diag. 0.10E+00    2.5     0.39299184      -675.7062175127 -4.11E-01
   483 Pulay/Diag. 0.10E+00    2.3     0.22829008      -675.2642296353  4.42E-01
   484 Pulay/Diag. 0.10E+00    2.5     0.12660479      -675.5499547941 -2.86E-01
   485 Pulay/Diag. 0.10E+00    2.4     0.23421535      -675.4664100961  8.35E-02
   486 Pulay/Diag. 0.10E+00    2.3     0.39453823      -675.6999445066 -2.34E-01
   487 Pulay/Diag. 0.10E+00    2.2     0.23116180      -675.2592747378  4.41E-01
   488 Pulay/Diag. 0.10E+00    2.5     0.16596874      -675.5507174598 -2.91E-01
   489 Pulay/Diag. 0.10E+00    2.7     0.00221030      -675.7154220131 -1.65E-01
   490 Pulay/Diag. 0.10E+00    2.6     0.00111008      -675.7218165530 -6.39E-03
   491 Pulay/Diag. 0.10E+00    2.4     0.00153506      -675.7207236074  1.09E-03
   492 Pulay/Diag. 0.10E+00    2.7     0.43361870      -675.7227936196 -2.07E-03
   493 Pulay/Diag. 0.10E+00    2.2     0.00109208      -676.0493644070 -3.27E-01
   494 Pulay/Diag. 0.10E+00    2.5     0.43673256      -676.0515420122 -2.18E-03
   495 Pulay/Diag. 0.10E+00    2.3     0.52004677      -675.7339859549  3.18E-01
   496 Pulay/Diag. 0.10E+00    2.5     0.95926076      -675.0509976709  6.83E-01
   497 Pulay/Diag. 0.10E+00    2.3     0.00350246      -676.0762089891 -1.03E+00
   498 Pulay/Diag. 0.10E+00    2.5     0.00482934      -676.0708701482  5.34E-03
   499 Pulay/Diag. 0.10E+00    2.5     0.43432061      -676.0672350538  3.64E-03
   500 Pulay/Diag. 0.10E+00    1.4     0.40092145      -675.7705907217  2.97E-01

  Leaving inner SCF loop after reaching   500 steps.


  Electronic density on regular grids:       -143.9999999976        0.0000000024
  Core density on regular grids:              143.9999999999       -0.0000000001
  Total charge density on r-space grids:        0.0000000023
  Total charge density g-space grids:           0.0000000023

  Overlap energy of the core charge distribution:               0.00000004275251
  Self energy of the core charge distribution:               -977.15629455119449
  Core Hamiltonian energy:                                    292.17182379013872
  Hartree energy:                                             110.41077928029162
  Exchange-correlation energy:                               -101.11344987876649
  Dispersion energy:                                           -0.08344940488132

  Total energy:                                              -675.77059072165935

 *** WARNING in qs_scf.F:542 :: SCF run NOT converged ***


 ENERGY| Total FORCE_EVAL ( QS ) energy (a.u.):             -675.257189393160729


 --------  Informations at step =     0 ------------
  Optimization Method        =                 BFGS
  Total Energy               =      -675.2571893932
  Internal Pressure [bar]    =    -59876.0629939214
  Used time                  =              833.217
 ---------------------------------------------------

 --------------------------
 OPTIMIZATION STEP:      1
 --------------------------

 CELL| Volume [angstrom^3]:                                              343.750
 CELL| Vector a [angstrom]:       3.150     0.000     0.000    |a| =       3.150
 CELL| Vector b [angstrom]:      -1.575     2.728     0.000    |b| =       3.150
 CELL| Vector c [angstrom]:       0.000     0.000    40.000    |c| =      40.000
 CELL| Angle (b,c), alpha [degree]:                                       90.000
 CELL| Angle (a,c), beta  [degree]:                                       90.000
 CELL| Angle (a,b), gamma [degree]:                                      120.000
 CELL| Numerically orthorhombic:                                              NO

 Number of electrons:                                                        144
 Number of occupied orbitals:                                                 72
 Number of molecular orbitals:                                               304

 Number of orbital functions:                                                304
 Number of independent orbital functions:                                    304

 Extrapolation method: initial_guess


 SCF WAVEFUNCTION OPTIMIZATION

  Step     Update method      Time    Convergence         Total energy    Change
  ------------------------------------------------------------------------------
     1 Pulay/Diag. 0.10E+00    1.2     2.02454154      -676.5866432887 -6.77E+02
     2 Pulay/Diag. 0.10E+00    1.4     0.06532836      -663.3349193694  1.33E+01
     3 Pulay/Diag. 0.10E+00    1.4     8.95455321      -667.7585244124 -4.42E+00
     4 Pulay/Diag. 0.10E+00    1.8     8.64647431      -677.0559639606 -9.30E+00
     5 Pulay/Diag. 0.10E+00    1.4     0.28160755      -676.7090489633  3.47E-01
     6 Pulay/Diag. 0.10E+00    1.4     1.27132615      -676.3755928579  3.33E-01
     7 Pulay/Diag. 0.10E+00    1.4     0.40580664      -674.7165915373  1.66E+00
     8 Pulay/Diag. 0.10E+00    1.4     0.17633143      -674.8768578935 -1.60E-01
     9 Pulay/Diag. 0.10E+00    1.4     0.01113741      -674.8954582930 -1.86E-02
    10 Pulay/Diag. 0.10E+00    1.4     0.31142451      -674.8688917953  2.66E-02
    11 Pulay/Diag. 0.10E+00    1.4     1.35162934      -674.5358337377  3.33E-01
    12 Pulay/Diag. 0.10E+00    1.4     1.36575435      -675.1698077681 -6.34E-01
    13 Pulay/Diag. 0.10E+00    1.4     0.12100932      -674.9750657437  1.95E-01
    14 Pulay/Diag. 0.10E+00    2.7     1.05999729      -675.1488104367 -1.74E-01
    15 Pulay/Diag. 0.10E+00    2.5     1.04472259      -676.6368039413 -1.49E+00
    16 Pulay/Diag. 0.10E+00    2.5     0.15903997      -675.2447629345  1.39E+00
    17 Pulay/Diag. 0.10E+00    2.6     0.00188554      -675.4655929312 -2.21E-01
    18 Pulay/Diag. 0.10E+00    2.7     0.15484955      -675.4355797843  3.00E-02
    19 Pulay/Diag. 0.10E+00    2.9     0.39917063      -675.4292895666  6.29E-03
    20 Pulay/Diag. 0.10E+00    2.6     0.43961664      -675.7952809739 -3.66E-01
    21 Pulay/Diag. 0.10E+00    2.5     0.95824867      -676.0411015230 -2.46E-01
    22 Pulay/Diag. 0.10E+00    2.6     0.16753013      -674.9814260443  1.06E+00
    23 Pulay/Diag. 0.10E+00    2.5     0.16223947      -675.2839555911 -3.03E-01
    24 Pulay/Diag. 0.10E+00    3.0     0.00081443      -675.1866711106  9.73E-02
    25 Pulay/Diag. 0.10E+00    2.6     0.16328755      -675.1805430037  6.13E-03
    26 Pulay/Diag. 0.10E+00    2.8     0.39924042      -675.2951732505 -1.15E-01
    27 Pulay/Diag. 0.10E+00    2.4     0.00660726      -675.7612762458 -4.66E-01
    28 Pulay/Diag. 0.10E+00    2.9     0.00826632      -675.7554972114  5.78E-03
    29 Pulay/Diag. 0.10E+00    2.7     0.00751519      -675.7609383105 -5.44E-03
    30 Pulay/Diag. 0.10E+00    2.4     0.39480557      -675.7386376530  2.23E-02
    31 Pulay/Diag. 0.10E+00    2.3     0.16028164      -675.2736196455  4.65E-01
    32 Pulay/Diag. 0.10E+00    2.6     0.15989236      -675.1751438437  9.85E-02
    33 Pulay/Diag. 0.10E+00    2.7     0.00150839      -675.2809576782 -1.06E-01
    34 Pulay/Diag. 0.10E+00    2.4     0.00262823      -675.2874500317 -6.49E-03
    35 Pulay/Diag. 0.10E+00    2.5     0.16299171      -675.2943887157 -6.94E-03
    36 Pulay/Diag. 0.10E+00    2.5     0.08894594      -675.2019272620  9.25E-02
    37 Pulay/Diag. 0.10E+00    2.5     0.00378329      -675.3341786790 -1.32E-01
    38 Pulay/Diag. 0.10E+00    2.1     0.00957791      -675.3519606365 -1.78E-02
    39 Pulay/Diag. 0.10E+00    1.3     0.00372345      -675.3685103695 -1.65E-02
    40 Pulay/Diag. 0.10E+00    1.4     0.00349185      -675.3599072965  8.60E-03
    41 Pulay/Diag. 0.10E+00    1.4     0.40861873      -675.3633809864 -3.47E-03
    42 Pulay/Diag. 0.10E+00    1.4     0.40690451      -675.7926886824 -4.29E-01
    43 Pulay/Diag. 0.10E+00    1.4     0.17563805      -675.3247980595  4.68E-01
    44 Pulay/Diag. 0.10E+00    1.4     0.17529327      -675.2846394937  4.02E-02
    45 Pulay/Diag. 0.10E+00    1.4     0.00035769      -675.3344557243 -4.98E-02
    46 Pulay/Diag. 0.10E+00    1.4     0.00016318      -675.3331939394  1.26E-03
    47 Pulay/Diag. 0.10E+00    1.6     0.00020527      -675.3331822847  1.17E-05
    48 Pulay/Diag. 0.10E+00    1.5     0.23577532      -675.3328552105  3.27E-04
    49 Pulay/Diag. 0.10E+00    1.4     0.18822740      -675.5546400710 -2.22E-01
    50 Pulay/Diag. 0.10E+00    1.4     0.13459841      -675.2988431295  2.56E-01
    51 Pulay/Diag. 0.10E+00    1.4     0.15274395      -675.4894302595 -1.91E-01
    52 Pulay/Diag. 0.10E+00    1.4     0.28071045      -675.4667211780  2.27E-02
    53 Pulay/Diag. 0.10E+00    1.4     0.40061533      -675.7633189668 -2.97E-01
    54 Pulay/Diag. 0.10E+00    1.4     0.39324292      -675.3038445946  4.59E-01
    55 Pulay/Diag. 0.10E+00    1.4     0.39595268      -675.7632498750 -4.59E-01
    56 Pulay/Diag. 0.10E+00    1.4     0.11682390      -675.3036722049  4.60E-01
    57 Pulay/Diag. 0.10E+00    1.4     0.11575405      -675.4714456535 -1.68E-01
    58 Pulay/Diag. 0.10E+00    1.8     0.11636349      -675.3088319896  1.63E-01
    59 Pulay/Diag. 0.10E+00    1.4     0.00125215      -675.4697748737 -1.61E-01
    60 Pulay/Diag. 0.10E+00    1.4     0.11286757      -675.4715850018 -1.81E-03
    61 Pulay/Diag. 0.10E+00    1.4     0.07697099      -675.6006358889 -1.29E-01
    62 Pulay/Diag. 0.10E+00    1.4     0.04996401      -675.5129580372  8.77E-02
    63 Pulay/Diag. 0.10E+00    1.4     0.19030086      -675.5698123173 -5.69E-02
    64 Pulay/Diag. 0.10E+00    1.4     0.26935216      -675.7602779830 -1.90E-01
    65 Pulay/Diag. 0.10E+00    1.4     0.16017954      -675.4707838786  2.89E-01
    66 Pulay/Diag. 0.10E+00    1.4     0.27852861      -675.4693561583  1.43E-03
    67 Pulay/Diag. 0.10E+00    1.4     0.39707142      -675.7564631417 -2.87E-01
    68 Pulay/Diag. 0.10E+00    1.4     0.00233192      -675.2982124393  4.58E-01
    69 Pulay/Diag. 0.10E+00    1.7     0.00106200      -675.3021172200 -3.90E-03
    70 Pulay/Diag. 0.10E+00    1.4     0.00075856      -675.3047781512 -2.66E-03
    71 Pulay/Diag. 0.10E+00    1.4     0.11825695      -675.3061537909 -1.38E-03
    72 Pulay/Diag. 0.10E+00    1.4     0.14626865      -675.4715120961 -1.65E-01
    73 Pulay/Diag. 0.10E+00    1.4     0.01172181      -675.4942395624 -2.27E-02
    74 Pulay/Diag. 0.10E+00    1.4     0.06823891      -675.5078714577 -1.36E-02
    75 Pulay/Diag. 0.10E+00    1.4     0.21181600      -675.5804477231 -7.26E-02
    76 Pulay/Diag. 0.10E+00    1.4     0.00209917      -675.2929079887  2.88E-01
    77 Pulay/Diag. 0.10E+00    2.0     0.00053004      -675.2962457878 -3.34E-03
    78 Pulay/Diag. 0.10E+00    2.7     0.00115920      -675.2976521780 -1.41E-03
    79 Pulay/Diag. 0.10E+00    2.7     0.17629098      -675.3028526670 -5.20E-03
    80 Pulay/Diag. 0.10E+00    2.5     0.00017631      -675.3368808629 -3.40E-02
    81 Pulay/Diag. 0.10E+00    2.4     0.00020544      -675.3367924692  8.84E-05
    82 Pulay/Diag. 0.10E+00    2.5     0.00256901      -675.3367669440  2.55E-05
    83 Pulay/Diag. 0.10E+00    2.6     1.25389778      -675.3867022264 -4.99E-02
    84 Pulay/Diag. 0.10E+00    2.6     0.85843743      -676.4331815368 -1.05E+00
    85 Pulay/Diag. 0.10E+00    2.5     0.00891242      -675.7686797752  6.65E-01
    86 Pulay/Diag. 0.10E+00    2.5     0.40275922      -675.7588397610  9.84E-03
    87 Pulay/Diag. 0.10E+00    3.0     0.09278926      -675.3187748938  4.40E-01
    88 Pulay/Diag. 0.10E+00    2.4     0.00410053      -675.1522320567  1.67E-01
    89 Pulay/Diag. 0.10E+00    1.7     0.00397938      -675.1522881175 -5.61E-05
    90 Pulay/Diag. 0.10E+00    1.4     0.15761738      -675.1593205310 -7.03E-03
    91 Pulay/Diag. 0.10E+00    1.7     0.00321605      -675.2602624148 -1.01E-01
    92 Pulay/Diag. 0.10E+00    1.4     0.00443199      -675.2740472632 -1.38E-02
    93 Pulay/Diag. 0.10E+00    1.4     0.00131898      -675.2921566425 -1.81E-02
    94 Pulay/Diag. 0.10E+00    1.4     0.00602438      -675.3030860567 -1.09E-02
    95 Pulay/Diag. 0.10E+00    1.4     1.09167723      -675.3315739360 -2.85E-02
    96 Pulay/Diag. 0.10E+00    1.4     0.27153754      -676.2924484054 -9.61E-01
    97 Pulay/Diag. 0.10E+00    1.4     0.00029904      -676.0975545346  1.95E-01
    98 Pulay/Diag. 0.10E+00    1.4     0.42570416      -676.0947317627  2.82E-03
    99 Pulay/Diag. 0.10E+00    1.4     0.40859484      -675.7776406967  3.17E-01
   100 Pulay/Diag. 0.10E+00    1.4     0.17608313      -675.3343884978  4.43E-01
   101 Pulay/Diag. 0.10E+00    1.6     0.00042314      -675.3033571065  3.10E-02
   102 Pulay/Diag. 0.10E+00    1.5     0.00102851      -675.3025579098  7.99E-04
   103 Pulay/Diag. 0.10E+00    1.4     0.00022788      -675.3014511142  1.11E-03
   104 Pulay/Diag. 0.10E+00    1.4     0.00069955      -675.3009748626  4.76E-04
   105 Pulay/Diag. 0.10E+00    1.4     0.00070554      -675.2997403312  1.23E-03
   106 Pulay/Diag. 0.10E+00    1.4     0.15816656      -675.2987073326  1.03E-03
   107 Pulay/Diag. 0.10E+00    1.4     1.17023850      -675.2013031905  9.74E-02
   108 Pulay/Diag. 0.10E+00    1.4     0.00709128      -676.2512233613 -1.05E+00
   109 Pulay/Diag. 0.10E+00    1.4     0.00180285      -676.2349443172  1.63E-02
   110 Pulay/Diag. 0.10E+00    1.4     0.00366658      -676.2369648425 -2.02E-03
   111 Pulay/Diag. 0.10E+00    1.4     0.00153490      -676.2329578804  4.01E-03
   112 Pulay/Diag. 0.10E+00    1.8     0.00483743      -676.2321543183  8.04E-04
   113 Pulay/Diag. 0.10E+00    1.4     1.10486601      -676.2366463754 -4.49E-03
   114 Pulay/Diag. 0.10E+00    1.4     0.15860303      -675.3135481878  9.23E-01
   115 Pulay/Diag. 0.10E+00    1.4     0.01982968      -674.9504606193  3.63E-01
   116 Pulay/Diag. 0.10E+00    1.4     0.00562128      -674.9487803301  1.68E-03
   117 Pulay/Diag. 0.10E+00    1.4     0.00508142      -674.9523518562 -3.57E-03
   118 Pulay/Diag. 0.10E+00    1.4     0.00477666      -674.9613369763 -8.99E-03
   119 Pulay/Diag. 0.10E+00    1.4     0.01651718      -674.9661497709 -4.81E-03
   120 Pulay/Diag. 0.10E+00    1.4     1.63102121      -674.9681272876 -1.98E-03
   121 Pulay/Diag. 0.10E+00    1.4     0.66392594      -676.5074067504 -1.54E+00
   122 Pulay/Diag. 0.10E+00    1.4     3.16902427      -676.0338565426  4.74E-01
   123 Pulay/Diag. 0.10E+00    1.6     2.02996050      -677.0842236036 -1.05E+00
   124 Pulay/Diag. 0.10E+00    1.4     0.01688133      -676.9262663225  1.58E-01
   125 Pulay/Diag. 0.10E+00    1.4     0.40935495      -676.9267348527 -4.69E-04
   126 Pulay/Diag. 0.10E+00    1.4     0.91069963      -677.0362028763 -1.09E-01
   127 Pulay/Diag. 0.10E+00    1.3     2.13703781      -676.6145658074  4.22E-01
   128 Pulay/Diag. 0.10E+00    1.4     0.00795974      -674.9853914370  1.63E+00
   129 Pulay/Diag. 0.10E+00    1.4     0.00495690      -674.9890708662 -3.68E-03
   130 Pulay/Diag. 0.10E+00    1.3     0.13452366      -674.9906022399 -1.53E-03
   131 Pulay/Diag. 0.10E+00    1.4     0.00091257      -675.1721821439 -1.82E-01
   132 Pulay/Diag. 0.10E+00    1.4     0.13449129      -675.1727645874 -5.82E-04
   133 Pulay/Diag. 0.10E+00    1.5     0.00709354      -675.0317809165  1.41E-01
   134 Pulay/Diag. 0.10E+00    1.7     0.13107424      -675.0503113465 -1.85E-02
   135 Pulay/Diag. 0.10E+00    1.4     2.17969098      -675.2921902571 -2.42E-01
   136 Pulay/Diag. 0.10E+00    1.4     2.17910760      -676.9850345850 -1.69E+00
   137 Pulay/Diag. 0.10E+00    1.4     0.55889306      -675.1913462179  1.79E+00
   138 Pulay/Diag. 0.10E+00    1.4     0.00229965      -675.7261881791 -5.35E-01
   139 Pulay/Diag. 0.10E+00    1.4     0.39805267      -675.7234267038  2.76E-03
   140 Pulay/Diag. 0.10E+00    1.7     0.00156702      -675.3016186727  4.22E-01
   141 Pulay/Diag. 0.10E+00    2.9     0.16182895      -675.3019632774 -3.45E-04
   142 Pulay/Diag. 0.10E+00    3.4     1.19372594      -675.2129880995  8.90E-02
   143 Pulay/Diag. 0.10E+00    2.4     0.01850650      -676.2081482694 -9.95E-01
   144 Pulay/Diag. 0.10E+00    2.7     0.03282330      -676.1899611893  1.82E-02
   145 Pulay/Diag. 0.10E+00    2.6     0.29124858      -676.1767782510  1.32E-02
   146 Pulay/Diag. 0.10E+00    2.6     0.26834413      -675.9972446305  1.80E-01
   147 Pulay/Diag. 0.10E+00    2.4     0.01799927      -676.1184533143 -1.21E-01
   148 Pulay/Diag. 0.10E+00    2.3     1.08889705      -676.1214175752 -2.96E-03
   149 Pulay/Diag. 0.10E+00    2.5     1.10002575      -675.2398646776  8.82E-01
   150 Pulay/Diag. 0.10E+00    2.4     0.85110902      -676.2243467901 -9.84E-01
   151 Pulay/Diag. 0.10E+00    2.4     0.22266120      -675.5935777035  6.31E-01
   152 Pulay/Diag. 0.10E+00    2.6     0.17587633      -675.2966288916  2.97E-01
   153 Pulay/Diag. 0.10E+00    2.5     0.17585166      -675.3284049361 -3.18E-02
   154 Pulay/Diag. 0.10E+00    2.5     0.00307684      -675.2967710502  3.16E-02
   155 Pulay/Diag. 0.10E+00    2.4     0.00123569      -675.2963075528  4.63E-04
   156 Pulay/Diag. 0.10E+00    2.5     0.00223623      -675.2987477703 -2.44E-03
   157 Pulay/Diag. 0.10E+00    2.3     0.39407449      -675.3020040037 -3.26E-03
   158 Pulay/Diag. 0.10E+00    2.4     0.43171218      -675.7705834470 -4.69E-01
   159 Pulay/Diag. 0.10E+00    2.6     0.42913691      -676.0801634510 -3.10E-01
   160 Pulay/Diag. 0.10E+00    2.7     0.27778396      -675.7694957707  3.11E-01
   161 Pulay/Diag. 0.10E+00    2.6     0.27977842      -675.4696662537  3.00E-01
   162 Pulay/Diag. 0.10E+00    2.4     0.40975931      -675.7709644447 -3.01E-01
   163 Pulay/Diag. 0.10E+00    2.4     0.00051448      -675.3345163536  4.36E-01
   164 Pulay/Diag. 0.10E+00    2.9     0.00060217      -675.3345037179  1.26E-05
   165 Pulay/Diag. 0.10E+00    1.9     0.15544767      -675.3437195981 -9.22E-03
   166 Pulay/Diag. 0.10E+00    1.4     0.01800726      -675.0510514398  2.93E-01
   167 Pulay/Diag. 0.10E+00    1.7     0.93635307      -675.0372065586  1.38E-02
   168 Pulay/Diag. 0.10E+00    1.4     0.22088962      -676.0207305962 -9.84E-01
   169 Pulay/Diag. 0.10E+00    1.4     0.79855724      -675.9843797802  3.64E-02
   170 Pulay/Diag. 0.10E+00    1.4     0.00604260      -675.2979246408  6.86E-01
   171 Pulay/Diag. 0.10E+00    1.4     0.00059607      -675.2968278910  1.10E-03
   172 Pulay/Diag. 0.10E+00    1.4     0.00112918      -675.2971617009 -3.34E-04
   173 Pulay/Diag. 0.10E+00    1.4     0.39278872      -675.2984611439 -1.30E-03
   174 Pulay/Diag. 0.10E+00    1.4     0.40751206      -675.7630542017 -4.65E-01
   175 Pulay/Diag. 0.10E+00    1.4     0.17790389      -675.3307794316  4.32E-01
   176 Pulay/Diag. 0.10E+00    1.4     0.00364901      -675.2977978261  3.30E-02
   177 Pulay/Diag. 0.10E+00    2.6     0.00228265      -675.2935299467  4.27E-03
   178 Pulay/Diag. 0.10E+00    1.8     0.00028301      -675.2924775191  1.05E-03
   179 Pulay/Diag. 0.10E+00    2.4     0.00048175      -675.2942382286 -1.76E-03
   180 Pulay/Diag. 0.10E+00    2.7     0.00070323      -675.2954496646 -1.21E-03
   181 Pulay/Diag. 0.10E+00    2.6     0.00152933      -675.2984561326 -3.01E-03
   182 Pulay/Diag. 0.10E+00    2.3     1.56831112      -675.3256416519 -2.72E-02
   183 Pulay/Diag. 0.10E+00    2.2     0.74462209      -676.7598065535 -1.43E+00
   184 Pulay/Diag. 0.10E+00    2.3     0.01093951      -676.0826069206  6.77E-01
   185 Pulay/Diag. 0.10E+00    2.4     0.00456818      -676.0814745143  1.13E-03
   186 Pulay/Diag. 0.10E+00    2.3     0.43236391      -676.0775458839  3.93E-03
   187 Pulay/Diag. 0.10E+00    2.3     0.00413673      -675.7709622926  3.07E-01
   188 Pulay/Diag. 0.10E+00    2.6     0.00067583      -675.7705304898  4.32E-04
   189 Pulay/Diag. 0.10E+00    2.5     0.40992856      -675.7740775478 -3.55E-03
   190 Pulay/Diag. 0.10E+00    2.4     0.09250734      -675.3382932247  4.36E-01
   191 Pulay/Diag. 0.10E+00    2.5     0.00876933      -675.1764495029  1.62E-01
   192 Pulay/Diag. 0.10E+00    2.7     0.15966119      -675.1707903018  5.66E-03
   193 Pulay/Diag. 0.10E+00    2.5     0.00349654      -675.2832230048 -1.12E-01
   194 Pulay/Diag. 0.10E+00    2.7     0.00661008      -675.2984725768 -1.52E-02
   195 Pulay/Diag. 0.10E+00    2.4     0.00132965      -675.3075260787 -9.05E-03
   196 Pulay/Diag. 0.10E+00    2.3     0.39635360      -675.3079356240 -4.10E-04
   197 Pulay/Diag. 0.10E+00    2.4     0.00769745      -675.7692948304 -4.61E-01
   198 Pulay/Diag. 0.10E+00    2.3     0.40225460      -675.7595200475  9.77E-03
   199 Pulay/Diag. 0.10E+00    2.5     0.17631006      -675.3339357974  4.26E-01
   200 Pulay/Diag. 0.10E+00    2.6     0.38198528      -675.3078936540  2.60E-02
   201 Pulay/Diag. 0.10E+00    2.4     0.38238232      -675.7506688740 -4.43E-01
   202 Pulay/Diag. 0.10E+00    2.4     0.00215638      -675.3060976155  4.45E-01
   203 Pulay/Diag. 0.10E+00    2.7     0.00039679      -675.3040600757  2.04E-03
   204 Pulay/Diag. 0.10E+00    2.4     0.00047407      -675.3037921996  2.68E-04
   205 Pulay/Diag. 0.10E+00    1.4     0.17652839      -675.3035366155  2.56E-04
   206 Pulay/Diag. 0.10E+00    1.4     0.17651563      -675.3312681248 -2.77E-02
   207 Pulay/Diag. 0.10E+00    1.4     0.17649180      -675.3032116026  2.81E-02
   208 Pulay/Diag. 0.10E+00    1.4     0.17649457      -675.3315489607 -2.83E-02
   209 Pulay/Diag. 0.10E+00    1.4     1.12937583      -675.3041598210  2.74E-02
   210 Pulay/Diag. 0.10E+00    1.8     0.12711191      -676.2654246389 -9.61E-01
   211 Pulay/Diag. 0.10E+00    1.4     0.00201240      -676.2304733414  3.50E-02
   212 Pulay/Diag. 0.10E+00    1.4     0.00600976      -676.2268855656  3.59E-03
   213 Pulay/Diag. 0.10E+00    1.4     0.00211993      -676.2255472709  1.34E-03
   214 Pulay/Diag. 0.10E+00    1.4     0.70109839      -676.2247821025  7.65E-04
   215 Pulay/Diag. 0.10E+00    1.4     0.28498535      -675.7747738171  4.50E-01
   216 Pulay/Diag. 0.10E+00    1.4     0.28021593      -675.4691756595  3.06E-01
   217 Pulay/Diag. 0.10E+00    1.4     0.54151840      -675.7572672335 -2.88E-01
   218 Pulay/Diag. 0.10E+00    1.4     0.00660883      -674.9803078026  7.77E-01
   219 Pulay/Diag. 0.10E+00    1.4     0.00433095      -674.9871653325 -6.86E-03
   220 Pulay/Diag. 0.10E+00    1.4     0.01246763      -674.9786727724  8.49E-03
   221 Pulay/Diag. 0.10E+00    1.7     0.01491750      -674.9902324831 -1.16E-02
   222 Pulay/Diag. 0.10E+00    1.4     0.15735974      -675.0026776038 -1.24E-02
   223 Pulay/Diag. 0.10E+00    1.4     0.01348679      -675.2675108550 -2.65E-01
   224 Pulay/Diag. 0.10E+00    1.4     0.39016992      -675.3131889035 -4.57E-02
   225 Pulay/Diag. 0.10E+00    1.4     0.42685066      -675.7603999093 -4.47E-01
   226 Pulay/Diag. 0.10E+00    1.4     0.42611627      -676.0610227808 -3.01E-01
   227 Pulay/Diag. 0.10E+00    1.4     0.00192055      -675.7564719567  3.05E-01
   228 Pulay/Diag. 0.10E+00    1.4     0.00274527      -675.7545165497  1.96E-03
   229 Pulay/Diag. 0.10E+00    1.4     0.39773863      -675.7513957424  3.12E-03
   230 Pulay/Diag. 0.10E+00    1.4     0.39441186      -675.2973602806  4.54E-01
   231 Pulay/Diag. 0.10E+00    1.5     0.00322692      -675.7680365340 -4.71E-01
   232 Pulay/Diag. 0.10E+00    1.6     0.39633760      -675.7635033191  4.53E-03
   233 Pulay/Diag. 0.10E+00    1.4     0.00015753      -675.3010936804  4.62E-01
   234 Pulay/Diag. 0.10E+00    1.4     0.11823984      -675.3016253331 -5.32E-04
   235 Pulay/Diag. 0.10E+00    1.4     0.00027176      -675.4674268151 -1.66E-01
   236 Pulay/Diag. 0.10E+00    1.4     0.01613110      -675.4680905822 -6.64E-04
   237 Pulay/Diag. 0.10E+00    1.4     0.26320818      -675.4885140481 -2.04E-02
   238 Pulay/Diag. 0.10E+00    1.4     0.00039192      -675.7692578896 -2.81E-01
   239 Pulay/Diag. 0.10E+00    1.4     0.00024866      -675.7681043225  1.15E-03
   240 Pulay/Diag. 0.10E+00    1.4     0.00043006      -675.7675890997  5.15E-04
   241 Pulay/Diag. 0.10E+00    1.4     0.00066672      -675.7671289475  4.60E-04
   242 Pulay/Diag. 0.10E+00    2.3     0.39616929      -675.7609963105  6.13E-03
   243 Pulay/Diag. 0.10E+00    2.5     0.00411038      -675.2948831619  4.66E-01
   244 Pulay/Diag. 0.10E+00    3.1     0.17657881      -675.2987356265 -3.85E-03
   245 Pulay/Diag. 0.10E+00    2.4     0.00019481      -675.3327821084 -3.40E-02
   246 Pulay/Diag. 0.10E+00    2.5     0.00041935      -675.3325847609  1.97E-04
   247 Pulay/Diag. 0.10E+00    2.4     0.17656944      -675.3313763232  1.21E-03
   248 Pulay/Diag. 0.10E+00    2.5     0.17647618      -675.3015321209  2.98E-02
   249 Pulay/Diag. 0.10E+00    2.4     0.17645898      -675.3304974346 -2.90E-02
   250 Pulay/Diag. 0.10E+00    2.5     1.27032344      -675.3540654868 -2.36E-02
   251 Pulay/Diag. 0.10E+00    2.4     0.87371803      -676.4880474395 -1.13E+00
   252 Pulay/Diag. 0.10E+00    2.6     0.40857252      -675.7777178147  7.10E-01
   253 Pulay/Diag. 0.10E+00    2.5     0.00221516      -675.3358320489  4.42E-01
   254 Pulay/Diag. 0.10E+00    2.5     0.00224160      -675.3378948204 -2.06E-03
   255 Pulay/Diag. 0.10E+00    1.4     0.40915978      -675.3354123303  2.48E-03
   256 Pulay/Diag. 0.10E+00    1.4     0.40838441      -675.7675281344 -4.32E-01
   257 Pulay/Diag. 0.10E+00    1.4     0.00146741      -675.3339653617  4.34E-01
   258 Pulay/Diag. 0.10E+00    1.4     0.14328872      -675.3260964515  7.87E-03
   259 Pulay/Diag. 0.10E+00    1.4     0.05539997      -674.9912957362  3.35E-01
   260 Pulay/Diag. 0.10E+00    1.4     0.00187386      -674.9523296360  3.90E-02
   261 Pulay/Diag. 0.10E+00    1.4     0.01016896      -674.9446009698  7.73E-03
   262 Pulay/Diag. 0.10E+00    1.4     0.00511633      -674.9236561888  2.09E-02
   263 Pulay/Diag. 0.10E+00    1.4     0.04617729      -674.9140898914  9.57E-03
   264 Pulay/Diag. 0.10E+00    1.8     1.24729653      -674.9395917898 -2.55E-02
   265 Pulay/Diag. 0.10E+00    1.4     1.25752553      -676.1233488937 -1.18E+00
   266 Pulay/Diag. 0.10E+00    1.4     1.27995490      -674.9727087662  1.15E+00
   267 Pulay/Diag. 0.10E+00    1.4     0.12673227      -676.2078182694 -1.24E+00
   268 Pulay/Diag. 0.10E+00    1.4     0.71678939      -676.1955460139  1.23E-02
   269 Pulay/Diag. 0.10E+00    1.3     0.55767938      -675.7222252160  4.73E-01
   270 Pulay/Diag. 0.10E+00    1.4     0.01772634      -674.9524083341  7.70E-01
   271 Pulay/Diag. 0.10E+00    1.4     0.13973381      -674.9830871851 -3.07E-02
   272 Pulay/Diag. 0.10E+00    1.4     0.00064394      -675.1509808581 -1.68E-01
   273 Pulay/Diag. 0.10E+00    1.4     0.00656265      -675.1504290117  5.52E-04
   274 Pulay/Diag. 0.10E+00    1.4     0.00189115      -675.1436988045  6.73E-03
   275 Pulay/Diag. 0.10E+00    1.7     0.13536304      -675.1424836567  1.22E-03
   276 Pulay/Diag. 0.10E+00    1.4     0.00844684      -674.9905688513  1.52E-01
   277 Pulay/Diag. 0.10E+00    1.4    10.52636243      -674.8531380063  1.37E-01
   278 Pulay/Diag. 0.10E+00    1.4     2.48087133      -677.7301233765 -2.88E+00
   279 Pulay/Diag. 0.10E+00    1.4     9.89934396      -676.6552169205  1.07E+00
   280 Pulay/Diag. 0.10E+00    1.4     1.19754528      -676.0529976045  6.02E-01
   281 Pulay/Diag. 0.10E+00    1.4     0.00654724      -675.0448863319  1.01E+00
   282 Pulay/Diag. 0.10E+00    1.4     0.00509788      -675.0429028583  1.98E-03
   283 Pulay/Diag. 0.10E+00    1.4     1.36596044      -675.0521146914 -9.21E-03
   284 Pulay/Diag. 0.10E+00    1.4     0.83167120      -676.3527576378 -1.30E+00
   285 Pulay/Diag. 0.10E+00    1.6     0.14506579      -676.9114722263 -5.59E-01
   286 Pulay/Diag. 0.10E+00    1.5     0.01061445      -676.7848713775  1.27E-01
   287 Pulay/Diag. 0.10E+00    1.4     0.34639224      -676.7796118547  5.26E-03
   288 Pulay/Diag. 0.10E+00    1.4     0.78277267      -676.7142532779  6.54E-02
   289 Pulay/Diag. 0.10E+00    1.4     0.01739760      -676.1748338900  5.39E-01
   290 Pulay/Diag. 0.10E+00    1.4     1.09753015      -676.1533699476  2.15E-02
   291 Pulay/Diag. 0.10E+00    1.4     0.83134616      -675.2794672185  8.74E-01
   292 Pulay/Diag. 0.10E+00    1.4     0.01362023      -676.0938917954 -8.14E-01
   293 Pulay/Diag. 0.10E+00    1.4     0.89591212      -676.0712120688  2.27E-02
   294 Pulay/Diag. 0.10E+00    1.4     0.16068429      -675.1862997472  8.85E-01
   295 Pulay/Diag. 0.10E+00    1.4     0.41099684      -675.2792028390 -9.29E-02
   296 Pulay/Diag. 0.10E+00    1.8     0.52899246      -675.7427990569 -4.64E-01
   297 Pulay/Diag. 0.10E+00    1.4     0.17214426      -675.0252639015  7.18E-01
   298 Pulay/Diag. 0.10E+00    1.4     0.17514880      -675.2837551099 -2.58E-01
   299 Pulay/Diag. 0.10E+00    1.4     0.09131386      -675.3081688816 -2.44E-02
   300 Pulay/Diag. 0.10E+00    1.4     0.00181792      -675.1757237238  1.32E-01
   301 Pulay/Diag. 0.10E+00    1.4     0.16622714      -675.1762619105 -5.38E-04
   302 Pulay/Diag. 0.10E+00    1.4     0.15871226      -675.3051708352 -1.29E-01
   303 Pulay/Diag. 0.10E+00    1.4     0.00214210      -675.2049995287  1.00E-01
   304 Pulay/Diag. 0.10E+00    1.4     0.33899520      -675.2211262893 -1.61E-02
   305 Pulay/Diag. 0.10E+00    1.4     0.35099155      -675.5999120165 -3.79E-01
   306 Pulay/Diag. 0.10E+00    2.2     0.00287183      -675.1853411990  4.15E-01
   307 Pulay/Diag. 0.10E+00    1.7     0.00078798      -675.1932872902 -7.95E-03
   308 Pulay/Diag. 0.10E+00    2.3     0.00084517      -675.1928269220  4.60E-04
   309 Pulay/Diag. 0.10E+00    2.3     0.00087331      -675.1997937335 -6.97E-03
   310 Pulay/Diag. 0.10E+00    2.4     0.13521731      -675.1770505145  2.27E-02
   311 Pulay/Diag. 0.10E+00    2.5     0.01498902      -674.9682214470  2.09E-01
   312 Pulay/Diag. 0.10E+00    2.6     0.14193016      -675.0043376600 -3.61E-02
   313 Pulay/Diag. 0.10E+00    2.5     0.15280418      -675.1227105546 -1.18E-01
   314 Pulay/Diag. 0.10E+00    2.6     1.29599383      -675.0318218396  9.09E-02
   315 Pulay/Diag. 0.10E+00    2.8     0.33453160      -676.1327848231 -1.10E+00
   316 Pulay/Diag. 0.10E+00    2.5     0.64086533      -676.0203077571  1.12E-01
   317 Pulay/Diag. 0.10E+00    2.3     0.22321089      -675.5498580736  4.70E-01
   318 Pulay/Diag. 0.10E+00    2.5     0.00074101      -675.2814884978  2.68E-01
   319 Pulay/Diag. 0.10E+00    2.6     0.00078709      -675.2832973888 -1.81E-03
[...]
   332 Pulay/Diag. 0.10E+00    1.4     0.39632164      -675.3003046086  2.95E-02
   333 Pulay/Diag. 0.10E+00    1.4     0.39925179      -675.7652068185 -4.65E-01
   334 Pulay/Diag. 0.10E+00    1.4     0.00562225      -675.2947659957  4.70E-01
   335 Pulay/Diag. 0.10E+00    1.4     0.16113382      -675.2905232701  4.24E-03
   336 Pulay/Diag. 0.10E+00    1.4     0.15919585      -675.1925310305  9.80E-02
   337 Pulay/Diag. 0.10E+00    1.4     0.00115850      -675.2896598905 -9.71E-02
   338 Pulay/Diag. 0.10E+00    1.8     0.00070406      -675.2935358897 -3.88E-03
   339 Pulay/Diag. 0.10E+00    1.4     0.00212904      -675.2942623146 -7.26E-04
   340 Pulay/Diag. 0.10E+00    1.4     0.00112141      -675.2925938222  1.67E-03
   341 Pulay/Diag. 0.10E+00    1.4     1.27915750      -675.3008351753 -8.24E-03
   342 Pulay/Diag. 0.10E+00    1.4     0.19675281      -676.4359683817 -1.14E+00
   343 Pulay/Diag. 0.10E+00    1.4     0.12305060      -676.2654768253  1.70E-01
   344 Pulay/Diag. 0.10E+00    1.4     0.06087823      -676.2277287744  3.77E-02
   345 Pulay/Diag. 0.10E+00    1.4     0.06052865      -676.2559582982 -2.82E-02
   346 Pulay/Diag. 0.10E+00    1.4     0.27286248      -676.2333120826  2.26E-02
   347 Pulay/Diag. 0.10E+00    1.4     0.24629737      -676.0670228236  1.66E-01
   348 Pulay/Diag. 0.10E+00    1.7     0.18939056      -675.8929413052  1.74E-01
   349 Pulay/Diag. 0.10E+00    2.1     0.49974423      -675.7468105633  1.46E-01
   350 Pulay/Diag. 0.10E+00    2.0     0.01485139      -675.1562001173  5.91E-01
   351 Pulay/Diag. 0.10E+00    2.5     0.00327595      -675.1516101064  4.59E-03
   352 Pulay/Diag. 0.10E+00    2.5     0.00498166      -675.1414742119  1.01E-02
   353 Pulay/Diag. 0.10E+00    2.4     0.00689800      -675.1452987583 -3.82E-03
   354 Pulay/Diag. 0.10E+00    2.5     0.15902027      -675.1544951437 -9.20E-03
   355 Pulay/Diag. 0.10E+00    2.4     0.00287424      -675.2601906028 -1.06E-01
   356 Pulay/Diag. 0.10E+00    2.4     0.00434413      -675.2758104795 -1.56E-02
   357 Pulay/Diag. 0.10E+00    2.4     0.82987883      -675.3043013941 -2.85E-02
   358 Pulay/Diag. 0.10E+00    2.3     0.83018583      -676.1343856591 -8.30E-01
   359 Pulay/Diag. 0.10E+00    2.4     0.00158920      -675.2899303935  8.44E-01
   360 Pulay/Diag. 0.10E+00    2.2     0.39645746      -675.2988060857 -8.88E-03
   361 Pulay/Diag. 0.10E+00    2.5     0.39606267      -675.7618044923 -4.63E-01
   362 Pulay/Diag. 0.10E+00    2.3     0.39801824      -675.2992166585  4.63E-01
   363 Pulay/Diag. 0.10E+00    2.4     0.00084998      -675.7695592053 -4.70E-01
   364 Pulay/Diag. 0.10E+00    2.6     0.00055824      -675.7711212200 -1.56E-03
   365 Pulay/Diag. 0.10E+00    2.4     0.00050736      -675.7713498423 -2.29E-04
   366 Pulay/Diag. 0.10E+00    2.4     0.00052051      -675.7716962235 -3.46E-04
   367 Pulay/Diag. 0.10E+00    2.6     0.00056802      -675.7704472651  1.25E-03
   368 Pulay/Diag. 0.10E+00    2.3     0.00027134      -675.7698145514  6.33E-04
   369 Pulay/Diag. 0.10E+00    2.6     0.00066476      -675.7725025071 -2.69E-03
   370 Pulay/Diag. 0.10E+00    2.5     8.82028550      -675.6914554548  8.10E-02
   371 Pulay/Diag. 0.10E+00    2.3     1.81696522      -674.0645835230  1.63E+00
   372 Pulay/Diag. 0.10E+00    2.5     4.10916455      -674.5155752460 -4.51E-01
   373 Pulay/Diag. 0.10E+00    2.4     1.11109742      -675.0717015868 -5.56E-01
   374 Pulay/Diag. 0.10E+00    2.4     0.36835705      -675.1341715407 -6.25E-02
   375 Pulay/Diag. 0.10E+00    2.5     3.38356209      -675.1359684110 -1.80E-03
   376 Pulay/Diag. 0.10E+00    2.3     0.27017986      -674.6527979763  4.83E-01
   377 Pulay/Diag. 0.10E+00    2.6     0.02526208      -674.8578118946 -2.05E-01
   378 Pulay/Diag. 0.10E+00    2.2     6.78538490      -675.1551520715 -2.97E-01
   379 Pulay/Diag. 0.10E+00    1.4     4.63596323      -677.3336372959 -2.18E+00
   380 Pulay/Diag. 0.10E+00    1.4     1.10501516      -677.0301194238  3.04E-01
   381 Pulay/Diag. 0.10E+00    1.8     1.17167805      -676.4093320273  6.21E-01
   382 Pulay/Diag. 0.10E+00    1.4     0.01435253      -675.1653746187  1.24E+00
   383 Pulay/Diag. 0.10E+00    1.4     0.02425624      -675.1705781859 -5.20E-03
   384 Pulay/Diag. 0.10E+00    1.4     0.00622507      -675.0586772878  1.12E-01
   385 Pulay/Diag. 0.10E+00    1.4     0.13737830      -675.0599125638 -1.24E-03
   386 Pulay/Diag. 0.10E+00    1.4     0.00127107      -675.2226854467 -1.63E-01
   387 Pulay/Diag. 0.10E+00    1.4     0.01754767      -675.2378814327 -1.52E-02
   388 Pulay/Diag. 0.10E+00    1.4     0.02078885      -675.2310398054  6.84E-03
   389 Pulay/Diag. 0.10E+00    1.4     8.23750008      -675.1860205251  4.50E-02
   390 Pulay/Diag. 0.10E+00    1.4     8.20603694      -676.6849579731 -1.50E+00
   391 Pulay/Diag. 0.10E+00    1.8     0.26411830      -676.1592572736  5.26E-01
   392 Pulay/Diag. 0.10E+00    1.4     0.79533405      -676.0442636400  1.15E-01
   393 Pulay/Diag. 0.10E+00    1.4     0.25291353      -675.3188600717  7.25E-01
   394 Pulay/Diag. 0.10E+00    1.4     0.57921834      -674.9906612794  3.28E-01
   395 Pulay/Diag. 0.10E+00    1.4     0.00478786      -675.7676592936 -7.77E-01
   396 Pulay/Diag. 0.10E+00    1.4     0.55151679      -675.7773575118 -9.70E-03
   397 Pulay/Diag. 0.10E+00    1.4     0.14730461      -675.0575795476  7.20E-01
   398 Pulay/Diag. 0.10E+00    1.4     0.87382055      -675.2290602240 -1.71E-01
   399 Pulay/Diag. 0.10E+00    1.4     0.80831115      -676.0467848370 -8.18E-01
   400 Pulay/Diag. 0.10E+00    1.4     0.16957433      -675.3075624859  7.39E-01
   401 Pulay/Diag. 0.10E+00    1.4     0.00248772      -675.1909508536  1.17E-01
   402 Pulay/Diag. 0.10E+00    1.7     0.00372632      -675.1814913989  9.46E-03
   403 Pulay/Diag. 0.10E+00    1.4     0.09756153      -675.1673478798  1.41E-02
   404 Pulay/Diag. 0.10E+00    1.4     0.42103173      -675.2983780701 -1.31E-01
   405 Pulay/Diag. 0.10E+00    1.4     0.56007550      -675.7212635640 -4.23E-01
   406 Pulay/Diag. 0.10E+00    1.4     0.55899275      -674.9709181611  7.50E-01
   407 Pulay/Diag. 0.10E+00    1.4     0.41317674      -675.7425477302 -7.72E-01
   408 Pulay/Diag. 0.10E+00    1.4     0.09144454      -675.2929234520  4.50E-01
   409 Pulay/Diag. 0.10E+00    1.4     0.00155889      -675.1411271789  1.52E-01
   410 Pulay/Diag. 0.10E+00    1.4     0.13420761      -675.1458133645 -4.69E-03
   411 Pulay/Diag. 0.10E+00    1.4     0.13880500      -674.9995223346  1.46E-01
   412 Pulay/Diag. 0.10E+00    1.8     0.00136340      -675.1629534932 -1.63E-01
   413 Pulay/Diag. 0.10E+00    1.4     0.00125283      -675.1634774479 -5.24E-04
   414 Pulay/Diag. 0.10E+00    1.4     0.16115126      -675.1613943078  2.08E-03
   415 Pulay/Diag. 0.10E+00    1.6     1.75762341      -675.3066751211 -1.45E-01
   416 Pulay/Diag. 0.10E+00    2.4     0.65492910      -676.6940399115 -1.39E+00
   417 Pulay/Diag. 0.10E+00    2.3     0.27060707      -676.2795290153  4.15E-01
   418 Pulay/Diag. 0.10E+00    2.3     0.42920513      -676.0486701676  2.31E-01
   419 Pulay/Diag. 0.10E+00    2.3     0.54172706      -675.7451413462  3.04E-01
   420 Pulay/Diag. 0.10E+00    2.7     0.17193979      -675.0002926602  7.45E-01
   421 Pulay/Diag. 0.10E+00    2.6     0.16004651      -675.2837806492 -2.83E-01
   422 Pulay/Diag. 0.10E+00    2.5     0.00190075      -675.1842254334  9.96E-02
   423 Pulay/Diag. 0.10E+00    2.6     0.00596209      -675.1812048302  3.02E-03
   424 Pulay/Diag. 0.10E+00    2.5     0.00787776      -675.1934588505 -1.23E-02
   425 Pulay/Diag. 0.10E+00    2.7     0.15764094      -675.1754994100  1.80E-02
   426 Pulay/Diag. 0.10E+00    2.4     0.15836367      -675.2909002787 -1.15E-01
   427 Pulay/Diag. 0.10E+00    2.5     1.14786551      -675.1925865080  9.83E-02
   428 Pulay/Diag. 0.10E+00    2.3     0.26944421      -676.2629212276 -1.07E+00
   429 Pulay/Diag. 0.10E+00    2.0     0.00118930      -676.0577961408  2.05E-01
   430 Pulay/Diag. 0.10E+00    1.4     0.80558219      -676.0560476132  1.75E-03
   431 Pulay/Diag. 0.10E+00    1.4     0.00326552      -675.3037223509  7.52E-01
   432 Pulay/Diag. 0.10E+00    1.4     0.09328407      -675.3166375406 -1.29E-02
   433 Pulay/Diag. 0.10E+00    1.7     0.08997045      -675.1969255605  1.20E-01
   434 Pulay/Diag. 0.10E+00    1.5     0.13801436      -675.2987864383 -1.02E-01
   435 Pulay/Diag. 0.10E+00    1.4     0.00241926      -674.9848738394  3.14E-01
   436 Pulay/Diag. 0.10E+00    1.4     0.13937512      -674.9894355520 -4.56E-03
   437 Pulay/Diag. 0.10E+00    1.4     0.08973282      -675.1433961436 -1.54E-01
   438 Pulay/Diag. 0.10E+00    1.4     0.15020161      -675.2464505710 -1.03E-01
   439 Pulay/Diag. 0.10E+00    1.4     0.01295361      -674.9800399176  2.66E-01
   440 Pulay/Diag. 0.10E+00    1.4     0.01001270      -675.0075275674 -2.75E-02
   441 Pulay/Diag. 0.10E+00    1.4     0.15990917      -675.0243300195 -1.68E-02
   442 Pulay/Diag. 0.10E+00    1.4     0.41702339      -675.2859733526 -2.62E-01
   443 Pulay/Diag. 0.10E+00    1.4     0.42708767      -675.7267028562 -4.41E-01
   444 Pulay/Diag. 0.10E+00    1.8     0.17739636      -675.3146898483  4.12E-01
   445 Pulay/Diag. 0.10E+00    1.4     0.00382699      -675.1763103306  1.38E-01
   446 Pulay/Diag. 0.10E+00    1.4     0.00223067      -675.1787903764 -2.48E-03
   447 Pulay/Diag. 0.10E+00    1.4     0.00170222      -675.1740398820  4.75E-03
   448 Pulay/Diag. 0.10E+00    1.4     0.00241948      -675.1761559431 -2.12E-03
   449 Pulay/Diag. 0.10E+00    1.4     0.09285479      -675.1791721054 -3.02E-03
   450 Pulay/Diag. 0.10E+00    1.4     0.17603309      -675.3148474830 -1.36E-01
   451 Pulay/Diag. 0.10E+00    1.4     0.43796746      -675.2873385724  2.75E-02
   452 Pulay/Diag. 0.10E+00    1.4     0.43500727      -675.7257787572 -4.38E-01
   453 Pulay/Diag. 0.10E+00    1.4     0.00142791      -675.2914753715  4.34E-01
   454 Pulay/Diag. 0.10E+00    1.8     0.00060075      -675.2943015042 -2.83E-03
   455 Pulay/Diag. 0.10E+00    1.4     0.00218422      -675.2950755490 -7.74E-04
   456 Pulay/Diag. 0.10E+00    1.4     0.40544463      -675.2922725213  2.80E-03
   457 Pulay/Diag. 0.10E+00    1.4     0.00251049      -675.7220523921 -4.30E-01
   458 Pulay/Diag. 0.10E+00    1.4     0.71252420      -675.7318378003 -9.79E-03
   459 Pulay/Diag. 0.10E+00    1.4     0.00284213      -676.2675968602 -5.36E-01
   460 Pulay/Diag. 0.10E+00    1.4     0.15170861      -676.2651415023  2.46E-03
   461 Pulay/Diag. 0.10E+00    1.4     0.01013520      -676.2300438562  3.51E-02
   462 Pulay/Diag. 0.10E+00    1.4     0.70968546      -676.2221264021  7.92E-03
   463 Pulay/Diag. 0.10E+00    1.4     0.00631495      -675.7539988398  4.68E-01
   464 Pulay/Diag. 0.10E+00    1.4     0.77045822      -675.7707046236 -1.67E-02
   465 Pulay/Diag. 0.10E+00    1.7     0.27639319      -676.3111268990 -5.40E-01
   466 Pulay/Diag. 0.10E+00    1.4     0.44890277      -676.0956749383  2.15E-01
   467 Pulay/Diag. 0.10E+00    1.4     0.40376411      -675.7818338237  3.14E-01
   468 Pulay/Diag. 0.10E+00    1.4     0.37543553      -675.3225439247  4.59E-01
   469 Pulay/Diag. 0.10E+00    1.4     0.39696094      -675.7635469333 -4.41E-01
   470 Pulay/Diag. 0.10E+00    1.4     0.00508940      -675.3084776384  4.55E-01
   471 Pulay/Diag. 0.10E+00    1.4     0.39318455      -675.3110605688 -2.58E-03
   472 Pulay/Diag. 0.10E+00    1.4     0.39095676      -675.7583352717 -4.47E-01
   473 Pulay/Diag. 0.10E+00    1.4     0.00220702      -675.3085727388  4.50E-01
   474 Pulay/Diag. 0.10E+00    1.8     0.81887625      -675.3110898786 -2.52E-03
   475 Pulay/Diag. 0.10E+00    2.2     0.69850257      -676.0760415850 -7.65E-01
   476 Pulay/Diag. 0.10E+00    2.3     0.14679079      -675.4738670091  6.02E-01
   477 Pulay/Diag. 0.10E+00    2.5     0.13805338      -675.4968430498 -2.30E-02
   478 Pulay/Diag. 0.10E+00    2.3     0.00178914      -675.3084814559  1.88E-01
   479 Pulay/Diag. 0.10E+00    2.4     0.37641894      -675.3093957669 -9.14E-04
   480 Pulay/Diag. 0.10E+00    2.6     0.37750307      -675.7405777029 -4.31E-01
   481 Pulay/Diag. 0.10E+00    2.6     0.00079739      -675.3078226529  4.33E-01
   482 Pulay/Diag. 0.10E+00    2.4     0.00170280      -675.3082145008 -3.92E-04
   483 Pulay/Diag. 0.10E+00    2.4     0.81579181      -675.3112987869 -3.08E-03
   484 Pulay/Diag. 0.10E+00    2.4     0.42562842      -676.0743150742 -7.63E-01
   485 Pulay/Diag. 0.10E+00    2.5     0.00077684      -675.7671437638  3.07E-01
   486 Pulay/Diag. 0.10E+00    2.3     0.00093777      -675.7674726171 -3.29E-04
   487 Pulay/Diag. 0.10E+00    3.0     0.27590143      -675.7671326619  3.40E-04
   488 Pulay/Diag. 0.10E+00    2.4     0.11968183      -675.4731068692  2.94E-01
   489 Pulay/Diag. 0.10E+00    2.3     0.00062306      -675.3083698645  1.65E-01
   490 Pulay/Diag. 0.10E+00    1.5     0.00028219      -675.3083505818  1.93E-05
   491 Pulay/Diag. 0.10E+00    1.4     0.39476334      -675.3088532974 -5.03E-04
   492 Pulay/Diag. 0.10E+00    1.4     0.00785412      -675.7675853187 -4.59E-01
   493 Pulay/Diag. 0.10E+00    1.4     0.00051825      -675.7725843662 -5.00E-03
   494 Pulay/Diag. 0.10E+00    1.4     0.00065955      -675.7723775680  2.07E-04
   495 Pulay/Diag. 0.10E+00    1.4     0.00331780      -675.7722989328  7.86E-05
   496 Pulay/Diag. 0.10E+00    1.7     0.41937931      -675.7736993921 -1.40E-03
   497 Pulay/Diag. 0.10E+00    1.4     0.42460938      -676.0704829449 -2.97E-01
   498 Pulay/Diag. 0.10E+00    1.4     0.39438527      -675.7636145019  3.07E-01
   499 Pulay/Diag. 0.10E+00    1.4     0.00072848      -675.3074070795  4.56E-01
   500 Pulay/Diag. 0.10E+00    1.4     0.00213687      -675.3082270820 -8.20E-04

  Leaving inner SCF loop after reaching   500 steps.


  Electronic density on regular grids:       -143.9999999977        0.0000000023
  Core density on regular grids:              143.9999999999       -0.0000000001
  Total charge density on r-space grids:        0.0000000022
  Total charge density g-space grids:           0.0000000022

  Overlap energy of the core charge distribution:               0.00000007287664
  Self energy of the core charge distribution:               -977.15629455119449
  Core Hamiltonian energy:                                    293.05137630744468
  Hartree energy:                                             110.14154653314772
  Exchange-correlation energy:                               -101.25912121348209
  Dispersion energy:                                           -0.08573423075083

  Total energy:                                              -675.30822708195842

 *** WARNING in qs_scf.F:542 :: SCF run NOT converged ***


 ENERGY| Total FORCE_EVAL ( QS ) energy (a.u.):             -675.328836971545456


 --------  Informations at step =     1 ------------
  Optimization Method        =                 BFGS
  Total Energy               =      -675.3288369715
  Internal Pressure [bar]    =    -11793.7173832917
  Real energy change         =        -0.0716475784
  Predicted change in energy =        -0.0232274432
  Scaling factor             =         0.0000000000
  Step size                  =         0.1166518933
  Trust radius               =         0.4724315332
  Decrease in energy         =                  YES
  Used time                  =              899.906

  Convergence check :
  Max. step size             =         0.1166518933
  Conv. limit for step size  =         0.0030000000
  Convergence in step size   =                   NO
  RMS step size              =         0.0293304564
  Conv. limit for RMS step   =         0.0015000000
  Convergence in RMS step    =                   NO
  Max. gradient              =         0.0625477754
  Conv. limit for gradients  =         0.0004500000
  Conv. for gradients        =                   NO
  RMS gradient               =         0.0145679197
  Conv. limit for RMS grad.  =         0.0003000000
  Conv. for gradients        =                   NO
  Pressure Deviation [bar]   =    -11794.7173832917
  Pressure Tolerance [bar]   =       100.0000000000
  Conv. for  PRESSURE        =                   NO
 ---------------------------------------------------

 --------------------------
 OPTIMIZATION STEP:      2
 --------------------------

 CELL| Volume [angstrom^3]:                                              343.033
 CELL| Vector a [angstrom]:       3.147     0.000     0.000    |a| =       3.147
 CELL| Vector b [angstrom]:      -1.573     2.725     0.000    |b| =       3.147
 CELL| Vector c [angstrom]:       0.000     0.000    40.000    |c| =      40.000
 CELL| Angle (b,c), alpha [degree]:                                       90.000
 CELL| Angle (a,c), beta  [degree]:                                       90.000
 CELL| Angle (a,b), gamma [degree]:                                      120.000
 CELL| Numerically orthorhombic:                                              NO

 Number of electrons:                                                        144
 Number of occupied orbitals:                                                 72
 Number of molecular orbitals:                                               304

 Number of orbital functions:                                                304
 Number of independent orbital functions:                                    304

 Extrapolation method: initial_guess


 SCF WAVEFUNCTION OPTIMIZATION

  Step     Update method      Time    Convergence         Total energy    Change
  ------------------------------------------------------------------------------
     1 Pulay/Diag. 0.10E+00    1.2     2.02334361      -676.6027302231 -6.77E+02
     2 Pulay/Diag. 0.10E+00    1.4     0.06584224      -663.3182595209  1.33E+01
     3 Pulay/Diag. 0.10E+00    1.4     8.24707158      -667.7602291877 -4.44E+00
     4 Pulay/Diag. 0.10E+00    1.9     7.90443289      -676.5833871294 -8.82E+00
     5 Pulay/Diag. 0.10E+00    1.4     0.27916469      -676.7005236265 -1.17E-01
     6 Pulay/Diag. 0.10E+00    1.4     1.24543341      -676.3639220808  3.37E-01
     7 Pulay/Diag. 0.10E+00    1.4     0.37323892      -674.6995266358  1.66E+00
     8 Pulay/Diag. 0.10E+00    1.4     0.15138814      -674.9098775584 -2.10E-01
     9 Pulay/Diag. 0.10E+00    1.4     0.01140606      -674.9353477978 -2.55E-02
    10 Pulay/Diag. 0.10E+00    1.4     0.30511445      -674.9105533526  2.48E-02
    11 Pulay/Diag. 0.10E+00    1.4     0.67405061      -674.5657872966  3.45E-01
    12 Pulay/Diag. 0.10E+00    1.4     0.78383854      -675.0066026877 -4.41E-01
    13 Pulay/Diag. 0.10E+00    2.0     0.03374726      -674.8503504959  1.56E-01
    14 Pulay/Diag. 0.10E+00    2.7     0.18514490      -675.1028174707 -2.52E-01
    15 Pulay/Diag. 0.10E+00    2.4     1.06507981      -675.7754342260 -6.73E-01
    16 Pulay/Diag. 0.10E+00    2.9     1.07500606      -676.5358668814 -7.60E-01
    17 Pulay/Diag. 0.10E+00    2.8     0.15372341      -675.2847101458  1.25E+00
    18 Pulay/Diag. 0.10E+00    2.7     0.17054302      -675.4909691601 -2.06E-01
    19 Pulay/Diag. 0.10E+00    2.4     0.15524940      -675.3548581730  1.36E-01
    20 Pulay/Diag. 0.10E+00    2.9     0.39300054      -675.4167732093 -6.19E-02
    21 Pulay/Diag. 0.10E+00    2.6     0.41754512      -675.7450133128 -3.28E-01
    22 Pulay/Diag. 0.10E+00    2.5     0.41853769      -675.3135818180  4.31E-01
    23 Pulay/Diag. 0.10E+00    2.6     0.41397209      -675.7444329168 -4.31E-01
    24 Pulay/Diag. 0.10E+00    2.6     0.01187682      -675.3334967524  4.11E-01
    25 Pulay/Diag. 0.10E+00    2.5     0.19287488      -675.3106573405  2.28E-02
    26 Pulay/Diag. 0.10E+00    2.7     0.15014739      -675.0259034631  2.85E-01
    27 Pulay/Diag. 0.10E+00    2.7     0.00365717      -675.1991115445 -1.73E-01
    28 Pulay/Diag. 0.10E+00    2.6     0.00260095      -675.1868705601  1.22E-02
    29 Pulay/Diag. 0.10E+00    2.4     0.16218539      -675.1917287498 -4.86E-03
    30 Pulay/Diag. 0.10E+00    2.6     0.16077889      -675.3015982308 -1.10E-01
