      16
 i =        1, E =      -675.3288369715
 Ga         0.0000264247       -0.0000468868        0.0617295233
  N         0.0003292196        1.8185422517        0.6030600665
 Ga        -0.0001903493        1.8188504797        2.6169468608
  N         0.0000347869       -0.0000196951        3.2112438420
 Ga        -0.0000785061        0.0000476148        5.1981639281
  N        -0.0000691458        1.8187621594        5.8050304268
 Ga        -0.0000446287        1.8187473447        7.7901343052
  N         0.0000259150       -0.0000146916        8.4005383400
 Ga         0.0001454339       -0.0000839691       10.3801925247
  N        -0.0000616921        1.8187584717       10.9956192397
 Ga        -0.0002051214        1.8188444845       12.9705028430
  N         0.0000893155       -0.0000448702       13.5897482058
 Ga         0.0002965433       -0.0001830722       15.5559333798
  N        -0.0000352835        1.8187456355       16.1882699134
 Ga         0.0011759054        1.8179491124       18.1788810688
  N        -0.0012934984        0.0008359679       18.8157931356
