     200
 i =        1, E =     -8455.9316329041
  N         0.0078265867        1.9308983824        2.6050923685
 Ga         0.0040832104        0.0128813345        3.1464480866
  N         0.0043358735        0.0160167940        5.1462384032
 Ga         0.0087607313        1.8830031174        5.8135108703
  N         0.0071355841        1.8867655544        7.7833054292
 Ga         0.0044322303        0.0149965742        8.3982390592
  N         0.0043777546        0.0166125210       10.3789257347
 Ga         0.0084363628        1.8906593840       10.9952051855
  N         0.0082164032        1.8877059120       12.9672327839
 Ga         0.0043424957        0.0142115974       13.5942613984
  N         0.0070211821        0.0070603305       15.6159502318
 Ga         0.0020166674        1.9394506647       16.1839720940
 Ga        -0.0170842372        3.7653015230        1.8003782685
  N        -1.5756991414        4.6650494330        2.6096158488
 Ga        -1.6599108417        2.7870786797        3.2331564626
  N        -1.6084497079        2.8207589461        5.2089947296
 Ga        -1.6182835093        4.6926355949        5.8134511550
  N        -1.6159110731        4.6897583964        7.7844241778
 Ga        -1.6163435400        2.8163732688        8.3957941340
  N        -1.6116632094        2.8191967172       10.3709404042
 Ga        -1.6129106021        4.6893535076       10.9943348882
  N        -1.6130243608        4.6902968804       12.9671507010
 Ga        -1.6226204398        2.8135349370       13.5540833781
  N        -1.6459584086        2.7992050406       15.5108420821
 Ga        -1.5576032689        4.6560280597       16.1750919850
  N        -0.0109229666        3.7602046263       17.1083024220
  N        -3.2368268372        7.5397209417        2.6050931741
 Ga        -3.2402263636        5.6210098146        3.1519392939
  N        -3.2360876990        5.6222239916        5.1474090878
 Ga        -3.2353635803        7.4896880122        5.8114036078
  N        -3.2367382238        7.4921684096        7.7821343636
 Ga        -3.2378088065        5.6219486230        8.4006848840
  N        -3.2350999049        5.6226263627       10.3765869298
 Ga        -3.2352976036        7.4949096848       10.9937868957
  N        -3.2357245057        7.4947427557       12.9663064774
 Ga        -3.2384749090        5.6213347681       13.5896229788
  N        -3.2362663303        5.6168894960       15.6068648518
 Ga        -3.2413486633        7.5531679071       16.1821651525
 Ga        -3.2611588424        9.3787799033        1.8014405738
  N        -4.8227769218       10.2748921627        2.6081334995
 Ga        -4.9039278685        8.3970466040        3.2333341238
  N        -4.8527788958        8.4277201288        5.2083203911
 Ga        -4.8650197661       10.3007226550        5.8095754169
  N        -4.8553995143       10.2959969393        7.7865522459
 Ga        -4.8604679516        8.4205559780        8.3979007160
  N        -4.8554038299        8.4242463506       10.3724719300
 Ga        -4.8564542147       10.2955533469       10.9914493981
  N        -4.8571136463       10.2951001724       12.9688193406
 Ga        -4.8674343748        8.4169832531       13.5564541998
  N        -4.8867644159        8.4140276895       15.5114817943
 Ga        -4.8097839885       10.2681681559       16.1780481831
  N        -3.2608824761        9.3788148508       17.1222960600
  N         3.2454048873        1.8842953644        2.5627227047
 Ga         3.2493979210        0.0646478942        3.2314386602
  N         3.2433625249        0.0111291578        5.2088367208
 Ga         3.2455672156        1.8871203586        5.8029957672
  N         3.2462220636        1.8866954029        7.7756502262
 Ga         3.2484617887        0.0179465664        8.3972773380
  N         3.2447867732        0.0155982079       10.3739657127
 Ga         3.2457407048        1.8872122198       10.9866809143
  N         3.2447516346        1.8882882173       12.9448916951
 Ga         3.2475931549        0.0273475534       13.5504285750
  N         3.2443869266        0.0452264695       15.5090183344
 Ga         3.2410951098        1.8837790034       16.1345031685
  N         1.5831216730        4.6638733855        2.6112403472
 Ga         1.6716575766        2.7887070146        3.2344875427
  N         1.6228569675        2.8185090347        5.2052771070
 Ga         1.6265206608        4.6877847977        5.8110765898
  N         1.6252477166        4.6882617026        7.7825565643
 Ga         1.6276781330        2.8167428084        8.3976835177
  N         1.6265340809        2.8174044571       10.3696396568
 Ga         1.6224234496        4.6857882845       10.9935739132
  N         1.6218629211        4.6871798415       12.9670541955
 Ga         1.6356059033        2.8127559836       13.5590738659
  N         1.6495066504        2.7985377840       15.5156345247
 Ga         1.5701832856        4.6594436147       16.1766899110
  N         0.0003429780        7.4953681916        2.5633915330
 Ga         0.0039367195        5.6784387407        3.2361526556
  N         0.0041648791        5.6176228814        5.2073285548
 Ga         0.0012587859        7.4917877014        5.8003615781
  N         0.0017949534        7.4922892599        7.7739963527
 Ga         0.0043612817        5.6239658423        8.3989003497
  N         0.0046433337        5.6213189392       10.3715306837
 Ga         0.0010079039        7.4911026187       10.9857290642
  N         0.0005564388        7.4925153894       12.9442516137
 Ga         0.0043568667        5.6354222184       13.5576491300
  N         0.0033067486        5.6615044580       15.5123229828
 Ga        -0.0026690064        7.4968667512       16.1250564844
  N        -1.6525574549       10.2723540430        2.6055226381
 Ga        -1.5745427331        8.3998944796        3.2348562684
  N        -1.6207014527        8.4245023117        5.2044601170
 Ga        -1.6143615860       10.2938766918        5.8091986907
  N        -1.6142003916       10.2938068609        7.7852890241
 Ga        -1.6167653817        8.4209038758        8.4000669538
  N        -1.6174771142        8.4225710851       10.3709406238
 Ga        -1.6203877942       10.2913517872       10.9905409952
  N        -1.6136803415       10.2902954443       12.9680552790
 Ga        -1.6079524933        8.4155557910       13.5618935725
  N        -1.5960540802        8.4127145646       15.5162850652
 Ga        -1.6701962566       10.2674080683       16.1815598073
  N         6.4862235560        1.9272499570        2.6060533160
 Ga         6.4897277256        0.0119217586        3.1528590373
  N         6.4847422569        0.0133975305        5.1482904510
 Ga         6.4869940497        1.8794473934        5.8114583434
  N         6.4855082291        1.8825540787        7.7809036084
 Ga         6.4881518415        0.0144623712        8.4014912196
  N         6.4835566876        0.0133422069       10.3782444644
 Ga         6.4860341240        1.8855994882       10.9932874857
  N         6.4850685349        1.8854192298       12.9654874635
 Ga         6.4888825873        0.0143581915       13.5935073467
  N         6.4927279328        0.0070943328       15.6120051234
 Ga         6.4838607087        1.9387265636       16.1767676361
 Ga         6.4652936217        3.7619331708        1.8003909603
  N         4.9057579862        4.6613628594        2.6102599715
 Ga         4.8206821835        2.7852160711        3.2366568139
  N         4.8708820651        2.8157410054        5.2072848710
 Ga         4.8610896285        4.6856526216        5.8107560527
  N         4.8627794426        4.6848542100        7.7818177352
 Ga         4.8661644277        2.8140580865        8.3988391542
  N         4.8669711093        2.8142340748       10.3706601984
 Ga         4.8647742034        4.6829124993       10.9926730456
  N         4.8660061025        4.6836491492       12.9662187499
 Ga         4.8560501301        2.8090851812       13.5583886280
  N         4.8331963507        2.7925718833       15.5138274824
 Ga         4.9244787224        4.6494983689       16.1695727006
  N         6.4760013787        3.7602200160       17.1050514379
  N         3.2412779518        7.5362248400        2.6057238233
 Ga         3.2442219659        5.6195687296        3.1576009163
  N         3.2444302709        5.6184182628        5.1494007203
 Ga         3.2422905738        7.4855979694        5.8087723730
  N         3.2414563807        7.4879354643        7.7796577750
 Ga         3.2450561629        5.6199122239        8.4035628337
  N         3.2442760634        5.6182407924       10.3763847223
 Ga         3.2415483233        7.4893503313       10.9918070430
  N         3.2411152381        7.4916793085       12.9648031756
 Ga         3.2449010036        5.6199158941       13.5891453690
  N         3.2485122109        5.6165593271       15.6031664729
 Ga         3.2388072834        7.5513493451       16.1754933332
 Ga         3.2209979343        9.3756743242        1.8008792071
  N         1.6587179727       10.2710260940        2.6089541455
 Ga         1.5763042996        8.3950181438        3.2367355691
  N         1.6260556489        8.4228482996        5.2066639268
 Ga         1.6139741747       10.2937568656        5.8071374344
  N         1.6227385473       10.2911332306        7.7837664798
 Ga         1.6214665302        8.4184155985        8.4008738509
  N         1.6224728301        8.4193808029       10.3720991761
 Ga         1.6205714383       10.2891225310       10.9897712239
  N         1.6226968363       10.2881941468       12.9677459942
 Ga         1.6109758147        8.4120787847       13.5604056055
  N         1.5907924739        8.4064648539       15.5133056697
 Ga         1.6729824777       10.2597702871       16.1738622873
  N         3.2290380483        9.3775786317       17.1179796972
  N         9.7199752170        1.8772518727        2.5533763890
 Ga         9.7308957423        0.0604577683        3.2323418756
  N         9.7227549893        0.0054727450        5.2097827183
 Ga         9.7259216251        1.8837439550        5.8015145798
  N         9.7245471686        1.8820644837        7.7770629366
 Ga         9.7255438737        0.0117458701        8.3992410539
  N         9.7226212598        0.0106181189       10.3761720059
 Ga         9.7275328496        1.8851439948       10.9824669677
  N         9.7228187303        1.8829114700       12.9445437595
 Ga         9.7254752672        0.0211549689       13.5553733453
  N         9.7274547578        0.0408929119       15.5155098912
 Ga         9.7224545909        1.8800853572       16.1403246214
  N         8.0670088016        4.6617814940        2.6104205087
 Ga         8.1508750019        2.7846142274        3.2353318204
  N         8.1009605722        2.8153540890        5.2059582426
 Ga         8.1117794048        4.6871575712        5.8071824435
  N         8.1043218632        4.6837763537        7.7827232694
 Ga         8.1048580969        2.8111038725        8.4000407006
  N         8.1042891147        2.8130679100       10.3714948348
 Ga         8.1051676583        4.6837687223       10.9901804658
  N         8.1011240748        4.6831183083       12.9675663082
 Ga         8.1124941991        2.8069275806       13.5624281312
  N         8.1326550058        2.7964113599       15.5190261589
 Ga         8.0593493660        4.6601355330       16.1718422430
  N         6.4750757646        7.4884036526        2.5543664480
 Ga         6.4855569636        5.6740724448        3.2373228710
  N         6.4838021970        5.6121246644        5.2082327803
 Ga         6.4819953210        7.4885944992        5.7989812725
  N         6.4809337613        7.4874988107        7.7754804398
 Ga         6.4820795698        5.6177553002        8.4012589494
  N         6.4828985525        5.6162728639       10.3736023569
 Ga         6.4836066687        7.4887675036       10.9816460861
  N         6.4789791961        7.4873079181       12.9440861205
 Ga         6.4816015646        5.6291428074       13.5618814613
  N         6.4861284653        5.6572741761       15.5173294509
 Ga         6.4785503185        7.4930115434       16.1336179251
  N         4.8311039252       10.2708483167        2.6056813345
 Ga         4.9044159240        8.3962359849        3.2353931001
  N         4.8574588452        8.4214889994        5.2051170054
 Ga         4.8717084816       10.2948130517        5.8043625644
  N         4.8646852116       10.2903464542        7.7854192385
 Ga         4.8610871135        8.4157488326        8.4020896763
  N         4.8605914202        8.4181800526       10.3730786654
 Ga         4.8631412416       10.2908723011       10.9872396583
  N         4.8660885713       10.2876114970       12.9694387087
 Ga         4.8690417102        8.4105116793       13.5649064130
  N         4.8864449683        8.4107197569       15.5193712959
 Ga         4.8208908446       10.2698410237       16.1778630485
     200
 i =        2, E =     -8456.3132342168
  N         0.0208914050        2.0207247711        2.6045340585
 Ga         0.0103735758        0.0401766838        3.0054070829
  N         0.0114776674        0.0384307685        5.0608733104
 Ga         0.0220786706        1.8949574710        5.8114587513
  N         0.0202930603        1.9004654777        7.7818993722
 Ga         0.0143292036        0.0407528122        8.4026672693
  N         0.0106914060        0.0429766114       10.3847283715
 Ga         0.0219394045        1.9085606334       10.9917029969
  N         0.0197859220        1.8905946286       12.9671740655
 Ga         0.0147142726        0.0363301095       13.6765833342
  N         0.0139608146        0.0302897832       15.7790883630
 Ga         0.0145477253        2.0438273039       16.2236521770
 Ga        -0.0019240681        3.7737675218        1.6430502206
  N        -1.5026571224        4.6367262647        2.6142244621
 Ga        -1.6932895892        2.7673267514        3.2736486877
  N        -1.5967302886        2.8299921169        5.2459461229
 Ga        -1.6087899739        4.7045362569        5.8117072703
  N        -1.6063661320        4.7003703378        7.7832048128
 Ga        -1.5954042836        2.8316734010        8.3895964266
  N        -1.5877133862        2.8351998908       10.3672123946
 Ga        -1.5988641606        4.6987625884       10.9879995385
  N        -1.6132459707        4.7033342831       12.9646128455
 Ga        -1.6158939383        2.8192093184       13.5223323618
  N        -1.6407506839        2.8057517300       15.4667753174
 Ga        -1.4704558093        4.6191216100       16.2174223777
  N         0.0043563673        3.7656662744       17.3583024220
  N        -3.2205961061        7.6081457642        2.6050376332
 Ga        -3.2249206527        5.6219791555        3.0200339236
  N        -3.2180449398        5.6223081735        5.0633740371
 Ga        -3.2185703040        7.4781871869        5.8097763999
  N        -3.2187918138        7.4789366118        7.7814774325
 Ga        -3.2188806514        5.6212030197        8.4076384623
  N        -3.2152502320        5.6230067681       10.3806588024
 Ga        -3.2176100232        7.4868325773       10.9884161779
  N        -3.2198782295        7.4708836867       12.9654456624
 Ga        -3.2223698308        5.6177940114       13.6741585472
  N        -3.2176469228        5.6159635564       15.7595470028
 Ga        -3.2298899410        7.6306923660       16.2272784620
 Ga        -3.2426506759        9.3745716645        1.6451192973
  N        -4.7453911502       10.2237920989        2.6217773237
 Ga        -4.9329141400        8.3537072422        3.2743870627
  N        -4.8374316586        8.4130560778        5.2440095957
 Ga        -4.8534952679       10.2898486444        5.8051246873
  N        -4.8351163233       10.2815350287        7.7879121804
 Ga        -4.8353198242        8.4088975402        8.3910359180
  N        -4.8278232245        8.4140584248       10.3676389250
 Ga        -4.8364099882       10.2798192902       10.9850948316
  N        -4.8460735987       10.2872535761       12.9710979110
 Ga        -4.8549282443        8.4002480845       13.5261681567
  N        -4.8790989415        8.4005833313       15.4714588967
 Ga        -4.7186404281       10.2165724265       16.2132284694
  N        -3.2438900689        9.3608637910       17.3660176708
  N         3.2459020673        1.9008769323        2.5537812626
 Ga         3.2540347661        0.1533267553        3.2641245985
  N         3.2381244229        0.0388596031        5.2422843162
 Ga         3.2460828118        1.9032185868        5.8313998976
  N         3.2457031434        1.9051906764        7.7979677376
 Ga         3.2489376553        0.0402890801        8.3900108354
  N         3.2421555984        0.0339459464       10.3706384481
 Ga         3.2465325098        1.9062784759       10.9500972865
  N         3.2431754342        1.9074167124       12.8921546560
 Ga         3.2487794710        0.0636939959       13.5189451130
  N         3.2404133900        0.0943667762       15.4641314540
 Ga         3.2442823582        1.9027517465       15.9766628299
  N         1.5243815106        4.6354541485        2.6194076745
 Ga         1.7353365506        2.7659489151        3.2720061411
  N         1.6337916496        2.8273351581        5.2394642974
 Ga         1.6344584662        4.6962427985        5.8095619834
  N         1.6325062662        4.6963241793        7.7820889132
 Ga         1.6311770544        2.8309650224        8.3935454588
  N         1.6270166595        2.8320215339       10.3642195147
 Ga         1.6271839712        4.6916721589       10.9855553530
  N         1.6379130530        4.6986909780       12.9631352443
 Ga         1.6488794438        2.8190076363       13.5319322252
  N         1.6774982230        2.7946048683       15.4738778451
 Ga         1.4970113365        4.6211290016       16.2084403094
  N         0.0044651580        7.4880882535        2.5589316697
 Ga         0.0097576741        5.7439894449        3.2776961094
  N         0.0119719142        5.6241015936        5.2420188742
 Ga         0.0058719305        7.4839824940        5.8305647148
  N         0.0052528216        7.4841876430        7.7971695654
 Ga         0.0120345701        5.6206471360        8.3939798919
  N         0.0131406669        5.6151274401       10.3649490780
 Ga         0.0052321383        7.4829917704       10.9505142752
  N         0.0029285517        7.4859209842       12.8965943749
 Ga         0.0112829567        5.6432875364       13.5277762562
  N         0.0060551563        5.6828571255       15.4670686097
 Ga         0.0030293734        7.4897309211       15.9674713191
  N        -1.6988100415       10.2139213169        2.6104897920
 Ga        -1.5097717803        8.3531221720        3.2738729614
  N        -1.6049243684        8.4079613278        5.2380831667
 Ga        -1.5979868331       10.2765688688        5.8073388191
  N        -1.5948507265       10.2761214671        7.7885449616
 Ga        -1.6089892204        8.4080234839        8.3956551285
  N        -1.6122296891        8.4111016067       10.3644032434
 Ga        -1.6068719409       10.2714192198       10.9825486703
  N        -1.5862825225       10.2794996207       12.9686443313
 Ga        -1.5932606103        8.3997085243       13.5368694806
  N        -1.5697576454        8.3870237696       15.4814401913
 Ga        -1.7390339157       10.2062882628       16.2225830358
  N         6.4742509303        2.0120071348        2.6070479612
 Ga         6.4794842757        0.0368079877        3.0221178739
  N         6.4744068968        0.0318000670        5.0644400442
 Ga         6.4777756126        1.8855604644        5.8092926202
  N         6.4746673918        1.8898017246        7.7802131631
 Ga         6.4776806372        0.0354449220        8.4091227721
  N         6.4702515935        0.0343965597       10.3820760266
 Ga         6.4761371424        1.8964624148       10.9890195218
  N         6.4739035510        1.8825491193       12.9644513006
 Ga         6.4820887110        0.0345770581       13.6776632668
  N         6.4801744815        0.0258870375       15.7653070923
 Ga         6.4742206711        2.0334385443       16.2188377682
 Ga         6.4578307829        3.7635930601        1.6407708769
  N         4.9571254000        4.6264138573        2.6174043681
 Ga         4.7582432702        2.7577587760        3.2772832318
  N         4.8628121586        2.8213308107        5.2423653568
 Ga         4.8492742692        4.6904697831        5.8093403354
  N         4.8482269314        4.6889910739        7.7812585695
 Ga         4.8640266968        2.8241656704        8.3941380219
  N         4.8694597430        2.8253189555       10.3644026705
 Ga         4.8558392699        4.6847519753       10.9859862289
  N         4.8434268775        4.6909401243       12.9629256045
 Ga         4.8423053378        2.8111047940       13.5287796074
  N         4.8138775824        2.7914060680       15.4671351088
 Ga         4.9932837958        4.6055367533       16.2111439242
  N         6.4799746529        3.7583115667       17.3549322436
  N         3.2323387710        7.5998843180        2.6071735498
 Ga         3.2402289354        5.6178620952        3.0347999069
  N         3.2434564446        5.6148908583        5.0668586796
 Ga         3.2366924766        7.4684536625        5.8074034430
  N         3.2347594343        7.4687986918        7.7796039585
 Ga         3.2420060620        5.6146444641        8.4125180096
  N         3.2429234562        5.6136210256       10.3785468178
 Ga         3.2362539497        7.4747046730       10.9853769374
  N         3.2342748451        7.4629842877       12.9629748428
 Ga         3.2428599365        5.6140451156       13.6750616346
  N         3.2469468479        5.6100314519       15.7481045075
 Ga         3.2301569161        7.6186313058       16.2205027949
 Ga         3.2174812635        9.3646560348        1.6408657161
  N         1.7145309216       10.2128832385        2.6244875890
 Ga         1.5187363103        8.3442682587        3.2775831755
  N         1.6212232740        8.4034292626        5.2401288807
 Ga         1.6047827364       10.2744462209        5.8031926761
  N         1.6193154211       10.2696241797        7.7854844269
 Ga         1.6230468493        8.4013069704        8.3952564641
  N         1.6282491723        8.4038941732       10.3645935719
 Ga         1.6179808381       10.2651042862       10.9831310409
  N         1.6107173588       10.2745045769       12.9685549430
 Ga         1.6031280344        8.3924623487       13.5326627083
  N         1.5763203487        8.3860186489       15.4729694723
 Ga         1.7424497225       10.2036969592       16.2075604781
  N         3.2307454248        9.3546214878       17.3619220821
  N         9.6946650582        1.8853010157        2.5409881444
 Ga         9.7124127681        0.1382656235        3.2662708503
  N         9.6968160923        0.0282197213        5.2421756056
 Ga         9.7035729879        1.8942901166        5.8316183865
  N         9.7011896577        1.8946818098        7.8036578108
 Ga         9.7023900452        0.0247165128        8.3922726351
  N         9.6967618265        0.0219372361       10.3721430252
 Ga         9.7056519573        1.8984010531       10.9460715627
  N         9.6986184837        1.8962361172       12.8942297738
 Ga         9.7036535081        0.0498949964       13.5216497190
  N         9.7035670637        0.0813364325       15.4660480704
 Ga         9.6927707546        1.8886094195       15.9942770099
  N         7.9891992146        4.6287187219        2.6229301905
 Ga         8.1877490970        2.7547777702        3.2735580924
  N         8.0908236472        2.8189441765        5.2383945910
 Ga         8.1032235239        4.6944157317        5.8010697720
  N         8.0899643659        4.6869728767        7.7822529685
 Ga         8.0836444400        2.8185141587        8.3967139292
  N         8.0812712268        2.8222410935       10.3658169919
 Ga         8.0878048433        4.6854520295       10.9838274557
  N         8.0973463269        4.6913797292       12.9686375946
 Ga         8.1029390535        2.8068104079       13.5342960691
  N         8.1336889095        2.7904008100       15.4739379108
 Ga         7.9745122512        4.6244121534       16.2022799247
  N         6.4533901095        7.4728453859        2.5455586206
 Ga         6.4686035521        5.7299785679        3.2799034304
  N         6.4701381534        5.6142663727        5.2413543493
 Ga         6.4638929525        7.4758077715        5.8299571468
  N         6.4616331914        7.4741241722        7.8022618346
 Ga         6.4656318258        5.6059975584        8.3968656805
  N         6.4679714621        5.6038713911       10.3661911103
 Ga         6.4657700381        7.4755887991       10.9465353249
  N         6.4595434835        7.4757197585       12.8978310083
 Ga         6.4657371867        5.6315202925       13.5303070199
  N         6.4686137766        5.6715593804       15.4671154527
 Ga         6.4529817301        7.4753860518       15.9846593372
  N         4.7667725636       10.2077707759        2.6165783394
 Ga         4.9430656023        8.3421371779        3.2752606472
  N         4.8518600239        8.3995710780        5.2369907545
 Ga         4.8735928002       10.2764658029        5.7966397538
  N         4.8637148836       10.2676109676        7.7886318295
 Ga         4.8438342344        8.3959071615        8.3983051646
  N         4.8429173954        8.4009676756       10.3658047206
 Ga         4.8558066752       10.2665312349       10.9797318153
  N         4.8755078486       10.2726757642       12.9753693851
 Ga         4.8623123010        8.3871915375       13.5396163380
  N         4.8879005546        8.3824926404       15.4818423296
 Ga         4.7421139664       10.2112213249       16.2119688571
     200
 i =        3, E =     -8456.4036761591
  N         0.0264813702        2.0550988003        2.5740634043
 Ga         0.0156623758        0.0505853739        2.9136687886
  N         0.0172990612        0.0536415006        5.0115555868
 Ga         0.0292344996        1.8959873128        5.7941687735
  N         0.0274624898        1.9025835966        7.7689776098
 Ga         0.0213475981        0.0540543976        8.4032621718
  N         0.0172137184        0.0571808279       10.3750264486
 Ga         0.0290492666        1.9063853605       10.9967033098
  N         0.0253347773        1.8809463193       12.9739351799
 Ga         0.0235354564        0.0471571980       13.7424168570
  N         0.0159918887        0.0487093052       15.8957544854
 Ga         0.0201716843        2.0952574245       16.3285592600
 Ga         0.0104179060        3.7766713026        1.5272920484
  N        -1.4685037787        4.6256704340        2.5836864994
 Ga        -1.6943694072        2.7675978891        3.3024192921
  N        -1.5915555670        2.8330146726        5.2670802566
 Ga        -1.6081216622        4.7104345099        5.7942018177
  N        -1.6004651792        4.7044804372        7.7694635804
 Ga        -1.5758033315        2.8429638120        8.3867979882
  N        -1.5676575784        2.8471108625       10.3658230828
 Ga        -1.5972956897        4.7058879962       10.9925036342
  N        -1.6197166101        4.7127608467       12.9687685950
 Ga        -1.6006922114        2.8290087472       13.4914238863
  N        -1.6188004323        2.8185150005       15.4344270405
 Ga        -1.4286994112        4.6012558836       16.3217076279
  N         0.0226178784        3.7686230550       17.4441206548
  N        -3.2105747800        7.6310155764        2.5756783150
 Ga        -3.2115127644        5.6200936606        2.9303262645
  N        -3.2018253505        5.6231044678        5.0117492514
 Ga        -3.2064560556        7.4630926670        5.7941457735
  N        -3.2062744258        7.4682758694        7.7699658578
 Ga        -3.2036843971        5.6200707807        8.4060344766
  N        -3.1992685078        5.6230715655       10.3703212722
 Ga        -3.2055837097        7.4711396419       10.9947257493
  N        -3.2097946198        7.4492195219       12.9723220341
 Ga        -3.2075927987        5.6177622474       13.7421998043
  N        -3.2058407761        5.6166639790       15.8731614666
 Ga        -3.2197715215        7.6677718973       16.3253680086
 Ga        -3.2255344734        9.3630437909        1.5269961250
  N        -4.6999209416       10.1997712830        2.5947803866
 Ga        -4.9308210400        8.3376119676        3.3033052436
  N        -4.8261218730        8.4021200041        5.2670007631
 Ga        -4.8406510583       10.2826801131        5.7883509202
  N        -4.8201176299       10.2732277066        7.7730169144
 Ga        -4.8105112984        8.4089445828        8.3874182147
  N        -4.8025105033        8.4120761992       10.3661300460
 Ga        -4.8245209091       10.2731650559       10.9894070554
  N        -4.8383564494       10.2834109393       12.9739049976
 Ga        -4.8354234152        8.3974010279       13.4958206885
  N        -4.8550684650        8.3983462389       15.4413039862
 Ga        -4.6725606888       10.1867813463       16.3018983779
  N        -3.2266999102        9.3478560662       17.4790195310
  N         3.2455016735        1.9110354864        2.5801424281
 Ga         3.2528825149        0.1848204185        3.2971550881
  N         3.2360013982        0.0630251039        5.2675086416
 Ga         3.2449397459        1.9118356792        5.8692563208
  N         3.2445842772        1.9119477144        7.8274148747
 Ga         3.2448828507        0.0439640365        8.3866610099
  N         3.2391272607        0.0377265252       10.3673290079