     156
 i =        1, E =     -6136.5398179872
 Ga        -0.0032033361       -0.0157100845       -0.5332242305
  N        -0.0002877334        1.8586217419        0.6061944687
 Ga        -0.0003451551        1.8278114522        2.6379307676
  N        -0.0034275382       -0.0156279743        3.2694475531
 Ga        -0.0022033596       -0.0150561868        5.2602459111
  N         0.0008083638        1.8595612058        5.8482738896
 Ga         0.0022056492        1.8581529302        7.8481598494
  N         0.0007887322       -0.0150904000        8.4504112201
 Ga         0.0039345059       -0.0152137997       10.4496708884
  N         0.0041291938        1.8599282535       11.0446919754
 Ga         0.0092801010        1.8630572836       13.0367173659
  N         0.0159834254       -0.0104732681       13.6277292278
 Ga         0.0284312401       -0.0064489221       15.6178141615
  N         0.0123058936        1.8567039584       16.2256140305
 Ga         0.0443512988        1.8431403214       18.2891352267
  N         0.0524703725       -0.0336568897       18.7083262279
 Ga        -1.6232577549        2.7901842699        0.3243505868
  N        -1.6246600487        4.6598312997        0.6069900322
 Ga        -1.5957550331        4.6757356540        2.6367638779
  N        -1.6228724364        2.7899130040        3.2282042102
 Ga        -1.6217205553        2.7906177211        5.2398347819
  N        -1.6212903710        4.6609354489        5.8465764239
 Ga        -1.6191543361        4.6613735983        7.8451891565
  N        -1.6203649569        2.7917950086        8.4509157730
 Ga        -1.6189320017        2.7951963918       10.4470025862
  N        -1.6173648865        4.6668181201       11.0552937749
 Ga        -1.6178236671        4.6713722959       13.0523141026
  N        -1.6098017692        2.8010042138       13.6533645690
 Ga        -1.5941996948        2.8147080689       15.6556978096
  N        -1.5865725756        4.6818390549       16.3074138110
 Ga        -1.5131877689        4.6786037710       18.3836662162
  N        -1.4629711836        2.8268956627       19.0172612122
 Ga        -3.2435673212        5.5952125609        0.3242838336
  N        -3.2372804471        7.4660798429        0.6063962668
 Ga        -3.2644281782        7.4808373082        2.6380411231
  N        -3.2426670750        5.5953575600        3.2285254496
 Ga        -3.2418970339        5.5960242973        5.2399895481
  N        -3.2358510448        7.4662974693        5.8470137632
 Ga        -3.2359144520        7.4670549371        7.8460800533
  N        -3.2398971112        5.5961617474        8.4492279224
 Ga        -3.2386296831        5.5972308401       10.4445320012
  N        -3.2307648116        7.4657439885       11.0553582882
 Ga        -3.2221074027        7.4629064940       13.0530414078
  N        -3.2328424294        5.5991782913       13.6953327070
 Ga        -3.2218006384        5.5932014019       15.7311863586
  N        -3.2149573440        7.4814363598       16.2607810434
 Ga        -3.1809079853        7.4513322170       18.3197992909
  N        -3.1602566772        5.5891690823       18.8544151083
 Ga         3.2429133334       -0.0153879811        0.3246127406
  N         3.2410532082        1.8545928125        0.6064459761
 Ga         3.2694769483        1.8704029005        2.6370999641
  N         3.2425426015       -0.0154971429        3.2281739128
 Ga         3.2439760303       -0.0146793256        5.2398553658
  N         3.2445680629        1.8554818884        5.8475259911
 Ga         3.2469527281        1.8562147069        7.8469104681
  N         3.2449161186       -0.0147891401        8.4495501546
 Ga         3.2477629129       -0.0140663067       10.4449840181
  N         3.2512031553        1.8568016899       11.0510326449
 Ga         3.2575394358        1.8537162424       13.0480884684
  N         3.2566034832       -0.0169419970       13.6606956335
 Ga         3.2745954402       -0.0171948360       15.6662607735
  N         3.2810316894        1.8616874904       16.2199835580
 Ga         3.3158958396        1.8601000898       18.2451727498
  N         3.3135047315       -0.0291133151       18.7018725261
 Ga         1.6223041637        2.7908888513        0.3242542189
  N         1.6291157648        4.6604771928        0.6072582717
 Ga         1.6011624902        4.6758525556        2.6370725672
  N         1.6226201637        2.7900683825        3.2289378015
 Ga         1.6241796935        2.7909433177        5.2408216273
  N         1.6297012681        4.6611692844        5.8484589902
 Ga         1.6300378097        4.6614374738        7.8482074238
  N         1.6260047480        2.7902724325        8.4493602004
 Ga         1.6290935166        2.7915134838       10.4448321641
  N         1.6275974016        4.6623037524       11.0485464345
 Ga         1.6288603856        4.6630099033       13.0430935870
  N         1.6328030220        2.7879061226       13.6461562377
 Ga         1.6440678629        2.7778282824       15.6406161858
  N         1.6333725342        4.6647766383       16.1835872789
 Ga         1.6767260346        4.6404795706       18.1831874960
  N         1.6837574679        2.7771848290       18.6473261042
 Ga         0.0031000915        5.5957569582       -0.5476339184
  N         0.0059418908        7.4705971210        0.6069599234
 Ga         0.0060423478        7.4383342880        2.6368581484
  N         0.0029987086        5.5951903126        3.2694983712
 Ga         0.0046630624        5.5961885252        5.2596812524
  N         0.0074445414        7.4706923819        5.8477539139
 Ga         0.0088039028        7.4692855981        7.8471470826
  N         0.0049234719        5.5957374437        8.4470491232
 Ga         0.0064099046        5.5971585953       10.4440608598
  N         0.0116718705        7.4691953251       11.0461126018
 Ga         0.0139636618        7.4711198377       13.0386946647
  N         0.0068065599        5.6017852093       13.6476667513
 Ga         0.0038335888        5.6024675523       15.6427699269
  N         0.0340703887        7.4605824047       16.2772541330
 Ga         0.0830485610        7.4284339216       18.3613559713
  N         0.1403888334        5.5766161878       18.9085305573
 Ga         6.4869228900       -0.0149472092        0.3238385844
  N         6.4937067230        1.8550509297        0.6060907117
 Ga         6.4661862646        1.8702175588        2.6368816374
  N         6.4882593092       -0.0154464280        3.2287570637
 Ga         6.4897364199       -0.0147031335        5.2406909818
  N         6.4945206776        1.8558414694        5.8479496790
 Ga         6.4945356814        1.8569272600        7.8474699872
  N         6.4909394159       -0.0136824154        8.4510093153
 Ga         6.4943069228       -0.0113284261       10.4474008279
  N         6.4967851763        1.8609293694       11.0528348402
 Ga         6.5001087787        1.8660014326       13.0498624086
  N         6.4898951341       -0.0079513354       13.6401269666
 Ga         6.5041249979        0.0009790110       15.6431511276
  N         6.5228106899        1.8779242419       16.2348024646
 Ga         6.6566326319        1.9248000409       18.2964587259
  N         6.5631687171       -0.0012958763       18.6486165836
 Ga         4.8675501202        2.7916274494       -0.5420118587
  N         4.8709642401        4.6648316354        0.6069752024
 Ga         4.8707956658        4.6334174074        2.6373557072
  N         4.8682795699        2.7899436869        3.2691398223
 Ga         4.8695393667        2.7911121669        5.2594389998
  N         4.8721413448        4.6652244239        5.8481202085
 Ga         4.8728328186        4.6639579294        7.8477048112
  N         4.8708884385        2.7913921024        8.4502864391
 Ga         4.8736969865        2.7952475897       10.4496875338
  N         4.8797594111        4.6661508376       11.0585005829
 Ga         4.8833893135        4.6703140229       13.0610749071
  N         4.8746251409        2.7952931342       13.6514934207
 Ga         4.8854557085        2.8005215339       15.6640243762
  N         4.8663928849        4.6725629130       16.1748719229
 Ga         4.9290311598        4.6591560580       19.0948206079
  N         4.9547577951        2.7700528587       18.7381891347
 Ga         3.2486982469        5.5947079961        0.3238158100
  N         3.2479015322        7.4654814194        0.6058642901
 Ga         3.2756649166        7.4807047615        2.6375715823
  N         3.2485552667        5.5955949563        3.2289307246
 Ga         3.2499511394        5.5963785939        5.2405545905
  N         3.2504627861        7.4661655421        5.8493805139
 Ga         3.2531848759        7.4666846786        7.8496134705
  N         3.2514053846        5.5959694610        8.4547253586
 Ga         3.2549141973        5.5974652042       10.4535736277
  N         3.2566467034        7.4713190424       11.0516808385
 Ga         3.2586272321        7.4717986190       13.0488049029
  N         3.2487469288        5.5958946655       13.6325201316
 Ga         3.2603896866        5.6061840293       15.6387137417
  N         3.2811538188        7.4897557888       16.1553667700
 Ga         3.3267485757        7.4960449942       18.1708497407
  N         3.3569327601        5.5734971984       18.4706895709
  O         1.5524723554        5.0319770946       21.2545288657
  H         0.9929783990        5.3933558679       20.4867311318
  C         0.7595310178        3.9395144139       21.7960611514
  H         0.0319041391        3.5234601998       21.0069082339
  H         1.5320933563        3.2342154601       22.1792977455
  H         0.3368579755        4.3636983118       22.7398284475
  O         4.2312379685        4.7164320988       21.0756838418
  H         3.2214600160        4.8672726875       21.0754029367
  C         4.5516845504        3.5969258099       21.9428010862
  H         4.1180032451        2.6626212474       21.5598096935
  H         5.6437406854        3.5041743892       21.9648995316
  H         4.1787899384        3.8120360774       22.9522743344
     156
 i =        2, E =     -6136.6225579108
 Ga        -0.0031798800       -0.0158095142       -0.5345265047
  N        -0.0002739063        1.8587867653        0.6068149158
 Ga        -0.0002975793        1.8278202021        2.6380713276
  N        -0.0033954587       -0.0156045159        3.2694793467
 Ga        -0.0021301782       -0.0150285782        5.2600176430
  N         0.0008377509        1.8596377051        5.8484106019
 Ga         0.0021800991        1.8582329118        7.8484185525
  N         0.0009265661       -0.0151249264        8.4511957096
 Ga         0.0039339057       -0.0153238191       10.4507605296
  N         0.0042359856        1.8601292981       11.0436506224
 Ga         0.0101554795        1.8621112721       13.0348904665
  N         0.0159484059       -0.0095469093       13.6278426530
 Ga         0.0285775525       -0.0107581133       15.6190406980
  N         0.0152244863        1.8575257802       16.2404626783
 Ga         0.0563498499        1.8551446890       18.3130441760
  N         0.0481904174       -0.0321821413       18.6920988573
 Ga        -1.6231531318        2.7901473395        0.3236889977
  N        -1.6247629442        4.6597508699        0.6071132771
 Ga        -1.5957763517        4.6756961739        2.6367769349
  N        -1.6228398928        2.7897845167        3.2281497889
 Ga        -1.6217310445        2.7906080251        5.2395288108
  N        -1.6212859674        4.6608469606        5.8464287433
 Ga        -1.6191753568        4.6615117260        7.8451142285
  N        -1.6204562682        2.7919730664        8.4519332228
 Ga        -1.6190221811        2.7954997412       10.4481097360
  N        -1.6177398446        4.6671629025       11.0552568610
 Ga        -1.6166857435        4.6710458692       13.0518320700
  N        -1.6090802344        2.7998058488       13.6487625617
 Ga        -1.5891171918        2.8182166910       15.6472074213
  N        -1.5883072029        4.6775914807       16.3167765122
 Ga        -1.5020582921        4.6730925983       18.3931378776
  N        -1.3580946728        2.8697053842       19.2672612122
 Ga        -3.2435419483        5.5953086027        0.3236454153
  N        -3.2371182102        7.4660051783        0.6070899323
 Ga        -3.2643453809        7.4808023897        2.6382660699
  N        -3.2427245615        5.5953359521        3.2286034867
 Ga        -3.2418895694        5.5960544339        5.2398775365
  N        -3.2358000549        7.4663699970        5.8469260907
 Ga        -3.2357841543        7.4669751241        7.8460108436
  N        -3.2399062347        5.5961477180        8.4495076672
 Ga        -3.2385317795        5.5970981923       10.4444694724
  N        -3.2307596288        7.4650869931       11.0553270781
 Ga        -3.2220771205        7.4637685679       13.0536932154
  N        -3.2346438466        5.5963511672       13.6893372523
 Ga        -3.2174069356        5.5935923500       15.7260803951
  N        -3.2131272092        7.4783070258       16.2681728045
 Ga        -3.1796046645        7.4484528613       18.3236454030
  N        -3.1608205794        5.5816179361       18.8383222428
 Ga         3.2428593177       -0.0154523071        0.3239888153
  N         3.2410687324        1.8545982293        0.6067090947
 Ga         3.2695624630        1.8704065121        2.6372202295
  N         3.2425530954       -0.0154056089        3.2281528893
 Ga         3.2439689527       -0.0146070240        5.2395886752
  N         3.2446098592        1.8555226492        5.8473475897
 Ga         3.2472551770        1.8562989856        7.8466962914
  N         3.2448589823       -0.0145972539        8.4503831296
 Ga         3.2478221003       -0.0142800931       10.4461633964
  N         3.2522358291        1.8572746367       11.0509679106
 Ga         3.2585702048        1.8539550533       13.0483267521
  N         3.2566215083       -0.0160481011       13.6598450774
 Ga         3.2733122950       -0.0213949001       15.6673099598
  N         3.2767642964        1.8574970986       16.2268381513
 Ga         3.3452296900        1.8530750755       18.2524134199
  N         3.3074360026       -0.0261005615       18.7190327141
 Ga         1.6222415186        2.7908458208        0.3236171237
  N         1.6293015848        4.6603751590        0.6074345473
 Ga         1.6012656228        4.6758027241        2.6370874985
  N         1.6226883397        2.7899356080        3.2289042868
 Ga         1.6242599265        2.7908864174        5.2405227739
  N         1.6298161631        4.6611187123        5.8482326336
 Ga         1.6302381412        4.6616863884        7.8481567618
  N         1.6262720174        2.7903591112        8.4502545120
 Ga         1.6293011272        2.7919979118       10.4460649461
  N         1.6274709922        4.6628702624       11.0491118349
 Ga         1.6299211288        4.6641192527       13.0449709888
  N         1.6329568846        2.7875456325       13.6431145074
 Ga         1.6435603573        2.7841885107       15.6375686462
  N         1.6277363756        4.6639526751       16.1882580986
 Ga         1.6765860035        4.6451662557       18.1861411829
  N         1.7099496434        2.7803086091       18.6254487981
 Ga         0.0031792892        5.5957543307       -0.5474200481
  N         0.0059518348        7.4707150587        0.6071304610
 Ga         0.0060918892        7.4383955820        2.6369015552
  N         0.0030477673        5.5951755228        3.2694642544
 Ga         0.0046603288        5.5962177168        5.2594901441
  N         0.0074488929        7.4708009468        5.8476547497
 Ga         0.0088984384        7.4693689360        7.8472701127
  N         0.0049267989        5.5956537033        8.4476476006
 Ga         0.0061749427        5.5971599537       10.4449325013
  N         0.0119894910        7.4691498816       11.0456675451
 Ga         0.0147898386        7.4716775472       13.0388337878
  N         0.0056295063        5.6018654800       13.6435245627
 Ga         0.0022142203        5.6000751830       15.6403475218
  N         0.0394812737        7.4595735815       16.2768653887
 Ga         0.0843432387        7.4510556780       18.3609226153
  N         0.1441043533        5.5965592286       18.8946441516
 Ga         6.4870093088       -0.0150343178        0.3232347517
  N         6.4937547261        1.8550226386        0.6063462867
 Ga         6.4661668952        1.8702416428        2.6370070890
  N         6.4883499395       -0.0153447469        3.2288230238
 Ga         6.4898196113       -0.0145768644        5.2405782066
  N         6.4946371544        1.8559378320        5.8479370669
 Ga         6.4944776741        1.8569732514        7.8474724146
  N         6.4910065242       -0.0134880150        8.4514621780
 Ga         6.4942895347       -0.0110651674       10.4479428114
  N         6.4963547342        1.8612528537       11.0514927965
 Ga         6.5010747810        1.8649757078       13.0476586760
  N         6.4901424690       -0.0054627225       13.6427381924
 Ga         6.5060180097        0.0087337882       15.6492867491
  N         6.5398382374        1.8863365644       16.2712242631
 Ga         6.7428619751        1.9735329613       18.3564121328
  N         6.5735066323        0.0201989033       18.6498361989
 Ga         4.8676037712        2.7915732240       -0.5417462627
  N         4.8709874446        4.6647995726        0.6072382029
 Ga         4.8708462010        4.6333369306        2.6374939360
  N         4.8682950682        2.7899077439        3.2692453534
 Ga         4.8696477199        2.7911627469        5.2593401697
  N         4.8722194504        4.6652373272        5.8480037895
 Ga         4.8728875075        4.6639768880        7.8475774414
  N         4.8709700908        2.7915175569        8.4502942147
 Ga         4.8741271534        2.7955421864       10.4490028893
  N         4.8803229176        4.6656772313       11.0574448712
 Ga         4.8799452775        4.6703456233       13.0593876893
  N         4.8780073994        2.7960833779       13.6597335221
 Ga         4.8936184031        2.7954838184       15.6793341587
  N         4.8679965355        4.6747768596       16.1653389683
 Ga         4.9304121990        4.6593059647       19.1039085987
  N         4.9830780541        2.7785047410       18.7298004479
 Ga         3.2487225972        5.5948013855        0.3231852768
  N         3.2477846857        7.4654051758        0.6065788475
 Ga         3.2756565357        7.4806659015        2.6378083749
  N         3.2486889304        5.5955668863        3.2289528154
 Ga         3.2501347448        5.5963938873        5.2403686357
  N         3.2505556110        7.4661840293        5.8493277875
 Ga         3.2531213317        7.4666427782        7.8497088248
  N         3.2516576080        5.5959395065        8.4557255495
 Ga         3.2550821897        5.5976219147       10.4551163717
  N         3.2562487564        7.4716862102       11.0509355282
 Ga         3.2583554777        7.4726772129       13.0488832348
  N         3.2497457250        5.5982418988       13.6325809224
 Ga         3.2542120320        5.6079196689       15.6397905695
  N         3.2808613388        7.4897386771       16.1551864716
 Ga         3.3223491453        7.4921252315       18.1671656868
  N         3.3626513220        5.5705375317       18.4737023169
  O         1.5443169343        5.0291972092       21.2015965350
  H         0.9814426896        5.4224013317       20.4650420124
  C         0.7347824419        3.9278134102       21.7266148983
  H        -0.0532756792        3.4848788070       20.9508853164
  H         1.4383174614        3.1633127210       22.0966495418
  H         0.2295950134        4.2933722142       22.6417666395
  O         4.2263809711        4.7188605353       21.0739023488
  H         3.2166782552        4.8569984679       21.0812100666
  C         4.5505644812        3.6000867105       21.9413030802
  H         4.1180571336        2.6644905276       21.5609583705
  H         5.6421106442        3.5039677202       21.9650271115
  H         4.1788171602        3.8101398072       22.9518088181
     156
 i =        3, E =     -6136.6315400798
 Ga        -0.0031646968       -0.0158866339       -0.5388649149
  N        -0.0002326014        1.8590949590        0.6071568368
 Ga        -0.0002710557        1.8280114856        2.6378381806
  N        -0.0033264156       -0.0156275632        3.2698215818
 Ga        -0.0021235772       -0.0149108733        5.2602035394
  N         0.0008979364        1.8597072422        5.8489905313
 Ga         0.0024158364        1.8584692642        7.8486107384
  N         0.0008670002       -0.0148207002        8.4504575387
 Ga         0.0036963899       -0.0150066608       10.4488360309
  N         0.0043945407        1.8602383580       11.0421292313
 Ga         0.0125390112        1.8617453339       13.0315187916
  N         0.0153181353       -0.0073298628       13.6369186547
 Ga         0.0324656463       -0.0089847187       15.6309268163
  N         0.0135243355        1.8646812712       16.2548084649
 Ga         0.0732512849        1.8691067137       18.3362407849
  N         0.0490444497       -0.0243978141       18.6814728951
 Ga        -1.6231125489        2.7897108685        0.3235238883
  N        -1.6248169336        4.6596949357        0.6062372517
 Ga        -1.5956106818        4.6757363104        2.6362256841
  N        -1.6229665483        2.7901148832        3.2284809913
 Ga        -1.6215972843        2.7907067069        5.2397256077
  N        -1.6211177956        4.6610039594        5.8469279252
 Ga        -1.6187411890        4.6614015345        7.8453246695
  N        -1.6201825447        2.7919603738        8.4512680737
 Ga        -1.6187360595        2.7951937132       10.4459900468
  N        -1.6175615145        4.6662587614       11.0524732542
 Ga        -1.6166785014        4.6706864876       13.0473534304
  N        -1.6078716074        2.7976684930       13.6484785751
 Ga        -1.5871635733        2.8176286300       15.6415310976
  N        -1.5855555551        4.6689003712       16.3279583378
 Ga        -1.4901561228        4.6656179236       18.4107365454
  N        -1.3386053634        2.8705003866       19.2939762315
 Ga        -3.2438655532        5.5955198720        0.3234727302
  N        -3.2367823310        7.4658207513        0.6074582389
 Ga        -3.2641392237        7.4806709062        2.6380207402
  N        -3.2424731478        5.5950192982        3.2287348574
 Ga        -3.2417059263        5.5960200735        5.2397734392
  N        -3.2356672949        7.4663563063        5.8473482241
 Ga        -3.2358287428        7.4673300992        7.8462281255
  N        -3.2397130878        5.5962243032        8.4496903671
 Ga        -3.2389638381        5.5969556613       10.4446287924
  N        -3.2313857179        7.4657832970       11.0549166470
 Ga        -3.2218980412        7.4646950474       13.0536550575
  N        -3.2330615324        5.5957006572       13.6906956993
 Ga        -3.2146191359        5.5894846575       15.7295787346
  N        -3.2083371652        7.4724309508       16.2774746318
 Ga        -3.1776274106        7.4474661126       18.3337797965
  N        -3.1582235665        5.5758207100       18.8270608898
 Ga         3.2425316670       -0.0152716550        0.3238516580
  N         3.2414806006        1.8547896152        0.6066897711
 Ga         3.2695414469        1.8703561421        2.6370471081
  N         3.2429456075       -0.0154754007        3.2283607639
 Ga         3.2441650742       -0.0145756396        5.2396045343
  N         3.2446924001        1.8555375950        5.8478706159
 Ga         3.2468716143        1.8564114140        7.8469913137
  N         3.2450110522       -0.0145719113        8.4505526946
 Ga         3.2483074990       -0.0138181205       10.4461328848
  N         3.2520420990        1.8579530031       11.0523003444
 Ga         3.2603081263        1.8543716012       13.0499600708
  N         3.2559201111       -0.0155201796       13.6618945643
 Ga         3.2738616830       -0.0237082086       15.6706607811
  N         3.2835570321        1.8541939589       16.2371279846
 Ga         3.3711072820        1.8492106321       18.2616445695
  N         3.3056913591       -0.0191031229       18.7333143195
 Ga         1.6222823907        2.7904223387        0.3234634169
  N         1.6294303327        4.6603219214        0.6066192351
 Ga         1.6012195837        4.6758475388        2.6366090980
  N         1.6228960639        2.7902224959        3.2292522924
 Ga         1.6242714192        2.7910524530        5.2407798064
  N         1.6297939322        4.6612809697        5.8489190849
 Ga         1.6301291649        4.6615683302        7.8486237235
  N         1.6261720663        2.7904340143        8.4500607090
 Ga         1.6296105386        2.7922200033       10.4448671036
  N         1.6277859565        4.6624164649       11.0477218194
 Ga         1.6283697364        4.6644699192       13.0433478698
  N         1.6330491949        2.7877609823       13.6478963713
 Ga         1.6480580561        2.7838777151       15.6443759503
  N         1.6241069604        4.6615920046       16.1850717862
 Ga         1.6788900741        4.6474393930       18.1845073780
  N         1.7361172995        2.7854062130       18.6174665084
 Ga         0.0032411654        5.5957474848       -0.5431412686
  N         0.0059872917        7.4707959247        0.6063125433
 Ga         0.0061633302        7.4382626005        2.6363950624
  N         0.0030799291        5.5951729331        3.2692860305
 Ga         0.0047950889        5.5962253797        5.2593492483
  N         0.0075249750        7.4707171588        5.8481690328
 Ga         0.0089703548        7.4692643563        7.8475328954
  N         0.0049902430        5.5957593098        8.4479447210
 Ga         0.0067381481        5.5975464696       10.4449503203
  N         0.0122274860        7.4694789217       11.0478897433
 Ga         0.0170244572        7.4727731317       13.0429633400
  N         0.0030749010        5.6002235356       13.6440248916
 Ga         0.0029650967        5.6056593832       15.6428560997
  N         0.0430094438        7.4638618594       16.2703380227
 Ga         0.0821025016        7.4778952015       18.3416726577
  N         0.1520261942        5.6229393827       18.8723713279
 Ga         6.4874115743       -0.0148582213        0.3231004837
  N         6.4934141577        1.8552129500        0.6063095827
 Ga         6.4663293345        1.8701684470        2.6367814370
  N         6.4880409793       -0.0153677595        3.2290799916
 Ga         6.4898213892       -0.0145849866        5.2406300373
  N         6.4947261782        1.8559401117        5.8483513248
 Ga         6.4949110435        1.8570117392        7.8475743971
  N         6.4910248905       -0.0134208941        8.4512025135
 Ga         6.4940904994       -0.0109208071       10.4472515124
  N         6.4969981504        1.8618143802       11.0505679345
 Ga         6.4994568891        1.8655556471       13.0452282003
  N         6.4915385835        0.0002326822       13.6502801688
 Ga         6.5060845625        0.0148567257       15.6597899089
  N         6.5564506341        1.8921688755       16.3059632442
 Ga         6.7385435888        1.9703334643       18.4009382738
  N         6.5859946797        0.0179566887       18.6466917842
 Ga         4.8676571691        2.7915425491       -0.5420218686
  N         4.8710508225        4.6643454628        0.6072121139
 Ga         4.8708923557        4.6334195603        2.6372851704
  N         4.8683936890        2.7899075507        3.2692115642
 Ga         4.8697276157        2.7911475184        5.2592045736
  N         4.8723188691        4.6653115957        5.8482655377
 Ga         4.8727600039        4.6641866980        7.8475579952
  N         4.8711116506        2.7914732488        8.4499007868
 Ga         4.8740475339        2.7952775167       10.4482019861
  N         4.8792299374        4.6652868608       11.0605111847
 Ga         4.8788616968        4.6671420300       13.0648727016
  N         4.8798109529        2.7925880835       13.6711571961
 Ga         4.9069394276        2.7929674461       15.6958757139
  N         4.8675184964        4.6751094515       16.1637148916
 Ga         4.9281006975        4.6677541204       19.1075171019
  N         4.9958148627        2.7963124693       18.7344623160
 Ga         3.2491337339        5.5949805626        0.3230522715
  N         3.2475093560        7.4651941058        0.6070239121
 Ga         3.2755219274        7.4805504218        2.6376509791
  N         3.2485666230        5.5952561291        3.2291820616
 Ga         3.2500488982        5.5963888095        5.2404116654
  N         3.2505504260        7.4661822393        5.8497926005
 Ga         3.2532437402        7.4667977363        7.8498853673
  N         3.2515684298        5.5961449207        8.4551755506
 Ga         3.2545448188        5.5980433240       10.4541194771
  N         3.2564879660        7.4723278861       11.0508948190
 Ga         3.2561535690        7.4751903574       13.0492448786
  N         3.2471606618        5.6007964338       13.6338144916
 Ga         3.2522114228        5.6098411451       15.6430183270
  N         3.2830056212        7.4922228678       16.1588203434
 Ga         3.3289048609        7.4897638644       18.1683179859
  N         3.3655046751        5.5731179510       18.4688918792
  O         1.5139046885        4.9868902773       21.1887656643
  H         0.9796604576        5.4365568362       20.4540132326
  C         0.6849307807        3.8941729859       21.7010996636