     156
 i =        1, E =     -6136.4756409969
 Ga        -0.0032059224       -0.0157737480       -0.5366418244
  N        -0.0002811186        1.8584314093        0.6068109477
 Ga        -0.0003031708        1.8279616207        2.6382683531
  N        -0.0033913780       -0.0156401565        3.2695795157
 Ga        -0.0021506440       -0.0150267632        5.2602339267
  N         0.0008524204        1.8596024937        5.8482673807
 Ga         0.0022374119        1.8582671662        7.8481602978
  N         0.0008406946       -0.0150289292        8.4507582791
 Ga         0.0039135572       -0.0150140899       10.4499006702
  N         0.0040660563        1.8600873289       11.0447959762
 Ga         0.0086864286        1.8636444883       13.0368978248
  N         0.0163934029       -0.0104865768       13.6262265943
 Ga         0.0254928339       -0.0042293837       15.6166180428
  N         0.0097282692        1.8569520620       16.2294338430
 Ga         0.0435283964        1.8426837068       18.2905401414
  N         0.0526110760       -0.0335553804       18.7046091870
 Ga        -1.6230219223        2.7899749463        0.3240818544
  N        -1.6248194173        4.6597038213        0.6069530774
 Ga        -1.5957601981        4.6757106986        2.6368304624
  N        -1.6230640295        2.7899089574        3.2283011652
 Ga        -1.6217243464        2.7906433980        5.2398582352
  N        -1.6212596191        4.6609801898        5.8465590685
 Ga        -1.6190917444        4.6613858001        7.8451702213
  N        -1.6203357346        2.7918542484        8.4512369019
 Ga        -1.6189664393        2.7951230428       10.4471029555
  N        -1.6172754118        4.6667317705       11.0548486562
 Ga        -1.6177732776        4.6706624841       13.0514063556
  N        -1.6107602587        2.8011245682       13.6533295411
 Ga        -1.5945047463        2.8132844061       15.6543808142
  N        -1.5861596490        4.6797262316       16.3095812024
 Ga        -1.5155886629        4.6822638133       18.3819888656
  N        -1.5536906544        2.7917988880       18.7652403527
 Ga        -3.2435910504        5.5955179670        0.3239925660
  N        -3.2373894073        7.4661859320        0.6070110311
 Ga        -3.2642529139        7.4807328153        2.6383634110
  N        -3.2427644206        5.5951220331        3.2286073815
 Ga        -3.2418914764        5.5960128109        5.2399856351
  N        -3.2357790345        7.4663081740        5.8470173955
 Ga        -3.2358552403        7.4670858127        7.8460677834
  N        -3.2398690285        5.5961767113        8.4495557943
 Ga        -3.2385194541        5.5970779615       10.4446103127
  N        -3.2305961299        7.4656882297       11.0544768386
 Ga        -3.2220492933        7.4629299357       13.0517639894
  N        -3.2320894730        5.5993494818       13.6964760038
 Ga        -3.2209264974        5.5923557837       15.7330609881
  N        -3.2163179332        7.4837921478       16.2614215234
 Ga        -3.1807529891        7.4510186788       18.3225818141
  N        -3.1599850155        5.5888914430       18.8526353981
 Ga         3.2426764626       -0.0154950171        0.3243536748
  N         3.2413081432        1.8547271737        0.6063034875
 Ga         3.2696287007        1.8704473535        2.6371706907
  N         3.2426980014       -0.0153355462        3.2282621884
 Ga         3.2440240290       -0.0145856949        5.2398526505
  N         3.2446646896        1.8555438884        5.8475640277
 Ga         3.2470546268        1.8563376091        7.8468915977
  N         3.2449609925       -0.0146848494        8.4497960135
 Ga         3.2479471933       -0.0139100622       10.4450130732
  N         3.2513942181        1.8569511089       11.0505827792
 Ga         3.2580495844        1.8540516023       13.0472326784
  N         3.2566785716       -0.0166902385       13.6607166052
 Ga         3.2778806653       -0.0167725954       15.6673064878
  N         3.2815894770        1.8639758750       16.2208606495
 Ga         3.3134354297        1.8598858296       18.2448672285
  N         3.3144396807       -0.0291285430       18.6934640619
 Ga         1.6221008802        2.7906911423        0.3239919273
  N         1.6293265386        4.6603527596        0.6072675046
 Ga         1.6012435416        4.6758156668        2.6371480129
  N         1.6229062871        2.7900566176        3.2290208166
 Ga         1.6242686146        2.7909493257        5.2408207860
  N         1.6297541514        4.6612182271        5.8484101760
 Ga         1.6300777304        4.6614566554        7.8481344683
  N         1.6260889339        2.7903329792        8.4496759372
 Ga         1.6290625086        2.7913546749       10.4449475431
  N         1.6277569122        4.6623717802       11.0477994375
 Ga         1.6286985715        4.6625304605       13.0418128338
  N         1.6332544857        2.7877353523       13.6459156701
 Ga         1.6413554957        2.7751937069       15.6410149722
  N         1.6338247423        4.6645816730       16.1854228133
 Ga         1.6772867533        4.6404813743       18.1862114447
  N         1.6826804862        2.7759880645       18.6483601437
 Ga         0.0031678632        5.5957795641       -0.5474023554
  N         0.0059573489        7.4707762642        0.6069722780
 Ga         0.0060789805        7.4383703287        2.6369259808
  N         0.0030362436        5.5951970880        3.2694566951
 Ga         0.0046932930        5.5962042486        5.2596373652
  N         0.0074992410        7.4707273801        5.8477274132
 Ga         0.0088649722        7.4693409194        7.8471290997
  N         0.0049950138        5.5957743422        8.4473117217
 Ga         0.0063502350        5.5971777206       10.4440806635
  N         0.0117045557        7.4691567488       11.0460803433
 Ga         0.0146895611        7.4714758567       13.0387146594
  N         0.0068148195        5.6013875224       13.6474110826
 Ga         0.0021697448        5.6033884570       15.6430052405
  N         0.0355861490        7.4587882597       16.2829190567
 Ga         0.0827408547        7.4278242658       18.3639355672
  N         0.1363755001        5.5763067179       18.8986213353
 Ga         6.4872121820       -0.0150744445        0.3235746309
  N         6.4935071397        1.8551523633        0.6059496597
 Ga         6.4661043496        1.8702786478        2.6369710808
  N         6.4881728876       -0.0152514531        3.2288393682
 Ga         6.4897641414       -0.0146137091        5.2406672244
  N         6.4945289654        1.8558811831        5.8479899206
 Ga         6.4945551159        1.8570474089        7.8474945107
  N         6.4909995917       -0.0135939158        8.4514615176
 Ga         6.4943219324       -0.0110848758       10.4477649977
  N         6.4968477119        1.8611221321       11.0529623328
 Ga         6.5001801291        1.8657558377       13.0495723508
  N         6.4898632202       -0.0074121292       13.6414615750
 Ga         6.5029804655        0.0018147686       15.6442892627
  N         6.5228320786        1.8784282282       16.2263580630
 Ga         6.5738458138        1.8798544280       18.2664793126
  N         6.5638340873       -0.0179049354       18.6495274713
 Ga         4.8675908267        2.7915568490       -0.5403227689
  N         4.8709912643        4.6645698804        0.6067972153
 Ga         4.8708191659        4.6332737670        2.6373953434
  N         4.8683068649        2.7899492192        3.2691477341
 Ga         4.8695977754        2.7911355436        5.2593810406
  N         4.8722061167        4.6651851393        5.8481586627
 Ga         4.8728913339        4.6639308529        7.8476684368
  N         4.8709406885        2.7914652789        8.4506228884
 Ga         4.8739215882        2.7951581067       10.4496568749
  N         4.8797536903        4.6660805446       11.0581490777
 Ga         4.8842835892        4.6698482640       13.0602129646
  N         4.8749977705        2.7952004013       13.6519733324
 Ga         4.8868357603        2.7988266914       15.6632568622
  N         4.8661872867        4.6704663583       16.1758492276
 Ga         4.9307949145        4.6627078233       19.0896881455
  N         4.9370154852        2.7788600906       18.7418829264
 Ga         3.2487632560        5.5949920709        0.3235382525
  N         3.2480647697        7.4655569965        0.6065347401
 Ga         3.2755518416        7.4805999374        2.6379318033
  N         3.2487097354        5.5953695263        3.2290354800
 Ga         3.2500677578        5.5963505173        5.2405604571
  N         3.2504757263        7.4661702033        5.8493509656
 Ga         3.2532294582        7.4667346915        7.8495862188
  N         3.2514678673        5.5959957488        8.4548864258
 Ga         3.2550794073        5.5975291724       10.4533796334
  N         3.2566659981        7.4712357416       11.0518233096
 Ga         3.2581768367        7.4725060951       13.0489468154
  N         3.2491673901        5.5952139693       13.6322396003
 Ga         3.2610585646        5.6071726745       15.6390198126
  N         3.2797930533        7.4902071863       16.1572624384
 Ga         3.3285028601        7.4938306946       18.1711140095
  N         3.3565685060        5.5732914921       18.4722268566
  O         1.6500667056        5.2177419098       21.1761447920
  H         0.9760222974        5.4290951838       20.4379949886
  C         0.7745314259        3.8781512695       21.9531009079
  H         0.0843518752        3.5151643456       21.1698033936
  H         1.5713519307        3.1618012032       22.2099639686
  H         0.2879892220        4.3752188474       22.8107764218
  O         4.2576687462        4.7157010981       21.0741215621
  H         3.2514012090        4.8655133546       21.0679396308
  C         4.5524926404        3.5935975337       21.9454248076
  H         4.1175586274        2.6612166940       21.5594438366
  H         5.6443174844        3.5047869097       21.9646936214
  H         4.1780527527        3.8124906154       22.9535658583
     156
 i =        2, E =     -6136.5497155014
 Ga        -0.0031767627       -0.0158142030       -0.5417862396
  N        -0.0002414045        1.8585829705        0.6071539670
 Ga        -0.0002405276        1.8276644021        2.6381002367
  N        -0.0032899754       -0.0156686685        3.2701882558
 Ga        -0.0020540721       -0.0149619302        5.2604715359
  N         0.0009700813        1.8596820466        5.8485144652
 Ga         0.0023471951        1.8583306525        7.8483935087
  N         0.0009431284       -0.0149590087        8.4507624575
 Ga         0.0040370628       -0.0149742611       10.4498572634
  N         0.0042609566        1.8601684820       11.0449244646
 Ga         0.0087200580        1.8635641761       13.0371374186
  N         0.0163328402       -0.0104043389       13.6262025225
 Ga         0.0248438948       -0.0054122017       15.6162974063
  N         0.0096961921        1.8566280501       16.2265705655
 Ga         0.0428964354        1.8418484846       18.2854003689
  N         0.0523926968       -0.0337080942       18.7051687373
 Ga        -1.6227151963        2.7898624635        0.3243726705
  N        -1.6245795653        4.6598035694        0.6065521553
 Ga        -1.5957987840        4.6756299421        2.6367296075
  N        -1.6228455841        2.7899370545        3.2284812821
 Ga        -1.6216385022        2.7907156472        5.2400771245
  N        -1.6210867650        4.6610839492        5.8467494353
 Ga        -1.6189004788        4.6615237723        7.8453350988
  N        -1.6202275190        2.7919979330        8.4511137032
 Ga        -1.6188754676        2.7951595511       10.4469685106
  N        -1.6172074847        4.6668149543       11.0552182166
 Ga        -1.6178032670        4.6704621007       13.0520556947
  N        -1.6109332074        2.8007272996       13.6535161262
 Ga        -1.5955542359        2.8120234572       15.6544366564
  N        -1.5879490336        4.6792732331       16.3041517873
 Ga        -1.5225341269        4.6790338341       18.3727654208
  N        -1.5515041418        2.7911724924       18.7720380227
 Ga        -3.2434740086        5.5957992660        0.3242268919
  N        -3.2371622749        7.4660811485        0.6073309001
 Ga        -3.2644068851        7.4808295741        2.6381647033
  N        -3.2426059022        5.5951965572        3.2287510550
 Ga        -3.2417582013        5.5960538164        5.2401796213
  N        -3.2356664333        7.4663723964        5.8472379868
 Ga        -3.2357527448        7.4672566310        7.8462541565
  N        -3.2397203519        5.5963116173        8.4493735584
 Ga        -3.2383316917        5.5972492142       10.4443431021
  N        -3.2303910174        7.4657489787       11.0550283064
 Ga        -3.2218966961        7.4632745220       13.0525239118
  N        -3.2322961720        5.5994078428       13.6969281848
 Ga        -3.2219489684        5.5925082131       15.7330453889
  N        -3.2168087031        7.4836698911       16.2611756384
 Ga        -3.1810299575        7.4504730339       18.3217556276
  N        -3.1607796169        5.5894895378       18.8516619180
 Ga         3.2425167238       -0.0157066730        0.3246095975
  N         3.2417174062        1.8549071095        0.6059715233
 Ga         3.2695352036        1.8703175612        2.6373841032
  N         3.2427412562       -0.0154925346        3.2284257951
 Ga         3.2441712882       -0.0145468002        5.2400544480
  N         3.2447638472        1.8555915031        5.8477743134
 Ga         3.2471920209        1.8564504948        7.8470662749
  N         3.2451356615       -0.0145962554        8.4496655617
 Ga         3.2480584561       -0.0138831388       10.4448076740
  N         3.2516316052        1.8569974974       11.0508477456
 Ga         3.2583024946        1.8539632035       13.0475261170
  N         3.2573153443       -0.0165669381       13.6616915815
 Ga         3.2774861251       -0.0168032384       15.6685297755
  N         3.2810668977        1.8642222876       16.2201369898
 Ga         3.3122962708        1.8620136301       18.2439048972
  N         3.3123718031       -0.0271508515       18.6929548749
 Ga         1.6218833310        2.7905714015        0.3243152730
  N         1.6292272567        4.6604365655        0.6069163691
 Ga         1.6014436685        4.6757354636        2.6370960529
  N         1.6228685954        2.7900422632        3.2291666752
 Ga         1.6243834171        2.7910257550        5.2409874165
  N         1.6297915094        4.6613025053        5.8485910734
 Ga         1.6301984431        4.6616329394        7.8483116755
  N         1.6262262555        2.7904852826        8.4495355808
 Ga         1.6292298587        2.7913957585       10.4447339249
  N         1.6279380593        4.6624626917       11.0476026721
 Ga         1.6287719953        4.6623812948       13.0415002372
  N         1.6334598628        2.7877003670       13.6453278665
 Ga         1.6408196212        2.7747910119       15.6399888739
  N         1.6345557499        4.6633142835       16.1871316991
 Ga         1.6781853896        4.6402702267       18.1912403850
  N         1.6803110613        2.7747177125       18.6577747947
 Ga         0.0032513789        5.5957072570       -0.5462747890
  N         0.0060200495        7.4705320681        0.6066005680
 Ga         0.0061616271        7.4384587506        2.6368645043
  N         0.0031082206        5.5951651315        3.2692355817
 Ga         0.0048005958        5.5963109137        5.2596427383
  N         0.0076096800        7.4707595721        5.8480145371
 Ga         0.0090612482        7.4694528078        7.8473672690
  N         0.0051280567        5.5959293282        8.4472058684
 Ga         0.0064155378        5.5972717536       10.4438981338
  N         0.0118266907        7.4692475227       11.0458651886
 Ga         0.0151078174        7.4716437619       13.0385122908
  N         0.0072010102        5.6013660663       13.6475678556
 Ga         0.0026016199        5.6027514960       15.6436507641
  N         0.0358520273        7.4580076911       16.2827448942
 Ga         0.0810181946        7.4307247102       18.3631274897
  N         0.1254270526        5.5744135258       18.8802535239
 Ga         6.4874998544       -0.0152933241        0.3238426506
  N         6.4931932188        1.8553162845        0.6056474140
 Ga         6.4663800279        1.8701616347        2.6371935636
  N         6.4882703112       -0.0153755979        3.2290318176
 Ga         6.4898427854       -0.0145724117        5.2408948449
  N         6.4946591533        1.8558994051        5.8482749158
 Ga         6.4946784704        1.8570666292        7.8477659250
  N         6.4911000345       -0.0135145233        8.4514951565
 Ga         6.4944883001       -0.0110097869       10.4477411355
  N         6.4968689221        1.8611929479       11.0528958219
 Ga         6.5002638146        1.8656051847       13.0494782900
  N         6.4901685499       -0.0072833168       13.6413026547
 Ga         6.5032787420        0.0011318722       15.6442616305
  N         6.5214894812        1.8783244934       16.2257187971
 Ga         6.5753892997        1.8824789178       18.2658756628
  N         6.5632597775       -0.0154798072       18.6483450178
 Ga         4.8676944748        2.7914849092       -0.5391523298
  N         4.8710666099        4.6641557798        0.6064319288
 Ga         4.8709124731        4.6334444207        2.6375689978
  N         4.8683948391        2.7899260122        3.2690752612
 Ga         4.8697301080        2.7911841509        5.2595610508
  N         4.8723437948        4.6652542642        5.8484044584
 Ga         4.8729712569        4.6640531737        7.8478856367
  N         4.8710780235        2.7915712686        8.4505364270
 Ga         4.8740684391        2.7952399853       10.4493926315
  N         4.8799604620        4.6661654501       11.0580078017
 Ga         4.8845713251        4.6699830803       13.0597070495
  N         4.8753127148        2.7956821646       13.6524511624
 Ga         4.8862823670        2.7988606835       15.6634981184
  N         4.8643027406        4.6710944923       16.1765884459
 Ga         4.9346706783        4.6601040802       19.0960606355
  N         4.9368019769        2.7779622547       18.7410703226
 Ga         3.2487801139        5.5952532884        0.3237998511
  N         3.2479679892        7.4654289711        0.6069366475
 Ga         3.2758509019        7.4807070693        2.6378005425
  N         3.2487241966        5.5954406684        3.2292090668
 Ga         3.2501636232        5.5963882823        5.2407868059
  N         3.2505770754        7.4662377064        5.8496143890
 Ga         3.2533007222        7.4668943582        7.8498322946
  N         3.2515688345        5.5961726385        8.4548688274
 Ga         3.2552489633        5.5977589804       10.4532987090
  N         3.2567803605        7.4713944981       11.0516715420
 Ga         3.2582044710        7.4729604265       13.0486909833
  N         3.2495853725        5.5952979628       13.6308487511
 Ga         3.2598995700        5.6070676267       15.6365519614
  N         3.2799717452        7.4884349609       16.1567786328
 Ga         3.3273209743        7.4939143399       18.1707649346
  N         3.3636141540        5.5703920796       18.4661379987
  O         1.7095742625        5.3991815540       21.1547655948
  H         0.9915633954        5.4681591142       20.3966423302
  C         0.7126155263        3.7605043390       22.0098250872
  H         0.0534406656        3.4791750867       21.1718545179
  H         1.5732102334        3.1184601819       22.2365043136
  H         0.2732313260        4.3421942573       22.8341383286
  O         4.2563474394        4.7083694715       21.0734567470
  H         3.2534011166        4.9039064431       21.0385900564
  C         4.5714128236        3.5940836593       21.9430682059
  H         4.1215240113        2.6662339038       21.5599459142
  H         5.6593346363        3.4802013890       21.9828579489
  H         4.1807878079        3.8117188080       22.9467604708
     156
 i =        3, E =     -6136.5627990492
 Ga        -0.0031316867       -0.0158243277       -0.5449320982
  N        -0.0001849197        1.8589254582        0.6073561156
 Ga        -0.0001579345        1.8274963339        2.6378616364
  N        -0.0032036906       -0.0156741816        3.2703350438
 Ga        -0.0019386975       -0.0149026230        5.2603952458
  N         0.0010833399        1.8597086161        5.8485360973
 Ga         0.0024917939        1.8584551071        7.8482897069
  N         0.0011507246       -0.0148413097        8.4510879166
 Ga         0.0043216550       -0.0148352099       10.4500894150
  N         0.0044257001        1.8602590452       11.0447346020
 Ga         0.0089689926        1.8633927099       13.0367490365
  N         0.0164206905       -0.0104158190       13.6259028933
 Ga         0.0244215670       -0.0061745293       15.6159505068
  N         0.0095972888        1.8565295829       16.2269193702
 Ga         0.0431118485        1.8425295803       18.2841272958
  N         0.0514055679       -0.0331807379       18.7037621483
 Ga        -1.6225324983        2.7898448874        0.3247882812
  N        -1.6243703091        4.6598764341        0.6065480761
 Ga        -1.5957250571        4.6756091295        2.6368830050
  N        -1.6227084521        2.7898887353        3.2284876504
 Ga        -1.6214432457        2.7907677268        5.2400248283
  N        -1.6209859046        4.6611539791        5.8466049756
 Ga        -1.6187877741        4.6616304294        7.8451117096
  N        -1.6200822156        2.7921340789        8.4514461817
 Ga        -1.6187210305        2.7953230848       10.4472691641
  N        -1.6171315422        4.6668916111       11.0556795338
 Ga        -1.6176324388        4.6705880970       13.0526867780
  N        -1.6109049718        2.8002497239       13.6516001581
 Ga        -1.5957811177        2.8108479564       15.6518912700
  N        -1.5907051960        4.6780676573       16.3004608513
 Ga        -1.5228479200        4.6776549490       18.3669799479
  N        -1.5506980645        2.7909003043       18.7787229753
 Ga        -3.2433467917        5.5959062173        0.3245938300
  N        -3.2367724520        7.4658893311        0.6074980075
 Ga        -3.2644689432        7.4808969801        2.6379043530
  N        -3.2425167077        5.5952581481        3.2287386668
 Ga        -3.2416255195        5.5961795414        5.2401128492
  N        -3.2355720071        7.4664554282        5.8472062795
 Ga        -3.2356259135        7.4673400702        7.8460565549
  N        -3.2395491413        5.5964516213        8.4497047384
 Ga        -3.2380037223        5.5974081960       10.4445561158
  N        -3.2301628019        7.4658181153       11.0551882712
 Ga        -3.2217093242        7.4634892935       13.0525607049
  N        -3.2329523192        5.5994683615       13.6958349291
 Ga        -3.2232694165        5.5933612697       15.7311926729
  N        -3.2169846981        7.4840851865       16.2621236980
 Ga        -3.1819954723        7.4506532507       18.3224252794
  N        -3.1594387595        5.5892094637       18.8492302544
 Ga         3.2425364605       -0.0158408680        0.3250007324
  N         3.2418057177        1.8548873319        0.6060587783
 Ga         3.2696243221        1.8702888587        2.6376247161
  N         3.2427755312       -0.0155478697        3.2284167125
 Ga         3.2442408024       -0.0145422221        5.2399759516
  N         3.2448582082        1.8556409843        5.8475995433
 Ga         3.2473035577        1.8565652622        7.8468141904
  N         3.2452067091       -0.0144516881        8.4499764904
 Ga         3.2481995936       -0.0137842286       10.4450479735
  N         3.2518737177        1.8570624026       11.0510375231
 Ga         3.2584385073        1.8540300910       13.0475953421
  N         3.2574343994       -0.0163294969       13.6617463784
 Ga         3.2770465147       -0.0163690630       15.6684897637
  N         3.2797604631        1.8640342522       16.2211320905
 Ga         3.3100717722        1.8644932840       18.2445311545
  N         3.3110345532       -0.0257546579       18.6913044798
 Ga         1.6218249384        2.7905494171        0.3247774072
  N         1.6291560522        4.6605075436        0.6069353456
 Ga         1.6015613591        4.6757120642        2.6372640488
  N         1.6229146270        2.7899862781        3.2291679744
 Ga         1.6244144227        2.7910761953        5.2409251303
  N         1.6299261536        4.6613744656        5.8484809225
 Ga         1.6303148996        4.6617171956        7.8481657081
  N         1.6264031200        2.7905606631        8.4498207868
 Ga         1.6294273520        2.7913748802       10.4449125350
  N         1.6280641874        4.6625011660       11.0471268378
 Ga         1.6287458033        4.6621028056       13.0406626346
  N         1.6335677089        2.7876754133       13.6446785742
 Ga         1.6405805397        2.7742115119       15.6387384688
  N         1.6349468395        4.6616225496       16.1852408083
 Ga         1.6789840900        4.6373191693       18.1896562835
  N         1.6789682982        2.7750809093       18.6689184850
 Ga         0.0033312039        5.5956231888       -0.5455340163
  N         0.0060936467        7.4702933408        0.6065616491
 Ga         0.0062445848        7.4384721019        2.6369871614
  N         0.0032061952        5.5951739551        3.2691655345
 Ga         0.0049139491        5.5963581939        5.2595387009
  N         0.0077316780        7.4708308922        5.8479067750
 Ga         0.0091410882        7.4695323724        7.8472206568
  N         0.0052149239        5.5960000037        8.4474657773
 Ga         0.0064068492        5.5973049332       10.4441047767
  N         0.0119286121        7.4692860926       11.0460091546
 Ga         0.0150920413        7.4713934497       13.0387030880
  N         0.0078949658        5.6010542081       13.6483530435
 Ga         0.0024153329        5.6024146781       15.6452712362
  N         0.0355509258        7.4583813641       16.2832555724
 Ga         0.0789039074        7.4303439725       18.3634590846
  N         0.1255519983        5.5706568517       18.8731686124
 Ga         6.4876237256       -0.0154311942        0.3242362471
  N         6.4932390896        1.8552931557        0.6057541360
 Ga         6.4664679256        1.8701367466        2.6374443044
  N         6.4884168476       -0.0154298722        3.2290316938
 Ga         6.4900032564       -0.0145589477        5.2408232305
  N         6.4948141507        1.8559415391        5.8481413565
 Ga         6.4948218552        1.8572402989        7.8475822666
  N         6.4912341327       -0.0133758638        8.4515871611
 Ga         6.4945105058       -0.0109051965       10.4477801778
  N         6.4969020933        1.8613060725       11.0527387581
 Ga         6.5000469411        1.8656901088       13.0492008271
  N         6.4904039554       -0.0073058640       13.6406574118
 Ga         6.5028086919        0.0009907686       15.6436612259
  N         6.5213086683        1.8784137053       16.2261569809
 Ga         6.5768825046        1.8823937605       18.2667657031
  N         6.5628129624       -0.0169100556       18.6448746819
 Ga         4.8677823751        2.7914412205       -0.5390854414
  N         4.8711466722        4.6641186338        0.6064948503
 Ga         4.8710096645        4.6334549097        2.6377861141
  N         4.8684864312        2.7899306107        3.2692135420
 Ga         4.8698577717        2.7912443226        5.2596187492
  N         4.8724687359        4.6653426583        5.8482747712
 Ga         4.8731610870        4.6642000542        7.8476872042
  N         4.8711645202        2.7916997359        8.4506857999
 Ga         4.8741409385        2.7952513299       10.4493705606
  N         4.8802001741        4.6662249269       11.0574143696
 Ga         4.8844653867        4.6700471762       13.0585610313
  N         4.8753400987        2.7962158928       13.6527679248
 Ga         4.8853649573        2.7980172016       15.6639670888
  N         4.8626505405        4.6716886700       16.1763906586
 Ga         4.9386352613        4.6580958482       19.0942067347
  N         4.9371758910        2.7764889257       18.7400036073
 Ga         3.2487965544        5.5953442461        0.3242026072
  N         3.2477200469        7.4652264016        0.6071456632
 Ga         3.2760866218        7.4807600316        2.6375575215
  N         3.2488226391        5.5954963008        3.2292135913
 Ga         3.2502691285        5.5965093496        5.2407219904
  N         3.2507109031        7.4663213159        5.8496246400
 Ga         3.2534970231        7.4669931965        7.8497265344
  N         3.2517278450        5.5962551031        8.4550173900
 Ga         3.2553626628        5.5978405967       10.4533448507
  N         3.2569287664        7.4715414647       11.0512282690
 Ga         3.2584368558        7.4730266751       13.0480455489
  N         3.2496149279        5.5951462696       13.6302115804
 Ga         3.2584542517        5.6074677397       15.6352239798
  N         3.2793004694        7.4881041221       16.1568860170
 Ga         3.3276095332        7.4925351098       18.1707422808
  N         3.3662192902        5.5669961580       18.4632281442
  O         1.7421839956        5.4861722731       21.1339777881
  H         1.0349914595        5.5372889702       20.3874808487
  C         0.6713052034        3.6916948498       22.0449093774