     156
 i =        1, E =     -6136.6383651620
 Ga        -0.0031984178       -0.0157431344       -0.5340138448
  N        -0.0002896414        1.8585715035        0.6063179741
 Ga        -0.0003445768        1.8278441235        2.6379996885
  N        -0.0034236038       -0.0156317704        3.2694977134
 Ga        -0.0021953498       -0.0150496940        5.2602863420
  N         0.0008065689        1.8595821388        5.8482979981
 Ga         0.0022232379        1.8581538297        7.8481960422
  N         0.0007959161       -0.0150772788        8.4504078395
 Ga         0.0039186303       -0.0152889494       10.4496761889
  N         0.0041629972        1.8599446553       11.0442792189
 Ga         0.0094098666        1.8628814879       13.0360689960
  N         0.0159173516       -0.0102348334       13.6284638810
 Ga         0.0288215293       -0.0082505051       15.6187622362
  N         0.0135347479        1.8567104401       16.2246289754
 Ga         0.0446303692        1.8436970968       18.2888007053
  N         0.0518718060       -0.0328650745       18.7074022597
 Ga        -1.6232112617        2.7901388746        0.3242631304
  N        -1.6246941100        4.6598142165        0.6069306728
 Ga        -1.5957481737        4.6757316870        2.6367464134
  N        -1.6229228351        2.7899156683        3.2282361549
 Ga        -1.6217331483        2.7906137870        5.2398611184
  N        -1.6212908209        4.6609227643        5.8465787190
 Ga        -1.6191456497        4.6613983066        7.8452100383
  N        -1.6203653337        2.7917994085        8.4509160881
 Ga        -1.6189827971        2.7952279301       10.4470040162
  N        -1.6173800340        4.6668312128       11.0553299955
 Ga        -1.6178719915        4.6714749334       13.0524395487
  N        -1.6093545676        2.8008616882       13.6539600957
 Ga        -1.5950949590        2.8149747287       15.6567279222
  N        -1.5866012408        4.6822726465       16.3076101059
 Ga        -1.5130107111        4.6784174624       18.3841414918
  N        -1.4625189561        2.8266711351       19.0172612122
 Ga        -3.2435918144        5.5952854561        0.3241930722
  N        -3.2373259079        7.4661068208        0.6065338717
 Ga        -3.2643839469        7.4808206065        2.6381074165
  N        -3.2426876476        5.5952992943        3.2285645337
 Ga        -3.2418982401        5.5960229803        5.2400376723
  N        -3.2358444229        7.4662964598        5.8470342031
 Ga        -3.2359046067        7.4670604385        7.8461148333
  N        -3.2398955785        5.5961625371        8.4492401773
 Ga        -3.2386755046        5.5972464309       10.4445855125
  N        -3.2307812527        7.4657568560       11.0554929469
 Ga        -3.2220730300        7.4629234945       13.0533370305
  N        -3.2332389994        5.5989363490       13.6950081029
 Ga        -3.2220299840        5.5931655250       15.7309421662
  N        -3.2140452073        7.4804043222       16.2618908534
 Ga        -3.1816154369        7.4508817855       18.3204621734
  N        -3.1599941036        5.5888409543       18.8542366554
 Ga         3.2428398806       -0.0154150766        0.3245375458
  N         3.2411219758        1.8546293257        0.6063841805
 Ga         3.2695229705        1.8704168766        2.6370970070
  N         3.2425882550       -0.0154481104        3.2282164651
 Ga         3.2439750806       -0.0146636648        5.2399059528
  N         3.2445897299        1.8554930225        5.8475404378
 Ga         3.2469718812        1.8562285732        7.8469279086
  N         3.2449119603       -0.0147652914        8.4495676484
 Ga         3.2477429398       -0.0140740773       10.4450323308
  N         3.2512451871        1.8568163535       11.0511130987
 Ga         3.2575873378        1.8536991661       13.0482188655
  N         3.2567443032       -0.0169179330       13.6606262222
 Ga         3.2737437769       -0.0175076864       15.6661142561
  N         3.2812455366        1.8605857412       16.2211721008
 Ga         3.3167025205        1.8602608719       18.2464176635
  N         3.3124660412       -0.0286638897       18.7035292724
 Ga         1.6222584278        2.7908395958        0.3241617313
  N         1.6291655072        4.6604531825        0.6072159099
 Ga         1.6011651858        4.6758581596        2.6370696002
  N         1.6226840876        2.7900621910        3.2289727290
 Ga         1.6242025541        2.7909378628        5.2408653881
  N         1.6297069014        4.6611622803        5.8484672034
 Ga         1.6300654508        4.6614583320        7.8482499204
  N         1.6260196846        2.7902731761        8.4493689886
 Ga         1.6291781368        2.7916085345       10.4448484645
  N         1.6276198571        4.6623095218       11.0487003867
 Ga         1.6289003156        4.6632533910       13.0433970651
  N         1.6325642475        2.7878530558       13.6461906753
 Ga         1.6456034536        2.7789956709       15.6405699587
  N         1.6328034536        4.6648269359       16.1833823830
 Ga         1.6768213468        4.6404801897       18.1825837116
  N         1.6840280041        2.7774238165       18.6460216208
 Ga         0.0031035051        5.5957653018       -0.5474663506
  N         0.0059419446        7.4706329463        0.6069033454
 Ga         0.0060496004        7.4383313297        2.6368369937
  N         0.0029974657        5.5951905385        3.2695389704
 Ga         0.0046659873        5.5961913818        5.2597376240
  N         0.0074489456        7.4707016905        5.8477705860
 Ga         0.0088177401        7.4692963038        7.8471985125
  N         0.0049304970        5.5957318234        8.4470915542
 Ga         0.0064671467        5.5971582257       10.4441572781
  N         0.0116602432        7.4692179134       11.0459932119
 Ga         0.0140419130        7.4711229415       13.0385111806
  N         0.0066796110        5.6019192350       13.6473734347
 Ga         0.0043241053        5.6022989009       15.6425452310
  N         0.0343492277        7.4613184715       16.2757836293
 Ga         0.0818359158        7.4289989055       18.3605184193
  N         0.1405869112        5.5771700077       18.9084148115
 Ga         6.4869959312       -0.0149793754        0.3237619008
  N         6.4936513277        1.8550778549        0.6060327792
 Ga         6.4661535491        1.8702434397        2.6368812109
  N         6.4882287792       -0.0153886035        3.2287997148
 Ga         6.4897471441       -0.0146850830        5.2407460519
  N         6.4945238972        1.8558565784        5.8479672083
 Ga         6.4945188727        1.8569209354        7.8474880270
  N         6.4909492552       -0.0136565358        8.4510588963
 Ga         6.4943505701       -0.0113456534       10.4475032611
  N         6.4967380315        1.8609688799       11.0528369395
 Ga         6.5002221767        1.8659215510       13.0499184744
  N         6.4899007382       -0.0078882696       13.6396920765
 Ga         6.5048489001        0.0006736321       15.6424967490
  N         6.5219297464        1.8773291022       16.2353367352
 Ga         6.6567948736        1.9247757778       18.2972092699
  N         6.5628152573       -0.0014906915       18.6493559931
 Ga         4.8675606870        2.7916300201       -0.5415900485
  N         4.8709646317        4.6647612358        0.6069149758
 Ga         4.8708053388        4.6333628453        2.6373499497
  N         4.8682820554        2.7899343362        3.2691853337
 Ga         4.8695518159        2.7911212606        5.2594772851
  N         4.8721580783        4.6652159558        5.8481406376
 Ga         4.8728192946        4.6639664778        7.8477420697
  N         4.8708986841        2.7913975338        8.4502741995
 Ga         4.8736813899        2.7953180732       10.4496707186
  N         4.8797388614        4.6661478042       11.0585322089
 Ga         4.8830387898        4.6703308057       13.0611033511
  N         4.8747581459        2.7953963898       13.6517064306
 Ga         4.8849585487        2.8008327892       15.6645171199
  N         4.8657189515        4.6729817057       16.1738672409
 Ga         4.9295320127        4.6591392405       19.0949858004
  N         4.9551173691        2.7706506314       18.7379829985
 Ga         3.2487250815        5.5947847763        0.3237247051
  N         3.2479517585        7.4655083128        0.6060009248
 Ga         3.2756297903        7.4806843282        2.6376388316
  N         3.2485937720        5.5955404511        3.2289716950
 Ga         3.2499723701        5.5963724375        5.2406137071
  N         3.2504674456        7.4661695719        5.8494069283
 Ga         3.2531783962        7.4666761380        7.8496701545
  N         3.2514206821        5.5959745176        8.4547651719
 Ga         3.2548963991        5.5974836753       10.4536742689
  N         3.2566710206        7.4713286131       11.0515808309
 Ga         3.2585243483        7.4719190002       13.0487207641
  N         3.2487616575        5.5962870048       13.6320678614
 Ga         3.2597818598        5.6060893082       15.6381041766
  N         3.2811225274        7.4891692650       16.1556118927
 Ga         3.3264359810        7.4957757406       18.1709291592
  N         3.3577548037        5.5729595703       18.4696240308
  O         1.5523949271        5.0322542571       21.2549788946
  H         0.9930276080        5.3932397103       20.4868670619
  C         0.7592410563        3.9392308321       21.7953516402
  H         0.0313840908        3.5232565441       21.0058702379
  H         1.5320211513        3.2343509686       22.1793233908
  H         0.3369323151        4.3634649377       22.7394381488
  O         4.2312453456        4.7164939799       21.0756689472
  H         3.2214395853        4.8671576241       21.0755435411
  C         4.5516509123        3.5969754964       21.9427665008
  H         4.1180027400        2.6626156133       21.5598440731
  H         5.6437171190        3.5042102345       21.9648996576
  H         4.1787631958        3.8120002258       22.9522755501
     156
 i =        2, E =     -6136.6481754490
 Ga        -0.0031907948       -0.0157939450       -0.5378199796
  N        -0.0002580832        1.8586008331        0.6072672263
 Ga        -0.0002922241        1.8279316003        2.6382474461
  N        -0.0033696329       -0.0155922468        3.2697823345
 Ga        -0.0021357007       -0.0150539106        5.2602468501
  N         0.0008577049        1.8596986784        5.8484098866
 Ga         0.0022329394        1.8582318402        7.8483529195
  N         0.0009259397       -0.0150921750        8.4510036114
 Ga         0.0039053892       -0.0154764093       10.4504342526
  N         0.0042398020        1.8601341067       11.0430275407
 Ga         0.0101687314        1.8620349334       13.0339023827
  N         0.0157706117       -0.0091225955       13.6302499502
 Ga         0.0295268454       -0.0149758084       15.6221171517
  N         0.0180368001        1.8575971634       16.2351769747
 Ga         0.0481104697        1.8569227798       18.3077852799
  N         0.0470495110       -0.0279347283       18.6913810766
 Ga        -1.6229196354        2.7899391074        0.3235437705
  N        -1.6248796535        4.6596726338        0.6069873877
 Ga        -1.5957799654        4.6756849097        2.6367880462
  N        -1.6230374740        2.7898257432        3.2283265141
 Ga        -1.6217754482        2.7906248622        5.2397144089
  N        -1.6212663142        4.6608848965        5.8464811702
 Ga        -1.6191414590        4.6615768870        7.8451262715
  N        -1.6204298817        2.7919743050        8.4518077447
 Ga        -1.6192231950        2.7955144063       10.4478782618
  N        -1.6176813963        4.6670613608       11.0553629272
 Ga        -1.6171335519        4.6710314340       13.0522529461
  N        -1.6081941648        2.7995458147       13.6523757370
 Ga        -1.5933245936        2.8178879066       15.6526728879
  N        -1.5878839486        4.6792471069       16.3165902358
 Ga        -1.5054989926        4.6672388486       18.3946691797
  N        -1.4360810574        2.8322423445       19.1122543712
 Ga        -3.2435870811        5.5955985748        0.3234961590
  N        -3.2372367401        7.4660846605        0.6075372398
 Ga        -3.2642592942        7.4807352794        2.6384538240
  N        -3.2427721363        5.5951352334        3.2287282895
 Ga        -3.2419268860        5.5960198185        5.2400107898
  N        -3.2357309774        7.4663487819        5.8469578908
 Ga        -3.2357759091        7.4669971777        7.8460038731
  N        -3.2398846379        5.5961799772        8.4496217117
 Ga        -3.2386622325        5.5971439485       10.4447461095
  N        -3.2307839530        7.4653340997       11.0554171952
 Ga        -3.2220398576        7.4635727363       13.0540073461
  N        -3.2354141077        5.5963422759       13.6897015195
 Ga        -3.2192561184        5.5927739249       15.7268184003
  N        -3.2103905471        7.4755690541       16.2705355765
 Ga        -3.1827120119        7.4474873502       18.3264417314
  N        -3.1588560991        5.5815125899       18.8416302723
 Ga         3.2425978025       -0.0155508107        0.3238459957
  N         3.2413617409        1.8547573278        0.6064697891
 Ga         3.2696364941        1.8704438155        2.6372586417
  N         3.2426809797       -0.0152588122        3.2283067510
 Ga         3.2440301295       -0.0145647734        5.2397671526
  N         3.2446600828        1.8555453664        5.8474513646
 Ga         3.2472594447        1.8563032284        7.8467193677
  N         3.2448659939       -0.0145947444        8.4503147882
 Ga         3.2478348322       -0.0142203932       10.4460276468
  N         3.2521681403        1.8572068188       11.0511481561
 Ga         3.2587793084        1.8539025885       13.0484851449
  N         3.2570266033       -0.0161928559       13.6598289887
 Ga         3.2713764330       -0.0208299250       15.6667002151
  N         3.2793087068        1.8552482595       16.2300837181
 Ga         3.3392832506        1.8552272450       18.2553055676
  N         3.3054558069       -0.0251553810       18.7196189159
 Ga         1.6220291714        2.7906525092        0.3234909571
  N         1.6294173240        4.6603075164        0.6073010915
 Ga         1.6012951384        4.6757878762        2.6371091231
  N         1.6229046181        2.7899658568        3.2290648136
 Ga         1.6243418811        2.7909258202        5.2406959395
  N         1.6297975875        4.6611394354        5.8483131398
 Ga         1.6302677136        4.6617380437        7.8481929536
  N         1.6262758028        2.7903808374        8.4501618593
 Ga         1.6294899217        2.7921086807       10.4458681657
  N         1.6275349506        4.6627789504       11.0490641124
 Ga         1.6295213964        4.6645935016       13.0449726365
  N         1.6325601972        2.7875315946       13.6441093049
 Ga         1.6486321495        2.7855607309       15.6384888018
  N         1.6273375005        4.6641004525       16.1866558998
 Ga         1.6774776060        4.6439468361       18.1841747497
  N         1.7024545275        2.7792554318       18.6247474875
 Ga         0.0031799220        5.5957547372       -0.5469607194
  N         0.0059695325        7.4708592713        0.6070115869
 Ga         0.0060957191        7.4384107513        2.6369140159
  N         0.0030598870        5.5951749428        3.2695188202
 Ga         0.0046913763        5.5962352291        5.2596273116
  N         0.0074616879        7.4707782674        5.8477635981
 Ga         0.0089308703        7.4693625480        7.8473403490
  N         0.0049495595        5.5956563057        8.4477135963
 Ga         0.0063106961        5.5972124765       10.4450132324
  N         0.0119235207        7.4692678209       11.0453119288
 Ga         0.0150727703        7.4718181967       13.0380403669
  N         0.0053772955        5.6024409831       13.6436108150
 Ga         0.0038753887        5.6002133854       15.6404520972
  N         0.0397048567        7.4626803110       16.2724509033
 Ga         0.0784914073        7.4466623923       18.3581161441
  N         0.1421588649        5.5928223642       18.8956124118
 Ga         6.4872985536       -0.0151226265        0.3230839286
  N         6.4934635345        1.8551973532        0.6061244817
 Ga         6.4661206422        1.8702666690        2.6370507427
  N         6.4882147329       -0.0151956245        3.2289857305
 Ga         6.4898011500       -0.0145578126        5.2407614167
  N         6.4945963256        1.8559601979        5.8480028011
 Ga         6.4944573773        1.8569324536        7.8474620361
  N         6.4910121180       -0.0134765912        8.4515626049
 Ga         6.4943467182       -0.0110360718       10.4480632099
  N         6.4963727207        1.8612979935       11.0521048225
 Ga         6.5011444997        1.8650924448       13.0485055064
  N         6.4902154350       -0.0056059560       13.6409482685
 Ga         6.5077265085        0.0062389241       15.6452761440
  N         6.5325858249        1.8819835419       16.2585267454
 Ga         6.6795494989        1.9371310850       18.3280707501
  N         6.5695149287        0.0043378689       18.6541392636
 Ga         4.8676059025        2.7915603565       -0.5398143098
  N         4.8710082936        4.6644696070        0.6070134978
 Ga         4.8708451412        4.6332798774        2.6375588347
  N         4.8683167851        2.7899078909        3.2692734099
 Ga         4.8696399227        2.7911816041        5.2594401234
  N         4.8722524583        4.6651878898        5.8481060859
 Ga         4.8728460711        4.6640331002        7.8476257268
  N         4.8709792895        2.7915288820        8.4503818651
 Ga         4.8740880347        2.7955636366       10.4491727184
  N         4.8800923908        4.6657047131       11.0577091875
 Ga         4.8797370988        4.6700888109       13.0598458707
  N         4.8776269435        2.7960670198       13.6589850930
 Ga         4.8902957477        2.7970146497       15.6771671729
  N         4.8649867926        4.6745041787       16.1644449358
 Ga         4.9318456974        4.6607347344       19.1022432543
  N         4.9684314203        2.7827089322       18.7335959575
 Ga         3.2487848366        5.5950694711        0.3230561422
  N         3.2479188660        7.4654624695        0.6070624271
 Ga         3.2755842277        7.4806010038        2.6380340526
  N         3.2487499436        5.5953639700        3.2291331392
 Ga         3.2501728800        5.5963567919        5.2405810641
  N         3.2505122695        7.4661787950        5.8493947705
 Ga         3.2530971233        7.4666099070        7.8497478253
  N         3.2516320111        5.5959564262        8.4556629532
 Ga         3.2550156560        5.5977031801       10.4550167044
  N         3.2563610219        7.4717684846       11.0506156821
 Ga         3.2579120479        7.4730598508       13.0483327051
  N         3.2493640399        5.5989824595       13.6307335655
 Ga         3.2541746192        5.6075737524       15.6373393826
  N         3.2801796302        7.4883670606       16.1563219165
 Ga         3.3234817694        7.4916166233       18.1682525235
  N         3.3645033397        5.5697161035       18.4690514704
  O         1.5583886585        5.0429328342       21.2099526577
  H         0.9832642629        5.4152568982       20.4696887145
  C         0.7811174320        3.9549230438       21.7813975201
  H         0.0278054155        3.5212152511       21.0140851382
  H         1.4717167966        3.1707610468       22.1222098487
  H         0.2491807863        4.3157542119       22.6790097935
  O         4.2267639266        4.7177922178       21.0732699698
  H         3.2176018816        4.8592968443       21.0804364480
  C         4.5506241272        3.5998458639       21.9413797621
  H         4.1181482078        2.6643318316       21.5607986744
  H         5.6422230233        3.5041962428       21.9649733271
  H         4.1787942116        3.8104202748       22.9518781429
     156
 i =        3, E =     -6136.6509560710
 Ga        -0.0031846127       -0.0158690537       -0.5416659156
  N        -0.0002243775        1.8588092165        0.6076042014
 Ga        -0.0002522805        1.8278330053        2.6380515795
  N        -0.0033167349       -0.0156196971        3.2701540480
 Ga        -0.0021014851       -0.0149734452        5.2604571688
  N         0.0009271760        1.8597813962        5.8489589969
 Ga         0.0024389723        1.8584249883        7.8488434072
  N         0.0009954290       -0.0149353776        8.4503597938
 Ga         0.0039471784       -0.0153834206       10.4493404128
  N         0.0044578670        1.8601822026       11.0432306980
 Ga         0.0121239453        1.8615009073       13.0338586737
  N         0.0165798677       -0.0080673234       13.6358406273
 Ga         0.0318307450       -0.0164113944       15.6292393597
  N         0.0199511264        1.8604172452       16.2451871056
 Ga         0.0519592324        1.8689926878       18.3236987943
  N         0.0455837868       -0.0229492869       18.6776052652
 Ga        -1.6225995769        2.7897617337        0.3236189831
  N        -1.6249902799        4.6595764355        0.6064760153
 Ga        -1.5957886342        4.6756408600        2.6365363568
  N        -1.6230640191        2.7898199618        3.2284090071
 Ga        -1.6216741763        2.7906724665        5.2398502377
  N        -1.6211531858        4.6609467237        5.8468032960
 Ga        -1.6189072190        4.6616567022        7.8454434781
  N        -1.6203039753        2.7920779465        8.4513632950
 Ga        -1.6190335306        2.7954179316       10.4468267502
  N        -1.6176770157        4.6667798035       11.0540429537
 Ga        -1.6172372647        4.6703240353       13.0503393966
  N        -1.6068646549        2.7982285376       13.6545533947
 Ga        -1.5919924279        2.8165717058       15.6521977437
  N        -1.5878474333        4.6735643554       16.3215854475
 Ga        -1.4996119296        4.6580634677       18.4023550402
  N        -1.4388067595        2.8263478441       19.1155133800
 Ga        -3.2435464980        5.5959314993        0.3235900121
  N        -3.2369909640        7.4659625035        0.6078943597
 Ga        -3.2642606657        7.4807480410        2.6382670345
  N        -3.2427610295        5.5950489099        3.2287613298
 Ga        -3.2418338163        5.5960264431        5.2400788509
  N        -3.2356383655        7.4663812991        5.8473264603
 Ga        -3.2356843103        7.4671362020        7.8463813093
  N        -3.2397182153        5.5962384111        8.4495236587
 Ga        -3.2390228705        5.5970611118       10.4446384801
  N        -3.2309685973        7.4654991934       11.0549790249
 Ga        -3.2220946956        7.4639907133       13.0538815857
  N        -3.2354149009        5.5952856668       13.6894572243
 Ga        -3.2170547050        5.5905100492       15.7281372070
  N        -3.2064454581        7.4704207760       16.2763257226
 Ga        -3.1818373572        7.4453759622       18.3304791155
  N        -3.1567309484        5.5773037691       18.8352339032
 Ga         3.2423542346       -0.0157362757        0.3239584610
  N         3.2416183369        1.8548745954        0.6059134507
 Ga         3.2696591641        1.8704035339        2.6371784775
  N         3.2427944979       -0.0152234611        3.2283561313
 Ga         3.2441330907       -0.0145162700        5.2398540786
  N         3.2447387048        1.8555928305        5.8478239820
 Ga         3.2471654159        1.8563550197        7.8470677119
  N         3.2449572340       -0.0144983681        8.4502789786
 Ga         3.2480011509       -0.0139316583       10.4459640150
  N         3.2526677681        1.8576690332       11.0522490105
 Ga         3.2603061787        1.8540472444       13.0499259951
  N         3.2561679594       -0.0158253522       13.6610489375
 Ga         3.2692207265       -0.0220363406       15.6685118300
  N         3.2840541157        1.8516470127       16.2379998612
 Ga         3.3552204896        1.8532427023       18.2624730361
  N         3.3020829940       -0.0198647721       18.7342285850
 Ga         1.6217793010        2.7904798603        0.3235822926
  N         1.6296211047        4.6602072698        0.6068312836
 Ga         1.6014223142        4.6757501440        2.6368940893
  N         1.6230332269        2.7899442032        3.2291669893
 Ga         1.6243849548        2.7910081452        5.2408752738
  N         1.6298727704        4.6612180583        5.8487684681
 Ga         1.6302712720        4.6617914091        7.8487126082
  N         1.6264123825        2.7905143111        8.4500632814
 Ga         1.6298766575        2.7922699102       10.4454486000
  N         1.6276050404        4.6628478465       11.0478702914
 Ga         1.6284774018        4.6651306434       13.0440039316
  N         1.6338041813        2.7880706400       13.6474928533
 Ga         1.6520670974        2.7856313431       15.6430510310
  N         1.6248407170        4.6621740775       16.1842961035
 Ga         1.6793745103        4.6479931486       18.1827220048
  N         1.7158419100        2.7832808723       18.6120482498
 Ga         0.0032419643        5.5957480870       -0.5450825279
  N         0.0060095781        7.4710179380        0.6065360475
 Ga         0.0061716134        7.4384741653        2.6366766337
  N         0.0031070704        5.5951766072        3.2693048920
 Ga         0.0048024232        5.5962495880        5.2596070932
  N         0.0075328677        7.4707827962        5.8481530956
 Ga         0.0089583647        7.4693485266        7.8477928492
  N         0.0050078217        5.5957222923        8.4475409680
 Ga         0.0064777265        5.5974873627       10.4447445887
  N         0.0121404842        7.4695467288       11.0459680935
 Ga         0.0161916360        7.4730143678       13.0398483455
  N         0.0033718143        5.6021493450       13.6439269318
 Ga         0.0038136549        5.6022429359       15.6431997536
  N         0.0433593813        7.4678312701       16.2679741622
 Ga         0.0735083488        7.4613183686       18.3493956363
  N         0.1445644478        5.6061844563       18.8831661057
 Ga         6.4876292702       -0.0153208523        0.3232126524
  N         6.4932835155        1.8552935684        0.6055602371
 Ga         6.4662270836        1.8702145772        2.6369391171
  N         6.4882115037       -0.0151237623        3.2290888539
 Ga         6.4898730237       -0.0145327446        5.2408931909
  N         6.4946931161        1.8559917628        5.8483180892
 Ga         6.4946698184        1.8569866740        7.8477111071
  N         6.4910301900       -0.0133609238        8.4510305021
 Ga         6.4943672179       -0.0107438098       10.4473808224
  N         6.4965265417        1.8618120976       11.0519487400
 Ga         6.5009162518        1.8659927127       13.0478948255
  N         6.4910343169       -0.0017078772       13.6445552616
 Ga         6.5104891182        0.0111277832       15.6506494373
  N         6.5425016127        1.8854167675       16.2811807654
 Ga         6.6746797907        1.9319577172       18.3538390487
  N         6.5732724037        0.0016729562       18.6565742029
 Ga         4.8676721374        2.7915095264       -0.5367190370
  N         4.8710599559        4.6641936417        0.6064562452
 Ga         4.8708957193        4.6333082931        2.6374651446
  N         4.8683952446        2.7898927512        3.2691159076
 Ga         4.8697315595        2.7912181064        5.2594861761
  N         4.8723188124        4.6652457295        5.8484047198
 Ga         4.8728458802        4.6642331101        7.8479301366
  N         4.8710892051        2.7915430931        8.4497415898
 Ga         4.8741886443        2.7956143687       10.4481167722
  N         4.8796110624        4.6652833049       11.0587863469
 Ga         4.8784362825        4.6685989118       13.0619968485
  N         4.8791748196        2.7952502340       13.6677334321
 Ga         4.8990414362        2.7937629736       15.6896240100
  N         4.8629221931        4.6748202157       16.1574080538
 Ga         4.9333500024        4.6631003991       19.1070146298
  N         4.9757140794        2.7924295045       18.7357086641
 Ga         3.2488338779        5.5953909726        0.3231830085
  N         3.2477516610        7.4653250759        0.6074982540
 Ga         3.2756623764        7.4806175376        2.6379117137
  N         3.2488566175        5.5952808850        3.2291942182
 Ga         3.2502092177        5.5963815132        5.2406695592
  N         3.2505590435        7.4661780393        5.8498021144
 Ga         3.2531752230        7.4666741629        7.8501517481
  N         3.2516297381        5.5960738557        8.4552518312
 Ga         3.2549162594        5.5981335627       10.4546232048
  N         3.2564505032        7.4724371189       11.0506444642
 Ga         3.2573914956        7.4749179374       13.0493545960
  N         3.2479388823        5.6005086292       13.6294120645
 Ga         3.2515166112        5.6109058733       15.6366103768
  N         3.2820601309        7.4895348797       16.1555519356
 Ga         3.3224447212        7.4917754209       18.1639542349
  N         3.3714447170        5.5701924493       18.4627148653
  O         1.5486145588        5.0293906724       21.2086851158
  H         0.9855535665        5.4222665292       20.4659164588
  C         0.7597298987        3.9412448075       21.7610922807