 DBCSR| Multiplication driver                                               BLAS
 DBCSR| Multrec recursion limit                                              512
 DBCSR| Multiplication stack size                                           1000
 DBCSR| Maximum elements for images                                    UNLIMITED
 DBCSR| Multiplicative factor virtual images                                   1
 DBCSR| Multiplication size stacks                                             3
 DBCSR| Number of 3D layers                                               SINGLE
 DBCSR| Use MPI memory allocation                                              T
 DBCSR| Use RMA algorithm                                                      F
 DBCSR| Use Communication thread                                               T
 DBCSR| Communication thread load                                             87


  **** **** ******  **  PROGRAM STARTED AT               2019-06-28 21:50:10.550
 ***** ** ***  *** **   PROGRAM STARTED ON        blg9227.int.ets1.calculquebec.
 **    ****   ******    PROGRAM STARTED BY                                   rzk
 ***** **    ** ** **   PROGRAM PROCESS ID                                 68373
  **** **  *******  **  PROGRAM STARTED IN /scratch/rzk/rzk/GaN-carbene/443-adat
                                           oms-both-2x2/06-CH3O-HO-H-H3C/01-UseU
                                           noptimized-0501

 CP2K| version string:                    CP2K version 7.0 (Development Version)
 CP2K| source code revision number:                                    svn:18619
 CP2K| cp2kflags: libint fftw3 libxc parallel mpi3 scalapack mkl                
 CP2K| is freely available from                            https://www.cp2k.org/
 CP2K| Program compiled at                          Sun Apr  7 00:48:11 EDT 2019
 CP2K| Program compiled on                      beluga2.int.ets1.calculquebec.ca
 CP2K| Program compiled for                    Beluga-Linux-x86-64-intel-openmpi
 CP2K| Data directory path    /home/rzk/projects/def-rzk/group/cp2k/cp2k-mcgill/
 CP2K| Input file name                                                 start.inp
 
 GLOBAL| Force Environment number                                              1
 GLOBAL| Basis set file name                                        BASIS_MOLOPT
 GLOBAL| Potential file name                                      GTH_POTENTIALS
 GLOBAL| MM Potential file name                                     MM_POTENTIAL
 GLOBAL| Coordinate file name                                      __STD_INPUT__
 GLOBAL| Method name                                                        CP2K
 GLOBAL| Project name                                                       TEST
 GLOBAL| Preferred FFT library                                             FFTW3
 GLOBAL| Preferred diagonalization lib.                                       SL
 GLOBAL| Run type                                                        GEO_OPT
 GLOBAL| All-to-all communication in single precision                          F
 GLOBAL| FFTs using library dependent lengths                                  F
 GLOBAL| Global print level                                               MEDIUM
 GLOBAL| MPI I/O enabled                                                       T
 GLOBAL| Total number of message passing processes                            80
 GLOBAL| Number of threads for this process                                    1
 GLOBAL| This output is from process                                           0
 GLOBAL| CPU model name :  Intel(R) Xeon(R) Gold 6148 CPU @ 2.40GHz

 MEMORY| system memory details [Kb]
 MEMORY|                        rank 0           min           max       average
 MEMORY| MemTotal            196614300     196614300     196614300     196614300
 MEMORY| MemFree             181866036     181744184     181911268     181864232
 MEMORY| Buffers                    76             0            76            38
 MEMORY| Cached                1281568       1281568       1671368       1475262
 MEMORY| Slab                  1919272       1727256       1919272       1823283
 MEMORY| SReclaimable           199824        199824        471368        335568
 MEMORY| MemLikelyFree       183347504     183345644     184049888     183675100


 *** Fundamental physical constants (SI units) ***

 *** Literature: B. J. Mohr and B. N. Taylor,
 ***             CODATA recommended values of the fundamental physical
 ***             constants: 2006, Web Version 5.1
 ***             http://physics.nist.gov/constants

 Speed of light in vacuum [m/s]                             2.99792458000000E+08
 Magnetic constant or permeability of vacuum [N/A**2]       1.25663706143592E-06
 Electric constant or permittivity of vacuum [F/m]          8.85418781762039E-12
 Planck constant (h) [J*s]                                  6.62606896000000E-34
 Planck constant (h-bar) [J*s]                              1.05457162825177E-34
 Elementary charge [C]                                      1.60217648700000E-19
 Electron mass [kg]                                         9.10938215000000E-31
 Electron g factor [ ]                                     -2.00231930436220E+00
 Proton mass [kg]                                           1.67262163700000E-27
 Fine-structure constant                                    7.29735253760000E-03
 Rydberg constant [1/m]                                     1.09737315685270E+07
 Avogadro constant [1/mol]                                  6.02214179000000E+23
 Boltzmann constant [J/K]                                   1.38065040000000E-23
 Atomic mass unit [kg]                                      1.66053878200000E-27
 Bohr radius [m]                                            5.29177208590000E-11

 *** Conversion factors ***

 [u] -> [a.u.]                                              1.82288848426455E+03
 [Angstrom] -> [Bohr] = [a.u.]                              1.88972613288564E+00
 [a.u.] = [Bohr] -> [Angstrom]                              5.29177208590000E-01
 [a.u.] -> [s]                                              2.41888432650478E-17
 [a.u.] -> [fs]                                             2.41888432650478E-02
 [a.u.] -> [J]                                              4.35974393937059E-18
 [a.u.] -> [N]                                              8.23872205491840E-08
 [a.u.] -> [K]                                              3.15774647902944E+05
 [a.u.] -> [kJ/mol]                                         2.62549961709828E+03
 [a.u.] -> [kcal/mol]                                       6.27509468713739E+02
 [a.u.] -> [Pa]                                             2.94210107994716E+13
 [a.u.] -> [bar]                                            2.94210107994716E+08
 [a.u.] -> [atm]                                            2.90362800883016E+08
 [a.u.] -> [eV]                                             2.72113838565563E+01
 [a.u.] -> [Hz]                                             6.57968392072181E+15
 [a.u.] -> [1/cm] (wave numbers)                            2.19474631370540E+05
 [a.u./Bohr**2] -> [1/cm]                                   5.14048714338585E+03
 

 CELL_TOP| Volume [angstrom^3]:                                         4586.323
 CELL_TOP| Vector a [angstrom    12.864     0.000     0.000    |a| =      12.864
 CELL_TOP| Vector b [angstrom    -6.432    11.141     0.000    |b| =      12.864
 CELL_TOP| Vector c [angstrom     0.000     0.000    32.000    |c| =      32.000
 CELL_TOP| Angle (b,c), alpha [degree]:                                   90.000
 CELL_TOP| Angle (a,c), beta  [degree]:                                   90.000
 CELL_TOP| Angle (a,b), gamma [degree]:                                  120.000
 CELL_TOP| Numerically orthorhombic:                                          NO
 
 GENERATE|  Preliminary Number of Bonds generated:                             0
 GENERATE|  Achieved consistency in connectivity generation.

 CELL| Volume [angstrom^3]:                                             4586.323
 CELL| Vector a [angstrom]:      12.864     0.000     0.000    |a| =      12.864
 CELL| Vector b [angstrom]:      -6.432    11.141     0.000    |b| =      12.864
 CELL| Vector c [angstrom]:       0.000     0.000    32.000    |c| =      32.000
 CELL| Angle (b,c), alpha [degree]:                                       90.000
 CELL| Angle (a,c), beta  [degree]:                                       90.000
 CELL| Angle (a,b), gamma [degree]:                                      120.000
 CELL| Numerically orthorhombic:                                              NO

 CELL_REF| Volume [angstrom^3]:                                         4670.759
 CELL_REF| Vector a [angstrom    12.982     0.000     0.000    |a| =      12.982
 CELL_REF| Vector b [angstrom    -6.491    11.243     0.000    |b| =      12.982
 CELL_REF| Vector c [angstrom     0.000     0.000    32.000    |c| =      32.000
 CELL_REF| Angle (b,c), alpha [degree]:                                   90.000
 CELL_REF| Angle (a,c), beta  [degree]:                                   90.000
 CELL_REF| Angle (a,b), gamma [degree]:                                  120.000
 CELL_REF| Numerically orthorhombic:                                          NO

 *******************************************************************************
 *******************************************************************************
 **                                                                           **
 **     #####                         ##              ##                      **
 **    ##   ##            ##          ##              ##                      **
 **   ##     ##                       ##            ######                    **
 **   ##     ##  ##   ##  ##   #####  ##  ##   ####   ##    #####    #####    **
 **   ##     ##  ##   ##  ##  ##      ## ##   ##      ##   ##   ##  ##   ##   **
 **   ##  ## ##  ##   ##  ##  ##      ####     ###    ##   ######   ######    **
 **    ##  ###   ##   ##  ##  ##      ## ##      ##   ##   ##       ##        **
 **     #######   #####   ##   #####  ##  ##  ####    ##    #####   ##        **
 **           ##                                                    ##        **
 **                                                                           **
 **                                                ... make the atoms dance   **
 **                                                                           **
 **            Copyright (C) by CP2K developers group (2000 - 2018)           **
 **                                                                           **
 *******************************************************************************

 DFT| Spin unrestricted (spin-polarized) Kohn-Sham calculation               UKS
 DFT| Multiplicity                                                             1
 DFT| Number of spin states                                                    2
 DFT| Charge                                                                   0
 DFT| Self-interaction correction (SIC)                                       NO
 DFT| Cutoffs: density                                              1.000000E-10
 DFT|          gradient                                             1.000000E-10
 DFT|          tau                                                  1.000000E-10
 DFT|          cutoff_smoothing_range                               0.000000E+00
 DFT| XC density smoothing                                                  NONE
 DFT| XC derivatives                                                          PW
 FUNCTIONAL| ROUTINE=NEW
 FUNCTIONAL| PBE:
 FUNCTIONAL| J.P.Perdew, K.Burke, M.Ernzerhof, Phys. Rev. Letter, vol. 77, n 18,
 FUNCTIONAL|  pp. 3865-3868, (1996){spin polarized}                             
 vdW POTENTIAL|                                                   Pair Potential
 vdW POTENTIAL|          DFT-D3 (Version 3.1)
 vdW POTENTIAL|          Potential Form: S. Grimme et al, JCP 132: 154104 (2010)
 vdW POTENTIAL|          Zero Damping
 vdW POTENTIAL|          Cutoff Radius [Bohr]:                             18.90
 vdW POTENTIAL|          s6 Scaling Factor:                               1.0000
 vdW POTENTIAL|          sr6 Scaling Factor:                              1.2170
 vdW POTENTIAL|          s8 Scaling Factor:                               0.7220
 vdW POTENTIAL|          Cutoff for CN calculation:                   0.1000E-05

 QS| Method:                                                                 GPW
 QS| Density plane wave grid type                        NON-SPHERICAL FULLSPACE
 QS| Number of grid levels:                                                    5
 QS| Density cutoff [a.u.]:                                                600.0
 QS| Multi grid cutoff [a.u.]: 1) grid level                               600.0
 QS|                           2) grid level                               200.0
 QS|                           3) grid level                                66.7
 QS|                           4) grid level                                22.2
 QS|                           5) grid level                                 7.4
 QS| Grid level progression factor:                                          3.0
 QS| Relative density cutoff [a.u.]:                                        20.0
 QS| Consistent realspace mapping and integration 
 QS| Interaction thresholds: eps_pgf_orb:                                1.0E-07
 QS|                         eps_filter_matrix:                          0.0E+00
 QS|                         eps_core_charge:                            1.0E-16
 QS|                         eps_rho_gspace:                             1.0E-14
 QS|                         eps_rho_rspace:                             1.0E-14
 QS|                         eps_gvg_rspace:                             1.0E-07
 QS|                         eps_ppl:                                    1.0E-02
 QS|                         eps_ppnl:                                   1.0E-09


 ATOMIC KIND INFORMATION

  1. Atomic kind: N                                     Number of atoms:     100

     Orbital Basis Set                                        DZVP-MOLOPT-SR-GTH

       Number of orbital shell sets:                                           1
       Number of orbital shells:                                               5
       Number of primitive Cartesian functions:                                5
       Number of Cartesian basis functions:                                   14
       Number of spherical basis functions:                                   13
       Norm type:                                                              2

       Normalised Cartesian orbitals:

                        Set   Shell   Orbital            Exponent    Coefficient

                          1       1    2s                7.341988       0.360561
                                                         2.542637       0.139177
                                                         0.888575      -0.289383
                                                         0.333802      -0.182244
                                                         0.112012      -0.019197

                          1       2    3s                7.341988       0.282000
                                                         2.542637       0.177875
                                                         0.888575      -0.278381
                                                         0.333802       0.008577
                                                         0.112012       0.154176

                          1       3    3px               7.341988      -1.188719
                                                         2.542637      -0.973969
                                                         0.888575      -0.501079
                                                         0.333802      -0.144894
                                                         0.112012      -0.013986
                          1       3    3py               7.341988      -1.188719
                                                         2.542637      -0.973969
                                                         0.888575      -0.501079
                                                         0.333802      -0.144894
                                                         0.112012      -0.013986
                          1       3    3pz               7.341988      -1.188719
                                                         2.542637      -0.973969
                                                         0.888575      -0.501079
                                                         0.333802      -0.144894
                                                         0.112012      -0.013986

                          1       4    4px               7.341988      -0.094798
                                                         2.542637       0.050069
                                                         0.888575      -0.114797
                                                         0.333802       0.144793
                                                         0.112012       0.066710
                          1       4    4py               7.341988      -0.094798
                                                         2.542637       0.050069
                                                         0.888575      -0.114797
                                                         0.333802       0.144793
                                                         0.112012       0.066710
                          1       4    4pz               7.341988      -0.094798
                                                         2.542637       0.050069
                                                         0.888575      -0.114797
                                                         0.333802       0.144793
                                                         0.112012       0.066710

                          1       5    4dx2              7.341988       1.354688
                                                         2.542637       0.690378
                                                         0.888575       0.855359
                                                         0.333802       0.091746
                                                         0.112012       0.001253
                          1       5    4dxy              7.341988       2.346389
                                                         2.542637       1.195770
                                                         0.888575       1.481524
                                                         0.333802       0.158910
                                                         0.112012       0.002169
                          1       5    4dxz              7.341988       2.346389
                                                         2.542637       1.195770
                                                         0.888575       1.481524
                                                         0.333802       0.158910
                                                         0.112012       0.002169
                          1       5    4dy2              7.341988       1.354688
                                                         2.542637       0.690378
                                                         0.888575       0.855359
                                                         0.333802       0.091746
                                                         0.112012       0.001253
                          1       5    4dyz              7.341988       2.346389
                                                         2.542637       1.195770
                                                         0.888575       1.481524
                                                         0.333802       0.158910
                                                         0.112012       0.002169
                          1       5    4dz2              7.341988       1.354688
                                                         2.542637       0.690378
                                                         0.888575       0.855359
                                                         0.333802       0.091746
                                                         0.112012       0.001253

     GTH Potential information for                                    GTH-PBE-q5

       Description:                       Goedecker-Teter-Hutter pseudopotential
                                           Goedecker et al., PRB 54, 1703 (1996)
                                          Hartwigsen et al., PRB 58, 3641 (1998)
                                                      Krack, TCA 114, 145 (2005)

       Gaussian exponent of the core charge distribution:               6.208322
       Electronic configuration (s p d ...):                               2   3

       Parameters of the local part of the GTH pseudopotential:

                          rloc        C1          C2          C3          C4
                        0.283791  -12.415226    1.868096

       Parameters of the non-local part of the GTH pseudopotential:

                   l      r(l)      h(i,j,l)

                   0    0.255405   13.630263
                   1    0.245495

  2. Atomic kind: Ga                                    Number of atoms:     100

     Orbital Basis Set                                        DZVP-MOLOPT-SR-GTH

       Number of orbital shell sets:                                           1
       Number of orbital shells:                                               7
       Number of primitive Cartesian functions:                                6
       Number of Cartesian basis functions:                                   30
       Number of spherical basis functions:                                   25
       Norm type:                                                              2

       Normalised Cartesian orbitals:

                        Set   Shell   Orbital            Exponent    Coefficient

                          1       1    2s                7.066654       0.013136
                                                         3.428369      -0.094392
                                                         1.430064       0.265435
                                                         0.571611       0.056465
                                                         0.232197      -0.192187
                                                         0.076562      -0.044987

                          1       2    3s                7.066654      -0.098564
                                                         3.428369       0.010390
                                                         1.430064       0.351249
                                                         0.571611       0.182615
                                                         0.232197      -0.425358
                                                         0.076562       0.190349

                          1       3    3px               7.066654       0.002364
                                                         3.428369       0.019222
                                                         1.430064       0.250132
                                                         0.571611      -0.058486
                                                         0.232197      -0.159451
                                                         0.076562      -0.020696
                          1       3    3py               7.066654       0.002364
                                                         3.428369       0.019222
                                                         1.430064       0.250132
                                                         0.571611      -0.058486
                                                         0.232197      -0.159451
                                                         0.076562      -0.020696
                          1       3    3pz               7.066654       0.002364
                                                         3.428369       0.019222
                                                         1.430064       0.250132
                                                         0.571611      -0.058486
                                                         0.232197      -0.159451
                                                         0.076562      -0.020696

                          1       4    4px               7.066654       0.492448
                                                         3.428369      -0.614736
                                                         1.430064      -0.191654
                                                         0.571611       0.037801
                                                         0.232197       0.302315
                                                         0.076562      -0.071336
                          1       4    4py               7.066654       0.492448
                                                         3.428369      -0.614736
                                                         1.430064      -0.191654
                                                         0.571611       0.037801
                                                         0.232197       0.302315
                                                         0.076562      -0.071336
                          1       4    4pz               7.066654       0.492448
                                                         3.428369      -0.614736
                                                         1.430064      -0.191654
                                                         0.571611       0.037801
                                                         0.232197       0.302315
                                                         0.076562      -0.071336

                          1       5    4dx2              7.066654     -15.264855
                                                         3.428369      -5.345726
                                                         1.430064      -1.022732
                                                         0.571611      -0.123148
                                                         0.232197      -0.006983
                                                         0.076562      -0.000022
                          1       5    4dxy              7.066654     -26.439504
                                                         3.428369      -9.259069
                                                         1.430064      -1.771423
                                                         0.571611      -0.213299
                                                         0.232197      -0.012094
                                                         0.076562      -0.000037
                          1       5    4dxz              7.066654     -26.439504
                                                         3.428369      -9.259069
                                                         1.430064      -1.771423
                                                         0.571611      -0.213299
                                                         0.232197      -0.012094
                                                         0.076562      -0.000037
                          1       5    4dy2              7.066654     -15.264855
                                                         3.428369      -5.345726
                                                         1.430064      -1.022732
                                                         0.571611      -0.123148
                                                         0.232197      -0.006983
                                                         0.076562      -0.000022
                          1       5    4dyz              7.066654     -26.439504
                                                         3.428369      -9.259069
                                                         1.430064      -1.771423
                                                         0.571611      -0.213299
                                                         0.232197      -0.012094
                                                         0.076562      -0.000037
                          1       5    4dz2              7.066654     -15.264855
                                                         3.428369      -5.345726
                                                         1.430064      -1.022732
                                                         0.571611      -0.123148
                                                         0.232197      -0.006983
                                                         0.076562      -0.000022

                          1       6    5dx2              7.066654      -5.739265
                                                         3.428369      -2.129289
                                                         1.430064      -0.700423
                                                         0.571611       0.161606
                                                         0.232197       0.043513
                                                         0.076562       0.011205
                          1       6    5dxy              7.066654      -9.940698
                                                         3.428369      -3.688037
                                                         1.430064      -1.213168
                                                         0.571611       0.279909
                                                         0.232197       0.075368
                                                         0.076562       0.019407
                          1       6    5dxz              7.066654      -9.940698
                                                         3.428369      -3.688037
                                                         1.430064      -1.213168
                                                         0.571611       0.279909
                                                         0.232197       0.075368
                                                         0.076562       0.019407
                          1       6    5dy2              7.066654      -5.739265
                                                         3.428369      -2.129289
                                                         1.430064      -0.700423
                                                         0.571611       0.161606
                                                         0.232197       0.043513
                                                         0.076562       0.011205
                          1       6    5dyz              7.066654      -9.940698
                                                         3.428369      -3.688037
                                                         1.430064      -1.213168
                                                         0.571611       0.279909
                                                         0.232197       0.075368
                                                         0.076562       0.019407
                          1       6    5dz2              7.066654      -5.739265
                                                         3.428369      -2.129289
                                                         1.430064      -0.700423
                                                         0.571611       0.161606
                                                         0.232197       0.043513
                                                         0.076562       0.011205

                          1       7    5fx3              7.066654       0.705879
                                                         3.428369      -0.273976
                                                         1.430064       0.113667
                                                         0.571611       0.132480
                                                         0.232197       0.012437
                                                         0.076562       0.003241
                          1       7    5fx2y             7.066654       1.578393
                                                         3.428369      -0.612629
                                                         1.430064       0.254167
                                                         0.571611       0.296234
                                                         0.232197       0.027811
                                                         0.076562       0.007246
                          1       7    5fx2z             7.066654       1.578393
                                                         3.428369      -0.612629
                                                         1.430064       0.254167
                                                         0.571611       0.296234
                                                         0.232197       0.027811
                                                         0.076562       0.007246
                          1       7    5fxy2             7.066654       1.578393
                                                         3.428369      -0.612629
                                                         1.430064       0.254167
                                                         0.571611       0.296234
                                                         0.232197       0.027811
                                                         0.076562       0.007246
                          1       7    5fxyz             7.066654       2.733856
                                                         3.428369      -1.061105
                                                         1.430064       0.440230
                                                         0.571611       0.513092
                                                         0.232197       0.048170
                                                         0.076562       0.012551
                          1       7    5fxz2             7.066654       1.578393
                                                         3.428369      -0.612629
                                                         1.430064       0.254167
                                                         0.571611       0.296234
                                                         0.232197       0.027811
                                                         0.076562       0.007246
                          1       7    5fy3              7.066654       0.705879
                                                         3.428369      -0.273976
                                                         1.430064       0.113667
                                                         0.571611       0.132480
                                                         0.232197       0.012437
                                                         0.076562       0.003241
                          1       7    5fy2z             7.066654       1.578393
                                                         3.428369      -0.612629
                                                         1.430064       0.254167
                                                         0.571611       0.296234
                                                         0.232197       0.027811
                                                         0.076562       0.007246
                          1       7    5fyz2             7.066654       1.578393
                                                         3.428369      -0.612629
                                                         1.430064       0.254167
                                                         0.571611       0.296234
                                                         0.232197       0.027811
                                                         0.076562       0.007246
                          1       7    5fz3              7.066654       0.705879
                                                         3.428369      -0.273976
                                                         1.430064       0.113667
                                                         0.571611       0.132480
                                                         0.232197       0.012437
                                                         0.076562       0.003241

     GTH Potential information for                                   GTH-PBE-q13

       Description:                       Goedecker-Teter-Hutter pseudopotential
                                           Goedecker et al., PRB 54, 1703 (1996)
                                          Hartwigsen et al., PRB 58, 3641 (1998)
                                                      Krack, TCA 114, 145 (2005)

       Gaussian exponent of the core charge distribution:               2.082466
       Electronic configuration (s p d ...):                           2   1  10

       Parameters of the local part of the GTH pseudopotential:

                          rloc        C1          C2          C3          C4
                        0.490000

       Parameters of the non-local part of the GTH pseudopotential:

                   l      r(l)      h(i,j,l)

                   0    0.416777   10.475690   -4.921768    0.870706
                                   -4.921768    7.770178   -2.248152
                                    0.870706   -2.248152    1.784415
                   1    0.569627    1.777985    0.195860
                                    0.195860   -0.231744
                   2    0.238126  -16.248680

  3. Atomic kind: O                                     Number of atoms:       2

     Orbital Basis Set                                     DZVP-MOLOPT-SR-GTH-q6

       Number of orbital shell sets:                                           1
       Number of orbital shells:                                               5
       Number of primitive Cartesian functions:                                5
       Number of Cartesian basis functions:                                   14
       Number of spherical basis functions:                                   13
       Norm type:                                                              2

       Normalised Cartesian orbitals:

                        Set   Shell   Orbital            Exponent    Coefficient

                          1       1    2s               10.389228       0.396646
                                                         3.849621       0.208811
                                                         1.388401      -0.301641
                                                         0.496955      -0.274061
                                                         0.162492      -0.033677

                          1       2    3s               10.389228       0.303673
                                                         3.849621       0.240943
                                                         1.388401      -0.313066
                                                         0.496955      -0.043055
                                                         0.162492       0.213991

                          1       3    3px              10.389228      -1.530415
                                                         3.849621      -1.371928
                                                         1.388401      -0.761951
                                                         0.496955      -0.253695
                                                         0.162492      -0.035541
                          1       3    3py              10.389228      -1.530415
                                                         3.849621      -1.371928
                                                         1.388401      -0.761951
                                                         0.496955      -0.253695
                                                         0.162492      -0.035541
                          1       3    3pz              10.389228      -1.530415
                                                         3.849621      -1.371928
                                                         1.388401      -0.761951
                                                         0.496955      -0.253695
                                                         0.162492      -0.035541

                          1       4    4px              10.389228      -0.565392
                                                         3.849621      -0.038231
                                                         1.388401      -0.382373
                                                         0.496955       0.179070
                                                         0.162492       0.122714
                          1       4    4py              10.389228      -0.565392
                                                         3.849621      -0.038231
                                                         1.388401      -0.382373
                                                         0.496955       0.179070
                                                         0.162492       0.122714
                          1       4    4pz              10.389228      -0.565392
                                                         3.849621      -0.038231
                                                         1.388401      -0.382373
                                                         0.496955       0.179070
                                                         0.162492       0.122714

                          1       5    4dx2             10.389228       1.867377
                                                         3.849621       0.670994
                                                         1.388401       1.353441
                                                         0.496955       0.273538
                                                         0.162492       0.006620
                          1       5    4dxy             10.389228       3.234392
                                                         3.849621       1.162195
                                                         1.388401       2.344229
                                                         0.496955       0.473781
                                                         0.162492       0.011466
                          1       5    4dxz             10.389228       3.234392
                                                         3.849621       1.162195
                                                         1.388401       2.344229
                                                         0.496955       0.473781
                                                         0.162492       0.011466
                          1       5    4dy2             10.389228       1.867377
                                                         3.849621       0.670994
                                                         1.388401       1.353441
                                                         0.496955       0.273538
                                                         0.162492       0.006620
                          1       5    4dyz             10.389228       3.234392
                                                         3.849621       1.162195
                                                         1.388401       2.344229
                                                         0.496955       0.473781
                                                         0.162492       0.011466
                          1       5    4dz2             10.389228       1.867377
                                                         3.849621       0.670994
                                                         1.388401       1.353441
                                                         0.496955       0.273538
                                                         0.162492       0.006620

     GTH Potential information for                                    GTH-PBE-q6

       Description:                       Goedecker-Teter-Hutter pseudopotential
                                           Goedecker et al., PRB 54, 1703 (1996)
                                          Hartwigsen et al., PRB 58, 3641 (1998)
                                                      Krack, TCA 114, 145 (2005)

       Gaussian exponent of the core charge distribution:               8.360253
       Electronic configuration (s p d ...):                               2   4

       Parameters of the local part of the GTH pseudopotential:

                          rloc        C1          C2          C3          C4
                        0.244554  -16.667215    2.487311

       Parameters of the non-local part of the GTH pseudopotential:

                   l      r(l)      h(i,j,l)

                   0    0.220956   18.337458
                   1    0.211332

  4. Atomic kind: H                                     Number of atoms:       8

     Orbital Basis Set                                     DZVP-MOLOPT-SR-GTH-q1

       Number of orbital shell sets:                                           1
       Number of orbital shells:                                               3
       Number of primitive Cartesian functions:                                5
       Number of Cartesian basis functions:                                    5
       Number of spherical basis functions:                                    5
       Norm type:                                                              2

       Normalised Cartesian orbitals:

                        Set   Shell   Orbital            Exponent    Coefficient

                          1       1    2s               10.068468      -0.133023
                                                         2.680223      -0.177618
                                                         0.791502      -0.258419
                                                         0.239116      -0.107525
                                                         0.082193      -0.014019

                          1       2    3s               10.068468       0.344673
                                                         2.680223       1.819821
                                                         0.791502      -0.999069
                                                         0.239116       0.017430
                                                         0.082193       0.082660

                          1       3    3px              10.068468       0.155326
                                                         2.680223       0.367157
                                                         0.791502       0.311480
                                                         0.239116       0.080105
                                                         0.082193       0.033440
                          1       3    3py              10.068468       0.155326
                                                         2.680223       0.367157
                                                         0.791502       0.311480
                                                         0.239116       0.080105
                                                         0.082193       0.033440
                          1       3    3pz              10.068468       0.155326
                                                         2.680223       0.367157
                                                         0.791502       0.311480
                                                         0.239116       0.080105
                                                         0.082193       0.033440

     GTH Potential information for                                    GTH-PBE-q1

       Description:                       Goedecker-Teter-Hutter pseudopotential
                                           Goedecker et al., PRB 54, 1703 (1996)
                                          Hartwigsen et al., PRB 58, 3641 (1998)
                                                      Krack, TCA 114, 145 (2005)

       Gaussian exponent of the core charge distribution:              12.500000
       Electronic configuration (s p d ...):                                   1

       Parameters of the local part of the GTH pseudopotential:

                          rloc        C1          C2          C3          C4
                        0.200000   -4.178900    0.724463

  5. Atomic kind: C                                     Number of atoms:       2

     Orbital Basis Set                                     DZVP-MOLOPT-SR-GTH-q4

       Number of orbital shell sets:                                           1
       Number of orbital shells:                                               5
       Number of primitive Cartesian functions:                                5
       Number of Cartesian basis functions:                                   14
       Number of spherical basis functions:                                   13
       Norm type:                                                              2

       Normalised Cartesian orbitals:

                        Set   Shell   Orbital            Exponent    Coefficient

                          1       1    2s                5.605331       0.322515
                                                         2.113016       0.213043
                                                         0.769911      -0.209686
                                                         0.348157      -0.219794
                                                         0.128212      -0.022789

                          1       2    3s                5.605331       0.552234
                                                         2.113016       0.082072
                                                         0.769911       0.007843
                                                         0.348157       0.136893
                                                         0.128212       0.074283

                          1       3    3px               5.605331      -0.703879
                                                         2.113016      -0.642521
                                                         0.769911      -0.374851
                                                         0.348157      -0.139743
                                                         0.128212      -0.027849
                          1       3    3py               5.605331      -0.703879
                                                         2.113016      -0.642521
                                                         0.769911      -0.374851
                                                         0.348157      -0.139743
                                                         0.128212      -0.027849
                          1       3    3pz               5.605331      -0.703879
                                                         2.113016      -0.642521
                                                         0.769911      -0.374851
                                                         0.348157      -0.139743
                                                         0.128212      -0.027849

                          1       4    4px               5.605331      -0.480376
                                                         2.113016      -0.552894
                                                         0.769911      -0.316145
                                                         0.348157       0.210505
                                                         0.128212       0.076095
                          1       4    4py               5.605331      -0.480376
                                                         2.113016      -0.552894
                                                         0.769911      -0.316145
                                                         0.348157       0.210505
                                                         0.128212       0.076095
                          1       4    4pz               5.605331      -0.480376
                                                         2.113016      -0.552894
                                                         0.769911      -0.316145
                                                         0.348157       0.210505
                                                         0.128212       0.076095

                          1       5    4dx2              5.605331       0.640026
                                                         2.113016       0.274300
                                                         0.769911       0.446711
                                                         0.348157       0.028674
                                                         0.128212       0.029790
                          1       5    4dxy              5.605331       1.108557
                                                         2.113016       0.475102
                                                         0.769911       0.773726
                                                         0.348157       0.049666
                                                         0.128212       0.051599
                          1       5    4dxz              5.605331       1.108557
                                                         2.113016       0.475102
                                                         0.769911       0.773726
                                                         0.348157       0.049666
                                                         0.128212       0.051599
                          1       5    4dy2              5.605331       0.640026
                                                         2.113016       0.274300
                                                         0.769911       0.446711
                                                         0.348157       0.028674
                                                         0.128212       0.029790
                          1       5    4dyz              5.605331       1.108557
                                                         2.113016       0.475102
                                                         0.769911       0.773726
                                                         0.348157       0.049666
                                                         0.128212       0.051599
                          1       5    4dz2              5.605331       0.640026
                                                         2.113016       0.274300
                                                         0.769911       0.446711
                                                         0.348157       0.028674
                                                         0.128212       0.029790

     GTH Potential information for                                    GTH-PBE-q4

       Description:                       Goedecker-Teter-Hutter pseudopotential
                                           Goedecker et al., PRB 54, 1703 (1996)
                                          Hartwigsen et al., PRB 58, 3641 (1998)
                                                      Krack, TCA 114, 145 (2005)

       Gaussian exponent of the core charge distribution:               4.364419
       Electronic configuration (s p d ...):                               2   2

       Parameters of the local part of the GTH pseudopotential:

                          rloc        C1          C2          C3          C4
                        0.338471   -8.803674    1.339211

       Parameters of the non-local part of the GTH pseudopotential:

                   l      r(l)      h(i,j,l)

                   0    0.302576    9.622487
                   1    0.291507


 MOLECULE KIND INFORMATION


 All atoms are their own molecule, skipping detailed information


 TOTAL NUMBERS AND MAXIMUM NUMBERS

  Total number of            - Atomic kinds:                                   5
                             - Atoms:                                        212
                             - Shell sets:                                   212
                             - Shells:                                      1244
                             - Primitive Cartesian functions:               1160
                             - Cartesian basis functions:                   4496
                             - Spherical basis functions:                   3892

  Maximum angular momentum of- Orbital basis functions:                        3
                             - Local part of the GTH pseudopotential:          2
                             - Non-local part of the GTH pseudopotential:      4


 MODULE QUICKSTEP:  ATOMIC COORDINATES IN angstrom

  Atom  Kind  Element       X           Y           Z          Z(eff)       Mass

       1     1 N    7   -0.008025    2.045542    2.505423      5.00      14.0067
       2     2 Ga  31   -0.005930    0.096369    2.848604     13.00      69.7230
       3     1 N    7   -0.004069    0.051730    5.012313      5.00      14.0067
       4     2 Ga  31    0.000742    1.885280    5.792800     13.00      69.7230
       5     1 N    7   -0.001436    1.893512    7.790456      5.00      14.0067
       6     2 Ga  31    0.000641    0.049874    8.441221     13.00      69.7230
       7     1 N    7   -0.001003    0.046939   10.412822      5.00      14.0067
       8     2 Ga  31   -0.001173    1.886316   11.069874     13.00      69.7230
       9     1 N    7   -0.001573    1.866307   13.060333      5.00      14.0067
      10     2 Ga  31   -0.000973    0.047242   13.874930     13.00      69.7230
      11     1 N    7   -0.002505    0.045740   16.064192      5.00      14.0067
      12     2 Ga  31   -0.002168    2.094522   16.483204     13.00      69.7230
      13     2 Ga  31   -0.044945    3.717777    1.314004     13.00      69.7230
      14     1 N    7   -1.485156    4.628133    2.485253      5.00      14.0067
      15     2 Ga  31   -1.678845    2.791189    3.273570     13.00      69.7230
      16     1 N    7   -1.613980    2.837260    5.248946      5.00      14.0067
      17     2 Ga  31   -1.635918    4.702984    5.802959     13.00      69.7230
      18     1 N    7   -1.618917    4.698808    7.793812      5.00      14.0067
      19     2 Ga  31   -1.597653    2.838791    8.436492     13.00      69.7230
      20     1 N    7   -1.598732    2.839128   10.427370      5.00      14.0067
      21     2 Ga  31   -1.626336    4.697341   11.072578     13.00      69.7230
      22     1 N    7   -1.642654    4.707578   13.061900      5.00      14.0067
      23     2 Ga  31   -1.599108    2.837950   13.620754     13.00      69.7230
      24     1 N    7   -1.630416    2.820059   15.577819      5.00      14.0067
      25     2 Ga  31   -1.444467    4.592371   16.484150     13.00      69.7230
      26     1 N    7   -0.007793    3.756050   17.612318      5.00      14.0067
      27     1 N    7   -3.213385    7.598278    2.500878      5.00      14.0067
      28     2 Ga  31   -3.192508    5.594586    2.846071     13.00      69.7230
      29     1 N    7   -3.216011    5.619302    5.008740      5.00      14.0067
      30     2 Ga  31   -3.226105    7.441218    5.796697     13.00      69.7230
      31     1 N    7   -3.217259    7.465888    7.785483      5.00      14.0067
      32     2 Ga  31   -3.217636    5.619093    8.444544     13.00      69.7230
      33     1 N    7   -3.218147    5.618381   10.414180      5.00      14.0067
      34     2 Ga  31   -3.219882    7.456475   11.072477     13.00      69.7230
      35     1 N    7   -3.218098    7.436810   13.061257      5.00      14.0067
      36     2 Ga  31   -3.217894    5.616910   13.876350     13.00      69.7230
      37     1 N    7   -3.219677    5.616959   16.065201      5.00      14.0067
      38     2 Ga  31   -3.219189    7.665261   16.483996     13.00      69.7230
      39     2 Ga  31   -3.248175    9.354839    1.443396     13.00      69.7230
      40     1 N    7   -4.727588   10.204827    2.509756      5.00      14.0067
      41     2 Ga  31   -4.934375    8.348543    3.263978     13.00      69.7230
      42     1 N    7   -4.827571    8.403287    5.228388      5.00      14.0067
      43     2 Ga  31   -4.853213   10.278369    5.787150     13.00      69.7230
      44     1 N    7   -4.834752   10.265503    7.782764      5.00      14.0067
      45     2 Ga  31   -4.817219    8.411212    8.434309     13.00      69.7230
      46     1 N    7   -4.814920    8.409171   10.424029      5.00      14.0067
      47     2 Ga  31   -4.841031   10.268504   11.069500     13.00      69.7230
      48     1 N    7   -4.857690   10.277941   13.059249      5.00      14.0067
      49     2 Ga  31   -4.815158    8.409128   13.621089     13.00      69.7230
      50     1 N    7   -4.846452    8.390998   15.577488      5.00      14.0067
      51     2 Ga  31   -4.661855   10.163836   16.483309     13.00      69.7230
      52     1 N    7   -3.225478    9.327824   17.612089      5.00      14.0067
      53     1 N    7    3.199096    1.924159    2.589307      5.00      14.0067
      54     2 Ga  31    3.203233    0.179705    3.266714     13.00      69.7230
      55     1 N    7    3.215613    0.052224    5.231323      5.00      14.0067
      56     2 Ga  31    3.205198    1.913627    5.866727     13.00      69.7230
      57     1 N    7    3.214368    1.904663    7.839862      5.00      14.0067
      58     2 Ga  31    3.211735    0.038899    8.432981     13.00      69.7230
      59     1 N    7    3.213776    0.033808   10.422646      5.00      14.0067
      60     2 Ga  31    3.213652    1.903685   11.023930     13.00      69.7230
      61     1 N    7    3.214976    1.903548   12.990986      5.00      14.0067
      62     2 Ga  31    3.214456    0.035120   13.620391     13.00      69.7230
      63     1 N    7    3.215453    0.068596   15.576713      5.00      14.0067
      64     2 Ga  31    3.215612    1.904411   15.861099     13.00      69.7230
      65     1 N    7    1.467435    4.617110    2.463214      5.00      14.0067
      66     2 Ga  31    1.668285    2.803029    3.260208     13.00      69.7230
      67     1 N    7    1.606714    2.839698    5.238013      5.00      14.0067
      68     2 Ga  31    1.651417    4.709963    5.798240     13.00      69.7230
      69     1 N    7    1.612411    4.696129    7.797524      5.00      14.0067
      70     2 Ga  31    1.595963    2.839193    8.434955     13.00      69.7230
      71     1 N    7    1.595063    2.838321   10.425932      5.00      14.0067
      72     2 Ga  31    1.622411    4.696699   11.071212     13.00      69.7230
      73     1 N    7    1.638736    4.707465   13.060773      5.00      14.0067
      74     2 Ga  31    1.596136    2.838213   13.619850     13.00      69.7230
      75     1 N    7    1.625998    2.821999   15.576832      5.00      14.0067
      76     2 Ga  31    1.433732    4.588837   16.485496     13.00      69.7230
      77     1 N    7    0.003291    7.468467    2.688103      5.00      14.0067
      78     2 Ga  31    0.008114    5.601845    3.309781     13.00      69.7230
      79     1 N    7   -0.000877    5.634342    5.245963      5.00      14.0067
      80     2 Ga  31   -0.000749    7.467620    5.905715     13.00      69.7230
      81     1 N    7   -0.002106    7.476002    7.859159      5.00      14.0067
      82     2 Ga  31   -0.000290    5.601975    8.447523     13.00      69.7230
      83     1 N    7   -0.002638    5.604668   10.432700      5.00      14.0067
      84     2 Ga  31   -0.003598    7.474161   11.029741     13.00      69.7230
      85     1 N    7   -0.002268    7.474877   12.994990      5.00      14.0067
      86     2 Ga  31   -0.001517    5.604465   13.621244     13.00      69.7230
      87     1 N    7   -0.000703    5.639090   15.577931      5.00      14.0067
      88     2 Ga  31   -0.000834    7.474853   15.861635     13.00      69.7230
      89     1 N    7   -1.713137   10.197395    2.507401      5.00      14.0067
      90     2 Ga  31   -1.591579    8.389596    3.318856     13.00      69.7230
      91     1 N    7   -1.596588    8.398498    5.245201      5.00      14.0067
      92     2 Ga  31   -1.588126   10.285113    5.801715     13.00      69.7230
      93     1 N    7   -1.601160   10.264512    7.788455      5.00      14.0067
      94     2 Ga  31   -1.623252    8.410675    8.443927     13.00      69.7230
      95     1 N    7   -1.622955    8.409596   10.428525      5.00      14.0067
      96     2 Ga  31   -1.597103   10.269352   11.071621     13.00      69.7230
      97     1 N    7   -1.577889   10.278176   13.060355      5.00      14.0067
      98     2 Ga  31   -1.621075    8.409403   13.621823     13.00      69.7230
      99     1 N    7   -1.590660    8.392954   15.578167      5.00      14.0067
     100     2 Ga  31   -1.783015   10.160059   16.485738     13.00      69.7230
     101     1 N    7    6.428243    2.032416    2.538986      5.00      14.0067
     102     2 Ga  31    6.427819    0.062518    2.878871     13.00      69.7230
     103     1 N    7    6.430279    0.050944    5.019188      5.00      14.0067
     104     2 Ga  31    6.424448    1.886475    5.801336     13.00      69.7230
     105     1 N    7    6.429167    1.893131    7.792022      5.00      14.0067
     106     2 Ga  31    6.427876    0.049916    8.447410     13.00      69.7230
     107     1 N    7    6.429097    0.047022   10.415794      5.00      14.0067
     108     2 Ga  31    6.429540    1.887853   11.069802     13.00      69.7230
     109     1 N    7    6.430459    1.867113   13.060116      5.00      14.0067
     110     2 Ga  31    6.429974    0.047331   13.872889     13.00      69.7230
     111     1 N    7    6.428346    0.046084   16.066206      5.00      14.0067
     112     2 Ga  31    6.429685    2.086839   16.481376     13.00      69.7230
     113     2 Ga  31    6.455538    3.745439    1.515805     13.00      69.7230
     114     1 N    7    4.934738    4.628738    2.484491      5.00      14.0067
     115     2 Ga  31    4.700564    2.794517    3.289349     13.00      69.7230
     116     1 N    7    4.818368    2.840074    5.245297      5.00      14.0067
     117     2 Ga  31    4.779660    4.717634    5.799648     13.00      69.7230
     118     1 N    7    4.816470    4.695460    7.798596      5.00      14.0067
     119     2 Ga  31    4.830350    2.839758    8.436704     13.00      69.7230
     120     1 N    7    4.833098    2.838169   10.426601      5.00      14.0067
     121     2 Ga  31    4.808024    4.697800   11.068466     13.00      69.7230
     122     1 N    7    4.791279    4.706967   13.059329      5.00      14.0067
     123     2 Ga  31    4.833106    2.838305   13.619369     13.00      69.7230
     124     1 N    7    4.808385    2.824142   15.579896      5.00      14.0067
     125     2 Ga  31    4.979647    4.597614   16.481262     13.00      69.7230
     126     1 N    7    6.423164    3.757034   17.625436      5.00      14.0067
     127     1 N    7    3.207721    7.624299    2.497369      5.00      14.0067
     128     1 N    7    3.213753    5.625868    5.041662      5.00      14.0067
     129     2 Ga  31    3.221772    7.424460    5.810926     13.00      69.7230
     130     1 N    7    3.214078    7.470517    7.803239      5.00      14.0067
     131     2 Ga  31    3.214236    5.617389    8.444917     13.00      69.7230
     132     1 N    7    3.214596    5.618093   10.416657      5.00      14.0067
     133     2 Ga  31    3.215886    7.456144   11.072975     13.00      69.7230
     134     1 N    7    3.214510    7.437851   13.062276      5.00      14.0067
     135     2 Ga  31    3.214524    5.616569   13.871580     13.00      69.7230
     136     1 N    7    3.212976    5.616291   16.066149      5.00      14.0067
     137     2 Ga  31    3.214330    7.657115   16.482148     13.00      69.7230
     138     2 Ga  31    3.234790    9.384315    1.462770     13.00      69.7230
     139     1 N    7    1.703403   10.200658    2.524877      5.00      14.0067
     140     2 Ga  31    1.590168    8.387809    3.337364     13.00      69.7230
     141     1 N    7    1.595489    8.400193    5.258681      5.00      14.0067
     142     2 Ga  31    1.579718   10.282875    5.814827     13.00      69.7230
     143     1 N    7    1.595056   10.265761    7.798905      5.00      14.0067
     144     2 Ga  31    1.618893    8.410630    8.451970     13.00      69.7230
     145     1 N    7    1.616721    8.410039   10.435211      5.00      14.0067
     146     2 Ga  31    1.590594   10.270103   11.073752     13.00      69.7230
     147     1 N    7    1.574157   10.278525   13.062451      5.00      14.0067
     148     2 Ga  31    1.617139    8.409240   13.621592     13.00      69.7230
     149     1 N    7    1.592038    8.394603   15.581574      5.00      14.0067
     150     2 Ga  31    1.765197   10.167490   16.482375     13.00      69.7230
     151     1 N    7    3.208466    9.327487   17.625672      5.00      14.0067
     152     1 N    7    9.654792    1.914175    2.614599      5.00      14.0067
     153     2 Ga  31    9.651842    0.177223    3.297402     13.00      69.7230
     154     1 N    7    9.643193    0.049724    5.254193      5.00      14.0067
     155     2 Ga  31    9.653363    1.911150    5.880619     13.00      69.7230
     156     1 N    7    9.646624    1.904907    7.849497      5.00      14.0067
     157     2 Ga  31    9.648771    0.038159    8.441749     13.00      69.7230
     158     1 N    7    9.646568    0.033895   10.429307      5.00      14.0067
     159     2 Ga  31    9.645854    1.905022   11.025126     13.00      69.7230
     160     1 N    7    9.645021    1.903499   12.993628      5.00      14.0067
     161     2 Ga  31    9.647152    0.034569   13.621131     13.00      69.7230
     162     1 N    7    9.646729    0.063220   15.580571      5.00      14.0067
     163     2 Ga  31    9.644389    1.902784   15.858890     13.00      69.7230
     164     1 N    7    7.932062    4.631959    2.529881      5.00      14.0067
     165     2 Ga  31    8.150500    2.777390    3.304179     13.00      69.7230
     166     1 N    7    8.040065    2.834219    5.257376      5.00      14.0067
     167     2 Ga  31    8.060595    4.709388    5.797388     13.00      69.7230
     168     1 N    7    8.049386    4.698476    7.789817      5.00      14.0067
     169     2 Ga  31    8.028417    2.840308    8.435618     13.00      69.7230
     170     1 N    7    8.026331    2.839665   10.425394      5.00      14.0067
     171     2 Ga  31    8.053372    4.698355   11.070403     13.00      69.7230
     172     1 N    7    8.070487    4.707296   13.060516      5.00      14.0067
     173     2 Ga  31    8.027075    2.839096   13.620460     13.00      69.7230
     174     1 N    7    8.052260    2.824257   15.580484      5.00      14.0067
     175     2 Ga  31    7.874947    4.594960   16.481557     13.00      69.7230
     176     1 N    7    6.416281    7.474327    2.582440      5.00      14.0067
     177     2 Ga  31    6.415769    5.736958    3.289148     13.00      69.7230
     178     1 N    7    6.426723    5.621907    5.244396      5.00      14.0067
     179     2 Ga  31    6.428063    7.478067    5.870973     13.00      69.7230
     180     1 N    7    6.430862    7.477029    7.841046      5.00      14.0067
     181     2 Ga  31    6.430875    5.607795    8.437265     13.00      69.7230
     182     1 N    7    6.431773    5.606039   10.427098      5.00      14.0067
     183     2 Ga  31    6.431071    7.474246   11.026900     13.00      69.7230
     184     1 N    7    6.429838    7.473657   12.994504      5.00      14.0067
     185     2 Ga  31    6.430865    5.603765   13.620528     13.00      69.7230
     186     1 N    7    6.430362    5.633384   15.580121      5.00      14.0067
     187     2 Ga  31    6.428654    7.472931   15.858498     13.00      69.7230
     188     1 N    7    4.718052   10.210299    2.526423      5.00      14.0067
     189     2 Ga  31    4.915929    8.351435    3.286080     13.00      69.7230
     190     1 N    7    4.817840    8.406757    5.244169      5.00      14.0067
     191     2 Ga  31    4.850712   10.277792    5.801939     13.00      69.7230
     192     1 N    7    4.832783   10.266861    7.793544      5.00      14.0067
     193     2 Ga  31    4.814491    8.411492    8.442151     13.00      69.7230
     194     1 N    7    4.812676    8.410207   10.430109      5.00      14.0067
     195     2 Ga  31    4.839290   10.269412   11.072067     13.00      69.7230
     196     1 N    7    4.854665   10.278333   13.061574      5.00      14.0067
     197     2 Ga  31    4.811470    8.409850   13.621356     13.00      69.7230
     198     1 N    7    4.836864    8.394560   15.580802      5.00      14.0067
     199     2 Ga  31    4.659379   10.165044   16.481820     13.00      69.7230
     200     3 O    8    0.040480    3.713056   -0.507985      6.00      15.9994
     201     4 H    1    0.016373    7.468705    1.661307      1.00       1.0079
     202     5 C    6    0.648343    2.568517   -1.121549      4.00      12.0107
     203     4 H    1    1.710777    2.450974   -0.841365      1.00       1.0079
     204     4 H    1    0.133912    1.625747   -0.867545      1.00       1.0079
     205     4 H    1    0.591079    2.709722   -2.212108      1.00       1.0079
     206     2 Ga  31    3.172713    5.614690    2.557505     13.00      69.7230
     207     3 O    8    3.097384    5.695766    0.262189      6.00      15.9994
     208     4 H    1    2.980175    4.759136    0.011485      1.00       1.0079
     209     5 C    6    6.422246    7.452175    0.968803      4.00      12.0107
     210     4 H    1    5.552650    7.914553    0.478933      1.00       1.0079
     211     4 H    1    7.337865    7.916900    0.569845      1.00       1.0079
     212     4 H    1    6.414472    6.375617    0.766045      1.00       1.0079




 SCF PARAMETERS         Density guess:                                    ATOMIC
                        --------------------------------------------------------
                        max_scf:                                              80
                        max_scf_history:                                       0
                        max_diis:                                              4
                        --------------------------------------------------------
                        eps_scf:                                        5.00E-06
                        eps_scf_history:                                0.00E+00
                        eps_diis:                                       1.00E-01
                        eps_eigval:                                     1.00E-05
                        --------------------------------------------------------
                        level_shift [a.u.]:                                 0.00
                        --------------------------------------------------------
                        Outer loop SCF in use 
                        No variables optimised in outer loop
                        eps_scf                                         5.00E-06
                        max_scf                                                4
                        No outer loop optimization
                        step_size                                       5.00E-01

 PW_GRID| Information for grid number                                          1
 PW_GRID| Grid distributed over                                    80 processors
 PW_GRID| Real space group dimensions                                    80    1
 PW_GRID| the grid is blocked:                                                NO
 PW_GRID| Cutoff [a.u.]                                                    600.0
 PW_GRID| spherical cutoff:                                                   NO
 PW_GRID|   Bounds   1           -144     143                Points:         288
 PW_GRID|   Bounds   2           -144     143                Points:         288
 PW_GRID|   Bounds   3           -337     337                Points:         675
 PW_GRID| Volume element (a.u.^3)  0.5630E-03     Volume (a.u.^3)     31519.8467
 PW_GRID| Grid span                                                    FULLSPACE
 PW_GRID|   Distribution                         Average         Max         Min
 PW_GRID|   G-Vectors                           699840.0      699840      699840
 PW_GRID|   G-Rays                                2430.0        2430        2430
 PW_GRID|   Real Space Points                   699840.0      777600      583200

 PW_GRID| Information for grid number                                          2
 PW_GRID| Grid distributed over                                    80 processors
 PW_GRID| Real space group dimensions                                    80    1
 PW_GRID| the grid is blocked:                                                NO
 PW_GRID| Cutoff [a.u.]                                                    200.0
 PW_GRID| spherical cutoff:                                                   NO
 PW_GRID|   Bounds   1            -80      79                Points:         160
 PW_GRID|   Bounds   2            -80      79                Points:         160
 PW_GRID|   Bounds   3           -200     199                Points:         400
 PW_GRID| Volume element (a.u.^3)  0.3078E-02     Volume (a.u.^3)     31519.8467
 PW_GRID| Grid span                                                    FULLSPACE
 PW_GRID|   Distribution                         Average         Max         Min
 PW_GRID|   G-Vectors                           128000.0      128160      127840
 PW_GRID|   G-Rays                                 800.0         801         799
 PW_GRID|   Real Space Points                   128000.0      128000      128000

 PW_GRID| Information for grid number                                          3
 PW_GRID| Grid distributed over                                    80 processors
 PW_GRID| Real space group dimensions                                    80    1
 PW_GRID| the grid is blocked:                                                NO
 PW_GRID| Cutoff [a.u.]                                                     66.7
 PW_GRID| spherical cutoff:                                                   NO
 PW_GRID|   Bounds   1            -48      47                Points:          96
 PW_GRID|   Bounds   2            -48      47                Points:          96
 PW_GRID|   Bounds   3           -112     112                Points:         225
 PW_GRID| Volume element (a.u.^3)  0.1520E-01     Volume (a.u.^3)     31519.8467
 PW_GRID| Grid span                                                    FULLSPACE
 PW_GRID|   Distribution                         Average         Max         Min
 PW_GRID|   G-Vectors                            25920.0       26688       24864
 PW_GRID|   G-Rays                                 270.0         278         259
 PW_GRID|   Real Space Points                    25920.0       43200       21600

 PW_GRID| Information for grid number                                          4
[...]
 *******************************************************************************

 Spin 1

 Number of electrons:                                                        914
 Number of occupied orbitals:                                                914
 Number of molecular orbitals:                                               914

 Spin 2

 Number of electrons:                                                        914
 Number of occupied orbitals:                                                914
 Number of molecular orbitals:                                               914

 Number of orbital functions:                                               3892
 Number of independent orbital functions:                                   3892

 Extrapolation method: initial_guess

 Atomic guess: The first density matrix is obtained in terms of atomic orbitals
               and electronic configurations assigned to each atomic kind

 Guess for atomic kind: N

 Electronic structure
    Total number of core electrons                                          2.00
    Total number of valence electrons                                       5.00
    Total number of electrons                                               7.00
    Multiplicity                                                   not specified
    S   [  2.00] 2.00
    P      3.00
 

 *******************************************************************************
                  Iteration          Convergence                     Energy [au]
 *******************************************************************************
                          1        0.314603                      -9.513311037226
                          2        0.240982                      -9.524715106536
                          3        0.171660E-02                  -9.545365478140
                          4        0.189497E-03                  -9.545366407342
                          5        0.115171E-03                  -9.545366414563
                          6        0.842367E-04                  -9.545366416530
                          7        0.416372E-07                  -9.545366418792

 Energy components [Hartree]           Total Energy ::           -9.545366418792
                                        Band Energy ::           -2.053285301135
                                     Kinetic Energy ::            6.740378038236
                                   Potential Energy ::          -16.285744457028
                                      Virial (-V/T) ::            2.416147041701
                                        Core Energy ::          -15.542519058333
                                          XC Energy ::           -2.163416690174
                                     Coulomb Energy ::            8.160569329715
                       Total Pseudopotential Energy ::          -22.320027271038
                       Local Pseudopotential Energy ::          -23.240219346165
                    Nonlocal Pseudopotential Energy ::            0.920192075127
                                        Confinement ::            0.371301744695

 Orbital energies  State     L     Occupation   Energy[a.u.]          Energy[eV]

                       1     0          2.000      -0.663125          -18.044549
 
                       1     1          3.000      -0.242345           -6.594545
 

 Total Electron Density at R=0:                                         0.000019

 Guess for atomic kind: Ga

 Electronic structure
    Total number of core electrons                                         18.00
    Total number of valence electrons                                      13.00
    Total number of electrons                                              31.00
    Multiplicity                                                   not specified
    S   [  2.00  2.00  2.00] 2.00
    P   [  6.00  6.00] 1.00
    D     10.00
 

 *******************************************************************************
                  Iteration          Convergence                     Energy [au]
 *******************************************************************************
                          1         22.1524                     -44.516413224335
                          2         1.91043                     -73.305924441898
                          3        0.524291E-01                 -74.147756188929
                          4        0.359055E-02                 -74.148100266765
                          5        0.137660E-02                 -74.148101509825
                          6        0.820576E-03                 -74.148101603074
                          7        0.577059E-04                 -74.148101657024
                          8        0.577427E-08                 -74.148101657328

 Energy components [Hartree]           Total Energy ::          -74.148101657328
                                        Band Energy ::           -7.354344558070
                                     Kinetic Energy ::           99.564392614967
                                   Potential Energy ::         -173.712494272295
                                      Virial (-V/T) ::            1.744725094081
                                        Core Energy ::         -134.243973097364
                                          XC Energy ::           -9.781240980901
                                     Coulomb Energy ::           69.877112420937
                       Total Pseudopotential Energy ::         -233.873649274629
                       Local Pseudopotential Energy ::         -163.402683521975
                    Nonlocal Pseudopotential Energy ::          -70.470965752654
                                        Confinement ::            0.652835622975

 Orbital energies  State     L     Occupation   Energy[a.u.]          Energy[eV]

                       1     0          2.000      -0.307238           -8.360378
 
                       1     1          1.000      -0.061461           -1.672442
 
                       1     2         10.000      -0.667841          -18.172870
 

 Total Electron Density at R=0:                                         0.000004

 Guess for atomic kind: O

 Electronic structure
    Total number of core electrons                                          2.00
    Total number of valence electrons                                       6.00
    Total number of electrons                                               8.00
    Multiplicity                                                   not specified
    S   [  2.00] 2.00
    P      4.00
 

 *******************************************************************************
                  Iteration          Convergence                     Energy [au]
 *******************************************************************************
                          1        0.702811                     -15.577904332270
                          2        0.612408                     -15.588447180504
                          3        0.955344E-02                 -15.655871208406
                          4        0.223754E-02                 -15.655885053552
                          5        0.157183E-02                 -15.655885461027
                          6        0.124953E-02                 -15.655885607150
                          7        0.312011E-06                 -15.655885858066

 Energy components [Hartree]           Total Energy ::          -15.655885858066
                                        Band Energy ::           -2.983128125584
                                     Kinetic Energy ::           11.754765134683
                                   Potential Energy ::          -27.410650992750
                                      Virial (-V/T) ::            2.331875684345
                                        Core Energy ::          -26.153522949072
                                          XC Energy ::           -3.157392363346
                                     Coulomb Energy ::           13.655029454351
                       Total Pseudopotential Energy ::          -37.943026860963
                       Local Pseudopotential Energy ::          -39.220419683052
                    Nonlocal Pseudopotential Energy ::            1.277392822089
                                        Confinement ::            0.347387772086

 Orbital energies  State     L     Occupation   Energy[a.u.]          Energy[eV]

                       1     0          2.000      -0.861522          -23.443215
 
                       1     1          4.000      -0.315021           -8.572154
 

 Total Electron Density at R=0:                                         0.000093

 Guess for atomic kind: H

 Electronic structure
    Total number of core electrons                                          0.00
    Total number of valence electrons                                       1.00
    Total number of electrons                                               1.00
    Multiplicity                                                   not specified
    S      1.00
 

 *******************************************************************************
                  Iteration          Convergence                     Energy [au]
 *******************************************************************************
                          1        0.250972E-02                  -0.375256815885
                          2        0.570752E-04                  -0.375258666164
                          3        0.832405E-09                  -0.375258667122

 Energy components [Hartree]           Total Energy ::           -0.375258667122
                                        Band Energy ::           -0.076317618391
                                     Kinetic Energy ::            0.771356566341
                                   Potential Energy ::           -1.146615233463
                                      Virial (-V/T) ::            1.486491829455
                                        Core Energy ::           -0.456090715790
                                          XC Energy ::           -0.314218627334
                                     Coulomb Energy ::            0.395050676003
                       Total Pseudopotential Energy ::           -1.238482237174
                       Local Pseudopotential Energy ::           -1.238482237174
                    Nonlocal Pseudopotential Energy ::            0.000000000000
                                        Confinement ::            0.110349550431

 Orbital energies  State     L     Occupation   Energy[a.u.]          Energy[eV]

                       1     0          1.000      -0.076318           -2.076708
 

 Total Electron Density at R=0:                                         0.425022

 Guess for atomic kind: C

 Electronic structure
    Total number of core electrons                                          2.00
    Total number of valence electrons                                       4.00
    Total number of electrons                                               6.00
    Multiplicity                                                   not specified
    S   [  2.00] 2.00
    P      2.00
 

 *******************************************************************************
                  Iteration          Convergence                     Energy [au]
 *******************************************************************************
                          1        0.261814E-01                  -5.246264729087
                          2        0.905236E-02                  -5.246529568708
                          3        0.681743E-04                  -5.246565167452
                          4        0.792829E-08                  -5.246565169473

 Energy components [Hartree]           Total Energy ::           -5.246565169473
                                        Band Energy ::           -1.058732595430
                                     Kinetic Energy ::            3.518928170589
                                   Potential Energy ::           -8.765493340062
                                      Virial (-V/T) ::            2.490955460053
                                        Core Energy ::           -8.429377169956
                                          XC Energy ::           -1.450183342358
                                     Coulomb Energy ::            4.632995342842
                       Total Pseudopotential Energy ::          -11.978048809389
                       Local Pseudopotential Energy ::          -12.816738187351
                    Nonlocal Pseudopotential Energy ::            0.838689377962
                                        Confinement ::            0.297434688432

 Orbital energies  State     L     Occupation   Energy[a.u.]          Energy[eV]

                       1     0          2.000      -0.410911          -11.181458
 
                       1     1          2.000      -0.118455           -3.223332
 

 Total Electron Density at R=0:                                         0.001337

 Spin 1
 Re-scaling the density matrix to get the right number of electrons for spin 1
                  # Electrons              Trace(P)               Scaling factor
                          914               914.000                        1.000

 Spin 2
 Re-scaling the density matrix to get the right number of electrons for spin 2
                  # Electrons              Trace(P)               Scaling factor
                          914               914.000                        1.000


 SCF WAVEFUNCTION OPTIMIZATION

  ----------------------------------- OT ---------------------------------------
  Minimizer      : CG                  : conjugate gradient
  Preconditioner : FULL_ALL            : diagonalization, state selective
  Precond_solver : DEFAULT
  Line search    : 2PNT                : 2 energies, one gradient
  stepsize       :    0.15000000                  energy_gap     :    0.08000000
  eps_taylor     :   0.10000E-15                  max_taylor     :             4
  ----------------------------------- OT ---------------------------------------

  Step     Update method      Time    Convergence         Total energy    Change
  ------------------------------------------------------------------------------
     1 OT CG       0.15E+00   21.8     0.01401820     -8397.2841792656 -8.40E+03
     2 OT LS       0.29E-01    6.5                    -8056.8812478612
     3 OT CG       0.29E-01   13.9     0.03351128     -8410.0502762230 -1.28E+01
     4 OT LS       0.77E-02    6.9                    -8301.5291196954
     5 OT CG       0.77E-02   14.1     0.03550222     -8414.1928566295 -4.14E+00
     6 OT LS       0.67E-02    6.5                    -8440.7644919846
     7 OT CG       0.67E-02   14.6     0.02316466     -8440.8588906693 -2.67E+01
     8 OT LS       0.12E-01    9.2                    -8459.8526395516
     9 OT CG       0.12E-01   19.2     0.00741643     -8465.2116659271 -2.44E+01
    10 OT LS       0.14E-01    8.9                    -8468.2337968673
    11 OT CG       0.14E-01   15.5     0.00718797     -8468.3428985297 -3.13E+00
    12 OT LS       0.55E-01    6.5                    -8473.1834652821
    13 OT CG       0.55E-01   14.3     0.00826476     -8480.2602865559 -1.19E+01
    14 OT LS       0.25E-01    6.9                    -8477.0322589126
    15 OT CG       0.25E-01   14.3     0.00500259     -8486.7782502395 -6.52E+00
    16 OT LS       0.22E-01    7.1                    -8488.5766493448
    17 OT CG       0.22E-01   19.2     0.00457667     -8488.6062428657 -1.83E+00
    18 OT LS       0.65E-01    8.8                    -8491.3593798623
    19 OT CG       0.65E-01   17.8     0.00327876     -8493.8165787301 -5.21E+00
    20 OT LS       0.44E-01    6.7                    -8495.2497264849
    21 OT CG       0.44E-01   18.2     0.00435525     -8495.6104914184 -1.79E+00
    22 OT LS       0.52E-01    8.8                    -8499.0248039339
    23 OT CG       0.52E-01   18.4     0.00232759     -8499.1125896766 -3.50E+00
    24 OT LS       0.32E-01    9.0                    -8499.4806722620
    25 OT CG       0.32E-01   18.6     0.00191342     -8499.7032410024 -5.91E-01
    26 OT LS       0.11E+00    9.0                    -8500.4083567777
    27 OT CG       0.11E+00   16.0     0.00135866     -8501.1226454766 -1.42E+00
    28 OT LS       0.11E+00    6.7                    -8501.7819969308
    29 OT CG       0.11E+00   19.2     0.00165406     -8501.7818027363 -6.59E-01
    30 OT LS       0.70E-01    9.0                    -8502.2704809316
    31 OT CG       0.70E-01   18.5     0.00148698     -8502.4726926490 -6.91E-01
    32 OT LS       0.73E-01    8.7                    -8503.0410396827
    33 OT CG       0.73E-01   19.0     0.00089706     -8503.0423680797 -5.70E-01
    34 OT LS       0.15E+00    8.6                    -8503.3645207569
    35 OT CG       0.15E+00   15.1     0.00088446     -8503.4830161659 -4.41E-01
    36 OT LS       0.81E-01    6.5                    -8503.5404803367
    37 OT CG       0.81E-01   14.0     0.00075536     -8503.6963004883 -2.13E-01
    38 OT LS       0.12E+00    6.6                    -8503.9070420544
    39 OT CG       0.12E+00   14.2     0.00050362     -8503.9267450787 -2.30E-01
    40 OT LS       0.17E+00    8.3                    -8504.0631734405
    41 OT CG       0.17E+00   18.3     0.00051285     -8504.0806889227 -1.54E-01
    42 OT LS       0.11E+00    8.6                    -8504.1629552884
    43 OT CG       0.11E+00   16.6     0.00047393     -8504.1910645490 -1.10E-01
    44 OT LS       0.12E+00    6.6                    -8504.2876855059
    45 OT CG       0.12E+00   18.2     0.00035008     -8504.2881442587 -9.71E-02
    46 OT LS       0.18E+00    8.4                    -8504.3583601084
    47 OT CG       0.18E+00   18.6     0.00031955     -8504.3657975718 -7.77E-02
    48 OT LS       0.16E+00    8.4                    -8504.4221554257
    49 OT CG       0.16E+00   18.2     0.00029485     -8504.4228870038 -5.71E-02
    50 OT LS       0.15E+00    8.6                    -8504.4686876580
    51 OT CG       0.15E+00   16.4     0.00025802     -8504.4689579431 -4.61E-02
    52 OT LS       0.15E+00    7.0                    -8504.5043811027
    53 OT CG       0.15E+00   14.2     0.00023500     -8504.5043962539 -3.54E-02
    54 OT LS       0.15E+00    6.6                    -8504.5346502614
    55 OT CG       0.15E+00   14.1     0.00020449     -8504.5346516839 -3.03E-02
    56 OT LS       0.17E+00    7.2                    -8504.5600086257
    57 OT CG       0.17E+00   18.6     0.00018341     -8504.5603868032 -2.57E-02
    58 OT LS       0.16E+00    8.7                    -8504.5795739137
    59 OT CG       0.16E+00   18.2     0.00017015     -8504.5797114854 -1.93E-02
    60 OT LS       0.16E+00    6.6                    -8504.5958917707
    61 OT CG       0.16E+00   16.8     0.00015311     -8504.5958985224 -1.62E-02
    62 OT LS       0.15E+00    8.7                    -8504.6087690610
    63 OT CG       0.15E+00   17.8     0.00013991     -8504.6087759787 -1.29E-02
    64 OT LS       0.16E+00    8.4                    -8504.6198098153
    65 OT CG       0.16E+00   18.4     0.00012712     -8504.6198164028 -1.10E-02
    66 OT LS       0.16E+00    8.7                    -8504.6291527522
    67 OT CG       0.16E+00   17.9     0.00011338     -8504.6291607583 -9.34E-03
    68 OT LS       0.17E+00    8.1                    -8504.6370249660
    69 OT CG       0.17E+00   18.2     0.00010681     -8504.6370445125 -7.88E-03
    70 OT LS       0.15E+00    8.6                    -8504.6431589093
    71 OT CG       0.15E+00   16.0     0.00009686     -8504.6432540991 -6.21E-03
    72 OT LS       0.17E+00    6.5                    -8504.6487900945
    73 OT CG       0.17E+00   14.4     0.00008913     -8504.6488294588 -5.58E-03
    74 OT LS       0.16E+00    7.0                    -8504.6532867521
