     212
 i =        1, E =     -8504.7312052682
  N        -0.0092400986        2.0496081681        2.5052924249
 Ga        -0.0056334411        0.1104253725        2.8515904515
  N        -0.0040305649        0.0481569089        5.0146961780
 Ga         0.0005680442        1.8858559536        5.7911145315
  N        -0.0022168462        1.8925969354        7.7898121123
 Ga         0.0003507852        0.0490982975        8.4398587858
  N        -0.0011448579        0.0463401930       10.4113059834
 Ga        -0.0011857458        1.8862536067       11.0697927244
  N        -0.0015564199        1.8662331814       13.0599304070
 Ga        -0.0012433519        0.0471570326       13.8754626754
  N        -0.0024569189        0.0459140442       16.0635207944
 Ga        -0.0021624707        2.0935080148       16.4835094916
 Ga        -0.0278390365        3.7269460134        1.3053547568
  N        -1.4825068573        4.6242403931        2.4849088532
 Ga        -1.6759703511        2.7928225889        3.2715719249
  N        -1.6150259612        2.8365781424        5.2488965998
 Ga        -1.6349548903        4.7022628969        5.8015044488
  N        -1.6201812015        4.6987985824        7.7931545705
 Ga        -1.5975864109        2.8389086062        8.4365419130
  N        -1.5989375312        2.8392960076       10.4271254043
 Ga        -1.6264395747        4.6975936158       11.0726885045
  N        -1.6428236984        4.7078084596       13.0615975085
 Ga        -1.5991252474        2.8379984368       13.6208773625
  N        -1.6301251897        2.8201519537       15.5779865720
 Ga        -1.4454622183        4.5929237335       16.4843104885
  N        -0.0079260211        3.7561199144       17.6119124418
  N        -3.2231275839        7.5937524140        2.4923487134
 Ga        -3.1792359899        5.5869212364        2.8499544343
  N        -3.2188856540        5.6212029205        5.0116597049
 Ga        -3.2242947794        7.4404786520        5.7956130972
  N        -3.2204743065        7.4675482532        7.7826021387
 Ga        -3.2180321107        5.6196638341        8.4436535730
  N        -3.2188028583        5.6187441191       10.4128594277
 Ga        -3.2202275300        7.4565904620       11.0728407215
  N        -3.2182230727        7.4367689215       13.0607020784
 Ga        -3.2183526541        5.6169626569       13.8768892991
  N        -3.2197527037        5.6167690261       16.0644030109
 Ga        -3.2191702885        7.6648005152       16.4847784810
 Ga        -3.2299246576        9.3674941179        1.4223241557
  N        -4.7363708821       10.1997846597        2.4984947799
 Ga        -4.8913972488        8.3755185765        3.2835648564
  N        -4.8436518021        8.3937047434        5.2302381548
 Ga        -4.8538334892       10.2801342595        5.7860510047
  N        -4.8351475619       10.2619154621        7.7797553459
 Ga        -4.8156267763        8.4123193404        8.4394447894
  N        -4.8156910909        8.4087650980       10.4247732027
 Ga        -4.8413085506       10.2682856913       11.0699686074
  N        -4.8578949552       10.2779098540       13.0589282184
 Ga        -4.8154716283        8.4089986470       13.6213825895
  N        -4.8465327104        8.3910560779       15.5776306649
 Ga        -4.6620094418       10.1639805906       16.4841378853
  N        -3.2251527290        9.3278961541       17.6131956386
  N         3.2001461070        1.9181219014        2.5995144290
 Ga         3.2028041143        0.1737774295        3.2672614908
  N         3.2145310005        0.0483847249        5.2321523333
 Ga         3.2053499888        1.9118396537        5.8650917798
  N         3.2146952470        1.9043091631        7.8391337917
 Ga         3.2111546248        0.0385414720        8.4324655578
  N         3.2131924831        0.0336423131       10.4219956051
 Ga         3.2137442228        1.9038979421       11.0239133794
  N         3.2150184989        1.9037916548       12.9903734810
 Ga         3.2143992800        0.0354473397       13.6206762448
  N         3.2152977276        0.0685862168       15.5768170969
 Ga         3.2156123964        1.9045898401       15.8627117081
  N         1.4442531896        4.6034854742        2.5013248347
 Ga         1.6674050944        2.7984673556        3.2619702386
  N         1.6077527992        2.8359472498        5.2410224659
 Ga         1.6491977655        4.7091123648        5.7926027096
  N         1.6128662029        4.6967641986        7.7969492801
 Ga         1.5955728965        2.8387727508        8.4341769909
  N         1.5951530702        2.8385697872       10.4256247624
 Ga         1.6226439749        4.6969935075       11.0711437439
  N         1.6390472004        4.7076417359       13.0603210790
 Ga         1.5963404089        2.8382259709       13.6200642305
  N         1.6255242469        2.8222648455       15.5769082885
 Ga         1.4348721556        4.5894823559       16.4858242999
  N        -0.0007912955        7.4712331531        2.6904552777
 Ga         0.0016889968        5.6048408903        3.3132474742
  N        -0.0039381015        5.6378421290        5.2498570133
 Ga        -0.0018324826        7.4690181799        5.9048752509
  N        -0.0022977547        7.4765892939        7.8587094676
 Ga        -0.0010504583        5.6022107412        8.4467482753
  N        -0.0026140055        5.6047928400       10.4322962879
 Ga        -0.0032360707        7.4742960599       11.0294861632
  N        -0.0019491889        7.4748145561       12.9942854006
 Ga        -0.0013618033        5.6045856355       13.6214172154
  N        -0.0006005806        5.6386897120       15.5780277475
 Ga        -0.0007563591        7.4747902049       15.8635201833
  N        -1.7121744561       10.1975875376        2.5149326410
 Ga        -1.5954781163        8.3897366332        3.3165055715
  N        -1.5994442098        8.3989864760        5.2438305288
 Ga        -1.5867876135       10.2855087790        5.8005075926
  N        -1.6016088192       10.2642424031        7.7877225902
 Ga        -1.6236194600        8.4105087579        8.4434997124
  N        -1.6233615563        8.4092369875       10.4278543279
 Ga        -1.5970239830       10.2694436495       11.0714776648
  N        -1.5778429678       10.2782387718       13.0598011102
 Ga        -1.6208425818        8.4092493139       13.6221321933
  N        -1.5907452380        8.3929924426       15.5782244386
 Ga        -1.7823246475       10.1605384584       16.4863545719
  N         6.4306456392        2.0285477793        2.5419103203
 Ga         6.4272721075        0.0604851317        2.8749484173
  N         6.4303192098        0.0507843317        5.0171765887
 Ga         6.4248492799        1.8840132351        5.8012929529
  N         6.4295692622        1.8940006140        7.7922610550
 Ga         6.4282287713        0.0496838871        8.4468192546
  N         6.4294447657        0.0472680597       10.4152834585
 Ga         6.4295158751        1.8881970595       11.0700689004
  N         6.4304073898        1.8669786645       13.0596581581
 Ga         6.4297950799        0.0474735066       13.8738634772
  N         6.4283630625        0.0463434195       16.0653452230
 Ga         6.4295922489        2.0871936497       16.4825730578
 Ga         6.4423300946        3.7325863040        1.5104416650
  N         4.9513136752        4.6325484334        2.5088397571
 Ga         4.7028918537        2.7918078978        3.2877837283
  N         4.8201841740        2.8389867661        5.2447653640
 Ga         4.7788938813        4.7165373249        5.7967403083
  N         4.8196919019        4.6971182719        7.7970632331
 Ga         4.8301513710        2.8396275269        8.4369555566
  N         4.8331871877        2.8392283696       10.4263952238
 Ga         4.8080596898        4.6982555045       11.0693291555
  N         4.7909054306        4.7073964910       13.0589088780
 Ga         4.8330418578        2.8386005018       13.6195652568
  N         4.8082156843        2.8241625147       15.5794583955
 Ga         4.9804088139        4.5971335679       16.4825346462
  N         6.4235608648        3.7568292964       17.6258278739
  N         3.2154890371        7.6321304202        2.5177873930
  N         3.2167243732        5.6274910791        5.0313338768
 Ga         3.2199191314        7.4247805172        5.8065415747
  N         3.2167347223        7.4729415016        7.8005381251
 Ga         3.2147134168        5.6183440922        8.4438966769
  N         3.2151987014        5.6185871758       10.4158206187
 Ga         3.2161880342        7.4563283171       11.0733445799
  N         3.2146774152        7.4374392061       13.0616364688
 Ga         3.2146490659        5.6166269513       13.8722617909
  N         3.2131825676        5.6161584810       16.0647841092
 Ga         3.2142738029        7.6570098810       16.4830913423
 Ga         3.2168511543        9.3748900170        1.4554956794
  N         1.7031154577       10.2031981416        2.5281115013
 Ga         1.5877185651        8.3893755415        3.3349516030
  N         1.5947505989        8.4020443999        5.2571062571
 Ga         1.5785534071       10.2840356110        5.8133937114
  N         1.5960559132       10.2657216358        7.7978073147
 Ga         1.6186583844        8.4108997388        8.4511719493
  N         1.6174998740        8.4097931865       10.4342561925
 Ga         1.5908980548       10.2699132776       11.0738528869
  N         1.5739111281       10.2785528593       13.0620823925
 Ga         1.6173716574        8.4090897388       13.6219024758
  N         1.5921383916        8.3944873990       15.5815309747
 Ga         1.7647371448       10.1676509669       16.4831676296
  N         3.2084110345        9.3278073309       17.6251701027
  N         9.6537507314        1.9137058132        2.6208151698
 Ga         9.6530845085        0.1730250083        3.2948203030
  N         9.6442936873        0.0477307279        5.2528622693
 Ga         9.6533735084        1.9106529449        5.8796188873
  N         9.6462520374        1.9048967672        7.8490016330
 Ga         9.6492498139        0.0378326273        8.4411410226
  N         9.6470202032        0.0336782024       10.4283245784
 Ga         9.6458430534        1.9049258357       11.0251847433
  N         9.6451371627        1.9034979412       12.9929917976
 Ga         9.6471961499        0.0345260962       13.6214750013
  N         9.6469070158        0.0631269876       15.5805754332
 Ga         9.6443783348        1.9028180163       15.8606221963
  N         7.9301191322        4.6439383980        2.5163407491
 Ga         8.1473951699        2.7805215094        3.3016735317
  N         8.0388222779        2.8359020673        5.2563651816
 Ga         8.0624804844        4.7089726742        5.7971970008
  N         8.0464791135        4.7002317276        7.7878981911
 Ga         8.0284958260        2.8407725123        8.4360720416
  N         8.0263960990        2.8404699634       10.4251346254
 Ga         8.0530116444        4.6988138753       11.0708451315
  N         8.0705594120        4.7075789560       13.0596482803
 Ga         8.0270977352        2.8391886352       13.6207841649
  N         8.0523852673        2.8242700355       15.5800788794
 Ga         7.8744722547        4.5946845118       16.4827513242
  N         6.4164159513        7.5003611519        2.5745455986
 Ga         6.4177308408        5.7109612282        3.2979100961
  N         6.4294169776        5.6436595012        5.2387560768
 Ga         6.4288088481        7.4789402262        5.9076270202
  N         6.4310426050        7.4770118814        7.8591168703
 Ga         6.4311123880        5.6066317894        8.4431384152
  N         6.4315052863        5.6067588752       10.4283872386
 Ga         6.4308674359        7.4743411584       11.0276379622
  N         6.4298152168        7.4736451237       12.9935118504
 Ga         6.4307144327        5.6039358218       13.6205919684
  N         6.4303774814        5.6334364775       15.5794994732
 Ga         6.4285100525        7.4728334141       15.8602951502
  N         4.7256244883       10.2078642091        2.5087453636
 Ga         4.8738878656        8.3794252478        3.3027988442
  N         4.8373965095        8.3985536647        5.2441778454
 Ga         4.8511810310       10.2799955649        5.8010151017
  N         4.8326563655       10.2637038764        7.7905300697
 Ga         4.8132586415        8.4127069932        8.4466259457
  N         4.8131215031        8.4096544742       10.4305370543
 Ga         4.8392134749       10.2689267102       11.0720671151
  N         4.8548089508       10.2782548854       13.0606730628
 Ga         4.8116211631        8.4096499354       13.6215267381
  N         4.8366656646        8.3947142635       15.5804945343
 Ga         4.6596365645       10.1651338613       16.4827373877
  O         0.0265834885        3.7053104110       -0.5125292984
  H         0.0204484664        7.4645651038        1.6638642136
  C         0.6505167486        2.5658185939       -1.1187920795
  H         1.7127931780        2.4549102269       -0.8415936644
  H         0.1300997177        1.6266699802       -0.8681203218
  H         0.5912783073        2.7106774971       -2.2077710671
 Ga         3.1597965042        5.6042538432        2.3466061528
  O         3.1283452822        5.6932821322        0.3434753281
  H         2.9708553766        4.7840354775        0.0173359340
  C         6.4310466840        7.4223312871        1.0013067472
  H         5.5558354971        7.9047233519        0.5371943392
  H         7.3306072150        7.9051712804        0.5924883553
  H         6.4151794590        6.3704905695        0.6991058511
     212
 i =        2, E =     -8504.7311733872
  N        -0.0076807968        2.0449523769        2.5062281446
 Ga        -0.0056831189        0.1140125157        2.8483559364
  N        -0.0041329963        0.0479490720        5.0136511969
 Ga         0.0000238709        1.8874128076        5.7914670475
  N        -0.0026607894        1.8922151375        7.7907294067
 Ga         0.0000274348        0.0498343993        8.4396146568
  N        -0.0012346828        0.0459001769       10.4105379827
 Ga        -0.0011291032        1.8862795050       11.0696115335
  N        -0.0017003520        1.8660693907       13.0596848558
 Ga        -0.0015616108        0.0470622388       13.8757289346
  N        -0.0024682573        0.0461653991       16.0636343209
 Ga        -0.0022452378        2.0940209868       16.4831860881
 Ga        -0.0128928477        3.7364637449        1.3060991322
  N        -1.4871903116        4.6283920842        2.4866593155
 Ga        -1.6712015524        2.7959903636        3.2658761051
  N        -1.6154292588        2.8362512234        5.2468749363
 Ga        -1.6344742170        4.7008869946        5.8024235692
  N        -1.6207822441        4.6988339614        7.7943702291
 Ga        -1.5977844165        2.8388982714        8.4361092270
  N        -1.5990607024        2.8393389814       10.4267308232
 Ga        -1.6263081266        4.6977713253       11.0727082286
  N        -1.6429400721        4.7079239091       13.0615685662
 Ga        -1.5992733841        2.8379377044       13.6208265889
  N        -1.6304314621        2.8200062476       15.5777492762
 Ga        -1.4451023851        4.5927090319       16.4838234661
  N        -0.0079230171        3.7562848665       17.6127397893
  N        -3.2295130220        7.5955980744        2.4920861793
 Ga        -3.1767561642        5.5839462604        2.8495702292
  N        -3.2189430377        5.6210009255        5.0116821940
 Ga        -3.2228290003        7.4367956039        5.7971553080
  N        -3.2215116142        7.4684158693        7.7827711971
 Ga        -3.2180376602        5.6191528294        8.4431089862
  N        -3.2189776876        5.6193488344       10.4119637860
 Ga        -3.2192070769        7.4564127904       11.0741368391
  N        -3.2183009946        7.4370475624       13.0612226121
 Ga        -3.2184889254        5.6170994361       13.8773184597
  N        -3.2193454622        5.6168243864       16.0644948503
 Ga        -3.2190686674        7.6651070197       16.4844742254
 Ga        -3.2181227905        9.3763122138        1.4031538994
  N        -4.7359288131       10.1954891939        2.4973202918
 Ga        -4.8696654713        8.3895454716        3.2930633792
  N        -4.8495723600        8.3906068809        5.2274223153
 Ga        -4.8562040672       10.2832448634        5.7883857636
  N        -4.8352588025       10.2606229851        7.7803457251
 Ga        -4.8138294142        8.4134128865        8.4447324429
  N        -4.8150011318        8.4093596754       10.4276032850
 Ga        -4.8413715325       10.2695280771       11.0712601853
  N        -4.8579979077       10.2778458134       13.0594418113
 Ga        -4.8155189759        8.4091089822       13.6219909342
  N        -4.8467343334        8.3909109867       15.5779086536
 Ga        -4.6615490484       10.1637745162       16.4838557361
  N        -3.2249148016        9.3278797769       17.6138584319
  N         3.2003067252        1.9175444040        2.6069238362
 Ga         3.2043008769        0.1740424529        3.2681025608
  N         3.2130809114        0.0450653065        5.2334699644
 Ga         3.2057300819        1.9123522284        5.8642659124
  N         3.2150586213        1.9036363571        7.8391459184
 Ga         3.2120452438        0.0390393286        8.4322301961
  N         3.2131195393        0.0332084212       10.4214763857
 Ga         3.2134765989        1.9039493330       11.0236635254
  N         3.2150326728        1.9035454443       12.9899846451
 Ga         3.2143687703        0.0355009090       13.6210112346
  N         3.2152901228        0.0687281973       15.5768703421
 Ga         3.2156828773        1.9045967665       15.8628581024
  N         1.4280781415        4.5916309924        2.5213292508
 Ga         1.6659729107        2.8003740419        3.2667325932
  N         1.6073225669        2.8319651801        5.2472053082
 Ga         1.6495544000        4.7092357046        5.7883005853
  N         1.6113380761        4.6961558770        7.7973472127
 Ga         1.5958099497        2.8393701013        8.4325828275
  N         1.5950210112        2.8382518621       10.4249007515
 Ga         1.6228109305        4.6972443078       11.0698777650
  N         1.6389660579        4.7077205671       13.0597762771
 Ga         1.5964646947        2.8380953948       13.6200350551
  N         1.6257042087        2.8221688578       15.5766682047
 Ga         1.4345999037        4.5894250102       16.4853897269
  N        -0.0024053486        7.4689162242        2.6903081248
 Ga         0.0021202431        5.6007276047        3.3189188755
  N        -0.0079870558        5.6391907863        5.2561700676
 Ga        -0.0016535612        7.4688896823        5.9047191753
  N        -0.0026871787        7.4775828542        7.8591698480
 Ga        -0.0005380458        5.6022096440        8.4454200700
  N        -0.0030497899        5.6053416324       10.4316848809
 Ga        -0.0030249887        7.4743941517       11.0292486322
  N        -0.0018676426        7.4750762286       12.9936993762
 Ga        -0.0013663194        5.6050678193       13.6213931099
  N        -0.0006176389        5.6390439383       15.5777732385
 Ga        -0.0007942311        7.4748853480       15.8636485140
  N        -1.7118881657       10.1974555228        2.5184096979
 Ga        -1.5951358695        8.3888967011        3.3141841533
  N        -1.6024051093        8.3989212596        5.2427840974
 Ga        -1.5861350748       10.2854815650        5.8008417562
  N        -1.6010535284       10.2645050622        7.7879235098
 Ga        -1.6229606592        8.4113157199        8.4435922372
  N        -1.6234864548        8.4094533938       10.4274894073
 Ga        -1.5968165962       10.2696136765       11.0715928757
  N        -1.5780296005       10.2781229297       13.0596119236
 Ga        -1.6204977383        8.4091756927       13.6224335956
  N        -1.5906922611        8.3929364229       15.5781318647
 Ga        -1.7823287066       10.1604813558       16.4860070712
  N         6.4303706464        2.0270067985        2.5418236385
 Ga         6.4273544434        0.0613998843        2.8742225756
  N         6.4302318405        0.0508908914        5.0176820363
 Ga         6.4256005353        1.8837516114        5.8016848466
  N         6.4298158787        1.8934516561        7.7925093307
 Ga         6.4285536734        0.0499543292        8.4472241018
  N         6.4295908459        0.0470469910       10.4151387887
 Ga         6.4295492486        1.8879955609       11.0702358028
  N         6.4304984101        1.8669800566       13.0595996074
 Ga         6.4297584713        0.0473558475       13.8741162200
  N         6.4283878958        0.0461474553       16.0653945987
 Ga         6.4296184942        2.0878777083       16.4826346713
 Ga         6.4324736145        3.7266184610        1.5071503976
  N         4.9648019258        4.6290400517        2.5241341493
 Ga         4.7023265146        2.7931494167        3.2924087457
  N         4.8229359930        2.8377258218        5.2488991005
 Ga         4.7749506635        4.7171677770        5.7943094641
  N         4.8226195667        4.6967903449        7.7964201719
 Ga         4.8302817780        2.8395746658        8.4359062645
  N         4.8333136085        2.8390469679       10.4256665822
 Ga         4.8066562026        4.6980823842       11.0696072638
  N         4.7909131761        4.7076010430       13.0591917217
 Ga         4.8328588521        2.8385093709       13.6199291972
  N         4.8079619533        2.8239867485       15.5793839862
 Ga         4.9812086574        4.5965784370       16.4825211108
  N         6.4238319481        3.7569041533       17.6258827067
  N         3.2198716079        7.6412224019        2.5243342478
  N         3.2176593642        5.6277166914        5.0441726111
 Ga         3.2186529568        7.4197612650        5.8060011828
  N         3.2174365166        7.4760780178        7.8015053798
 Ga         3.2144315084        5.6181229589        8.4377976525
  N         3.2152659302        5.6192214139       10.4121324742
 Ga         3.2152004954        7.4558773752       11.0734457511
  N         3.2147469636        7.4377540623       13.0616069817
 Ga         3.2145185630        5.6169067706       13.8728484903
  N         3.2128745698        5.6161922434       16.0651385525
 Ga         3.2141512987        7.6579525979       16.4828890812
 Ga         3.2053313473        9.3678916761        1.4529985543
  N         1.7013700412       10.2019198838        2.5280173109
 Ga         1.5863570704        8.3850159865        3.3367066466
  N         1.5955025577        8.4049294112        5.2592128869
 Ga         1.5781730812       10.2853921541        5.8136016092
  N         1.5956162231       10.2662061769        7.7977563952
 Ga         1.6184078678        8.4115841062        8.4503623220
  N         1.6173613671        8.4102704255       10.4334538035
 Ga         1.5909394608       10.2699296919       11.0740773542
  N         1.5740798204       10.2784705022       13.0619719597
 Ga         1.6171843027        8.4090342382       13.6222248904
  N         1.5917970223        8.3942503867       15.5813187630
 Ga         1.7654616416       10.1672099088       16.4829549563
  N         3.2085174931        9.3278244173       17.6256867842
  N         9.6534869548        1.9163777915        2.6239596960
 Ga         9.6519003024        0.1740392705        3.2906166729
  N         9.6459264252        0.0454586036        5.2504035838
 Ga         9.6533389768        1.9111574775        5.8769288540
  N         9.6457746725        1.9047231931        7.8475170985
 Ga         9.6482590632        0.0378995305        8.4405676337
  N         9.6470594058        0.0334522775       10.4275094821
 Ga         9.6460350545        1.9047887098       11.0251948506
  N         9.6452285382        1.9032957695       12.9924781014
 Ga         9.6471943971        0.0345776215       13.6217663087
  N         9.6469457385        0.0634709925       15.5802471127
 Ga         9.6443016829        1.9028353309       15.8605688519
  N         7.9273248373        4.6501829642        2.5111594276
 Ga         8.1451701055        2.7823147148        3.2993962465
  N         8.0376365133        2.8382481470        5.2552956095
 Ga         8.0659851951        4.7090436801        5.7979636590
  N         8.0451878954        4.7009900769        7.7871761187
 Ga         8.0279441493        2.8404317349        8.4356691272
  N         8.0265204530        2.8406037256       10.4245996761
 Ga         8.0538961727        4.6984457282       11.0719332304
  N         8.0706357448        4.7076983402       13.0599830509
 Ga         8.0273954997        2.8390231948       13.6211457579
  N         8.0525797883        2.8242211657       15.5797866952
 Ga         7.8740534647        4.5942662995       16.4827553036
  N         6.4202653350        7.4949036271        2.5566105981
 Ga         6.4150940918        5.6818079224        3.3134683782
  N         6.4331180530        5.6524189778        5.2406262592
 Ga         6.4281417039        7.4788655055        5.9219045626
  N         6.4310771486        7.4771935173        7.8659272499
 Ga         6.4303873608        5.6038541282        8.4479924141
  N         6.4317444877        5.6066392694       10.4311332001
 Ga         6.4307288919        7.4747491855       11.0289686968
  N         6.4300007629        7.4740194524       12.9938350217
 Ga         6.4307327935        5.6043125128       13.6210656584
  N         6.4305062531        5.6336593687       15.5794288183
 Ga         6.4284894685        7.4727746447       15.8603807817
  N         4.7261276369       10.2032473193        2.5031518465
 Ga         4.8543516701        8.3882700605        3.3098761613
  N         4.8455540688        8.3979391041        5.2400553180
 Ga         4.8532457913       10.2833956918        5.8031142077
  N         4.8326212855       10.2626656390        7.7910223448
 Ga         4.8105570165        8.4136154744        8.4512869210
  N         4.8127276734        8.4103246193       10.4330400799
 Ga         4.8390402139       10.2699112066       11.0729875658
  N         4.8547452667       10.2782304111       13.0606996127
 Ga         4.8117469573        8.4097043256       13.6219251458
  N         4.8369149953        8.3946245832       15.5802435715
 Ga         4.6588451723       10.1648383151       16.4825194496
  O         0.0160352354        3.6993540938       -0.5094838036
  H         0.0218161040        7.4607676499        1.6636522947
  C         0.6470932368        2.5653487595       -1.1193700647
  H         1.7090657021        2.4593346921       -0.8393297316
  H         0.1315743912        1.6243272875       -0.8683606854
  H         0.5936610633        2.7091026979       -2.2080544863
 Ga         3.1528983319        5.5956390767        2.0966061528
  O         3.1629130075        5.6963151740        0.4251469208
  H         2.9608866186        4.8161734209        0.0303272423
  C         6.4335010236        7.4174958774        1.0286261753
  H         5.5507354708        7.8997599187        0.5829592478
  H         7.3300425063        7.8951484658        0.6124930409
  H         6.4169028140        6.3775793718        0.6680619651
     212
 i =        3, E =     -8504.7469643979
  N        -0.0058514174        2.0401669094        2.5072837691
 Ga        -0.0054457910        0.1104183801        2.8461673725
  N        -0.0046627422        0.0494984578        5.0131361109
 Ga         0.0008227778        1.8886691246        5.7923665875
  N        -0.0025021343        1.8924465618        7.7916799279
 Ga        -0.0002746726        0.0506505440        8.4403741992
  N        -0.0011060823        0.0459133139       10.4111308500
 Ga        -0.0011872389        1.8864373447       11.0694187766
  N        -0.0019323991        1.8659287609       13.0596506296
 Ga        -0.0014898540        0.0470949285       13.8755379010
  N        -0.0023939360        0.0462400201       16.0636131535
 Ga        -0.0022987730        2.0944939474       16.4829237218
 Ga        -0.0093827371        3.7386752415        1.3118304743
  N        -1.4907307133        4.6329445363        2.4883641573
 Ga        -1.6700066226        2.7968490927        3.2629966877
  N        -1.6145159742        2.8367423374        5.2458807919
 Ga        -1.6334513508        4.7009263226        5.8037005396
  N        -1.6205410570        4.6989246785        7.7956268588
 Ga        -1.5978991314        2.8388442238        8.4360886399
  N        -1.5992087870        2.8392710186       10.4268628125
 Ga        -1.6262448012        4.6977253878       11.0725399391
  N        -1.6431145839        4.7078547342       13.0615805195
 Ga        -1.5993766170        2.8379011668       13.6205126289
  N        -1.6306070133        2.8199511823       15.5774651657
 Ga        -1.4446807452        4.5924875132       16.4835105208
  N        -0.0076049642        3.7564956907       17.6131247307
  N        -3.2285234337        7.5984470050        2.4940719763
 Ga        -3.1804698933        5.5858246348        2.8485601185
  N        -3.2179119106        5.6195998767        5.0116378843
 Ga        -3.2224639818        7.4349966452        5.7985625142
  N        -3.2209422131        7.4682304990        7.7843134969
 Ga        -3.2178541154        5.6185176520        8.4436364628
  N        -3.2188523133        5.6196399019       10.4124269951
 Ga        -3.2184484101        7.4562514873       11.0748488532
  N        -3.2182256458        7.4371850126       13.0617397708