 DBCSR| Multiplication driver                                               BLAS
 DBCSR| Multrec recursion limit                                              512
 DBCSR| Multiplication stack size                                           1000
 DBCSR| Maximum elements for images                                    UNLIMITED
 DBCSR| Multiplicative factor virtual images                                   1
 DBCSR| Multiplication size stacks                                             3
 DBCSR| Number of 3D layers                                               SINGLE
 DBCSR| Use MPI memory allocation                                              T
 DBCSR| Use RMA algorithm                                                      F
 DBCSR| Use Communication thread                                               T
 DBCSR| Communication thread load                                             87


  **** **** ******  **  PROGRAM STARTED AT               2019-07-18 20:38:30.535
 ***** ** ***  *** **   PROGRAM STARTED ON        blg9226.int.ets1.calculquebec.
 **    ****   ******    PROGRAM STARTED BY                                   rzk
 ***** **    ** ** **   PROGRAM PROCESS ID                                124888
  **** **  *******  **  PROGRAM STARTED IN /lustre04/scratch/rzk/rzk/GaN-carbene
                                           /443-adatoms-both-2x2/09-BondBreaking
                                           -CH/02-0401-CH-to-NTop-PES/Phase04-Op
                                           timizeAdjustedIntermed909

 CP2K| version string:                    CP2K version 7.0 (Development Version)
 CP2K| source code revision number:                                    svn:18619
 CP2K| cp2kflags: libint fftw3 libxc parallel mpi3 scalapack mkl                
 CP2K| is freely available from                            https://www.cp2k.org/
 CP2K| Program compiled at                          Sun Apr  7 00:48:11 EDT 2019
 CP2K| Program compiled on                      beluga2.int.ets1.calculquebec.ca
 CP2K| Program compiled for                    Beluga-Linux-x86-64-intel-openmpi
 CP2K| Data directory path    /home/rzk/projects/def-rzk/group/cp2k/cp2k-mcgill/
 CP2K| Input file name                                                 start.inp
 
 GLOBAL| Force Environment number                                              1
 GLOBAL| Basis set file name                                        BASIS_MOLOPT
 GLOBAL| Potential file name                                      GTH_POTENTIALS
 GLOBAL| MM Potential file name                                     MM_POTENTIAL
 GLOBAL| Coordinate file name                                      __STD_INPUT__
 GLOBAL| Method name                                                        CP2K
 GLOBAL| Project name                                                       TEST
 GLOBAL| Preferred FFT library                                             FFTW3
 GLOBAL| Preferred diagonalization lib.                                       SL
 GLOBAL| Run type                                                        GEO_OPT
 GLOBAL| All-to-all communication in single precision                          F
 GLOBAL| FFTs using library dependent lengths                                  F
 GLOBAL| Global print level                                               MEDIUM
 GLOBAL| MPI I/O enabled                                                       T
 GLOBAL| Total number of message passing processes                            80
 GLOBAL| Number of threads for this process                                    1
 GLOBAL| This output is from process                                           0
 GLOBAL| CPU model name :  Intel(R) Xeon(R) Gold 6148 CPU @ 2.40GHz

 MEMORY| system memory details [Kb]
 MEMORY|                        rank 0           min           max       average
 MEMORY| MemTotal            196614300     196614300     196614300     196614300
 MEMORY| MemFree             165805936     165805936     183955568     174872539
 MEMORY| Buffers                     0             0             0             0
 MEMORY| Cached                4226380       1428440       4226380       2827410
 MEMORY| Slab                  2845876       1790588       2845876       2318232
 MEMORY| SReclaimable           279496        279496        393120        336308
 MEMORY| MemLikelyFree       170311812     170311812     185777128     178036257


 *** Fundamental physical constants (SI units) ***

 *** Literature: B. J. Mohr and B. N. Taylor,
 ***             CODATA recommended values of the fundamental physical
 ***             constants: 2006, Web Version 5.1
 ***             http://physics.nist.gov/constants

 Speed of light in vacuum [m/s]                             2.99792458000000E+08
 Magnetic constant or permeability of vacuum [N/A**2]       1.25663706143592E-06
 Electric constant or permittivity of vacuum [F/m]          8.85418781762039E-12
 Planck constant (h) [J*s]                                  6.62606896000000E-34
 Planck constant (h-bar) [J*s]                              1.05457162825177E-34
 Elementary charge [C]                                      1.60217648700000E-19
 Electron mass [kg]                                         9.10938215000000E-31
 Electron g factor [ ]                                     -2.00231930436220E+00
 Proton mass [kg]                                           1.67262163700000E-27
 Fine-structure constant                                    7.29735253760000E-03
 Rydberg constant [1/m]                                     1.09737315685270E+07
 Avogadro constant [1/mol]                                  6.02214179000000E+23
 Boltzmann constant [J/K]                                   1.38065040000000E-23
 Atomic mass unit [kg]                                      1.66053878200000E-27
 Bohr radius [m]                                            5.29177208590000E-11

 *** Conversion factors ***

 [u] -> [a.u.]                                              1.82288848426455E+03
 [Angstrom] -> [Bohr] = [a.u.]                              1.88972613288564E+00
 [a.u.] = [Bohr] -> [Angstrom]                              5.29177208590000E-01
 [a.u.] -> [s]                                              2.41888432650478E-17
 [a.u.] -> [fs]                                             2.41888432650478E-02
 [a.u.] -> [J]                                              4.35974393937059E-18
 [a.u.] -> [N]                                              8.23872205491840E-08
 [a.u.] -> [K]                                              3.15774647902944E+05
 [a.u.] -> [kJ/mol]                                         2.62549961709828E+03
 [a.u.] -> [kcal/mol]                                       6.27509468713739E+02
 [a.u.] -> [Pa]                                             2.94210107994716E+13
 [a.u.] -> [bar]                                            2.94210107994716E+08
 [a.u.] -> [atm]                                            2.90362800883016E+08
 [a.u.] -> [eV]                                             2.72113838565563E+01
 [a.u.] -> [Hz]                                             6.57968392072181E+15
 [a.u.] -> [1/cm] (wave numbers)                            2.19474631370540E+05
 [a.u./Bohr**2] -> [1/cm]                                   5.14048714338585E+03
 
          ----------------------------------------------------------------------
 COLVARS| COLVAR INPUT INDEX:        1
 COLVARS| BOND          >>> ATOMS:                                   127     211
          ----------------------------------------------------------------------

 CELL_TOP| Volume [angstrom^3]:                                         4586.323
 CELL_TOP| Vector a [angstrom    12.864     0.000     0.000    |a| =      12.864
 CELL_TOP| Vector b [angstrom    -6.432    11.141     0.000    |b| =      12.864
 CELL_TOP| Vector c [angstrom     0.000     0.000    32.000    |c| =      32.000
 CELL_TOP| Angle (b,c), alpha [degree]:                                   90.000
 CELL_TOP| Angle (a,c), beta  [degree]:                                   90.000
 CELL_TOP| Angle (a,b), gamma [degree]:                                  120.000
 CELL_TOP| Numerically orthorhombic:                                          NO
 
 GENERATE|  Preliminary Number of Bonds generated:                             0
 GENERATE|  Achieved consistency in connectivity generation.

 CELL| Volume [angstrom^3]:                                             4586.323
 CELL| Vector a [angstrom]:      12.864     0.000     0.000    |a| =      12.864
 CELL| Vector b [angstrom]:      -6.432    11.141     0.000    |b| =      12.864
 CELL| Vector c [angstrom]:       0.000     0.000    32.000    |c| =      32.000
 CELL| Angle (b,c), alpha [degree]:                                       90.000
 CELL| Angle (a,c), beta  [degree]:                                       90.000
 CELL| Angle (a,b), gamma [degree]:                                      120.000
 CELL| Numerically orthorhombic:                                              NO

 CELL_REF| Volume [angstrom^3]:                                         4670.759
 CELL_REF| Vector a [angstrom    12.982     0.000     0.000    |a| =      12.982
 CELL_REF| Vector b [angstrom    -6.491    11.243     0.000    |b| =      12.982
 CELL_REF| Vector c [angstrom     0.000     0.000    32.000    |c| =      32.000
 CELL_REF| Angle (b,c), alpha [degree]:                                   90.000
 CELL_REF| Angle (a,c), beta  [degree]:                                   90.000
 CELL_REF| Angle (a,b), gamma [degree]:                                  120.000
 CELL_REF| Numerically orthorhombic:                                          NO

 *******************************************************************************
 *******************************************************************************
 **                                                                           **
 **     #####                         ##              ##                      **
 **    ##   ##            ##          ##              ##                      **
 **   ##     ##                       ##            ######                    **
 **   ##     ##  ##   ##  ##   #####  ##  ##   ####   ##    #####    #####    **
 **   ##     ##  ##   ##  ##  ##      ## ##   ##      ##   ##   ##  ##   ##   **
 **   ##  ## ##  ##   ##  ##  ##      ####     ###    ##   ######   ######    **
 **    ##  ###   ##   ##  ##  ##      ## ##      ##   ##   ##       ##        **
 **     #######   #####   ##   #####  ##  ##  ####    ##    #####   ##        **
 **           ##                                                    ##        **
 **                                                                           **
 **                                                ... make the atoms dance   **
 **                                                                           **
 **            Copyright (C) by CP2K developers group (2000 - 2018)           **
 **                                                                           **
 *******************************************************************************

 DFT| Spin unrestricted (spin-polarized) Kohn-Sham calculation               UKS
 DFT| Multiplicity                                                             1
 DFT| Number of spin states                                                    2
 DFT| Charge                                                                   0
 DFT| Self-interaction correction (SIC)                                       NO
 DFT| Cutoffs: density                                              1.000000E-10
 DFT|          gradient                                             1.000000E-10
 DFT|          tau                                                  1.000000E-10
 DFT|          cutoff_smoothing_range                               0.000000E+00
 DFT| XC density smoothing                                                  NONE
 DFT| XC derivatives                                                          PW
 FUNCTIONAL| ROUTINE=NEW
 FUNCTIONAL| PBE:
 FUNCTIONAL| J.P.Perdew, K.Burke, M.Ernzerhof, Phys. Rev. Letter, vol. 77, n 18,
 FUNCTIONAL|  pp. 3865-3868, (1996){spin polarized}                             
 vdW POTENTIAL|                                                   Pair Potential
 vdW POTENTIAL|          DFT-D3 (Version 3.1)
 vdW POTENTIAL|          Potential Form: S. Grimme et al, JCP 132: 154104 (2010)
 vdW POTENTIAL|          Zero Damping
 vdW POTENTIAL|          Cutoff Radius [Bohr]:                             18.90
 vdW POTENTIAL|          s6 Scaling Factor:                               1.0000
 vdW POTENTIAL|          sr6 Scaling Factor:                              1.2170
 vdW POTENTIAL|          s8 Scaling Factor:                               0.7220
 vdW POTENTIAL|          Cutoff for CN calculation:                   0.1000E-05

 QS| Method:                                                                 GPW
 QS| Density plane wave grid type                        NON-SPHERICAL FULLSPACE
 QS| Number of grid levels:                                                    5
 QS| Density cutoff [a.u.]:                                                600.0
 QS| Multi grid cutoff [a.u.]: 1) grid level                               600.0
 QS|                           2) grid level                               200.0
 QS|                           3) grid level                                66.7
 QS|                           4) grid level                                22.2
 QS|                           5) grid level                                 7.4
 QS| Grid level progression factor:                                          3.0
 QS| Relative density cutoff [a.u.]:                                        20.0
 QS| Consistent realspace mapping and integration 
 QS| Interaction thresholds: eps_pgf_orb:                                1.0E-07
 QS|                         eps_filter_matrix:                          0.0E+00
 QS|                         eps_core_charge:                            1.0E-16
 QS|                         eps_rho_gspace:                             1.0E-14
 QS|                         eps_rho_rspace:                             1.0E-14
 QS|                         eps_gvg_rspace:                             1.0E-07
 QS|                         eps_ppl:                                    1.0E-02
 QS|                         eps_ppnl:                                   1.0E-09


 ATOMIC KIND INFORMATION

  1. Atomic kind: N                                     Number of atoms:     100

     Orbital Basis Set                                        DZVP-MOLOPT-SR-GTH

       Number of orbital shell sets:                                           1
       Number of orbital shells:                                               5
       Number of primitive Cartesian functions:                                5
       Number of Cartesian basis functions:                                   14
       Number of spherical basis functions:                                   13
       Norm type:                                                              2

       Normalised Cartesian orbitals:

                        Set   Shell   Orbital            Exponent    Coefficient

                          1       1    2s                7.341988       0.360561
                                                         2.542637       0.139177
                                                         0.888575      -0.289383
                                                         0.333802      -0.182244
                                                         0.112012      -0.019197

                          1       2    3s                7.341988       0.282000
                                                         2.542637       0.177875
                                                         0.888575      -0.278381
                                                         0.333802       0.008577
                                                         0.112012       0.154176

                          1       3    3px               7.341988      -1.188719
                                                         2.542637      -0.973969
                                                         0.888575      -0.501079
                                                         0.333802      -0.144894
                                                         0.112012      -0.013986
                          1       3    3py               7.341988      -1.188719
                                                         2.542637      -0.973969
                                                         0.888575      -0.501079
                                                         0.333802      -0.144894
                                                         0.112012      -0.013986
                          1       3    3pz               7.341988      -1.188719
                                                         2.542637      -0.973969
                                                         0.888575      -0.501079
                                                         0.333802      -0.144894
                                                         0.112012      -0.013986

                          1       4    4px               7.341988      -0.094798
                                                         2.542637       0.050069
                                                         0.888575      -0.114797
                                                         0.333802       0.144793
                                                         0.112012       0.066710
                          1       4    4py               7.341988      -0.094798
                                                         2.542637       0.050069
                                                         0.888575      -0.114797
                                                         0.333802       0.144793
                                                         0.112012       0.066710
                          1       4    4pz               7.341988      -0.094798
                                                         2.542637       0.050069
                                                         0.888575      -0.114797
                                                         0.333802       0.144793
                                                         0.112012       0.066710

                          1       5    4dx2              7.341988       1.354688
                                                         2.542637       0.690378
                                                         0.888575       0.855359
                                                         0.333802       0.091746
                                                         0.112012       0.001253
                          1       5    4dxy              7.341988       2.346389
                                                         2.542637       1.195770
                                                         0.888575       1.481524
                                                         0.333802       0.158910
                                                         0.112012       0.002169
                          1       5    4dxz              7.341988       2.346389
                                                         2.542637       1.195770
                                                         0.888575       1.481524
                                                         0.333802       0.158910
                                                         0.112012       0.002169
                          1       5    4dy2              7.341988       1.354688
                                                         2.542637       0.690378
                                                         0.888575       0.855359
                                                         0.333802       0.091746
                                                         0.112012       0.001253
                          1       5    4dyz              7.341988       2.346389
                                                         2.542637       1.195770
                                                         0.888575       1.481524
                                                         0.333802       0.158910
                                                         0.112012       0.002169
                          1       5    4dz2              7.341988       1.354688
                                                         2.542637       0.690378
                                                         0.888575       0.855359
                                                         0.333802       0.091746
                                                         0.112012       0.001253

     GTH Potential information for                                    GTH-PBE-q5

       Description:                       Goedecker-Teter-Hutter pseudopotential
                                           Goedecker et al., PRB 54, 1703 (1996)
                                          Hartwigsen et al., PRB 58, 3641 (1998)
                                                      Krack, TCA 114, 145 (2005)

       Gaussian exponent of the core charge distribution:               6.208322
       Electronic configuration (s p d ...):                               2   3

       Parameters of the local part of the GTH pseudopotential:

                          rloc        C1          C2          C3          C4
                        0.283791  -12.415226    1.868096

       Parameters of the non-local part of the GTH pseudopotential:

                   l      r(l)      h(i,j,l)

                   0    0.255405   13.630263
                   1    0.245495

  2. Atomic kind: Ga                                    Number of atoms:     100

     Orbital Basis Set                                        DZVP-MOLOPT-SR-GTH

       Number of orbital shell sets:                                           1
       Number of orbital shells:                                               7
       Number of primitive Cartesian functions:                                6
       Number of Cartesian basis functions:                                   30
       Number of spherical basis functions:                                   25
       Norm type:                                                              2

       Normalised Cartesian orbitals:

                        Set   Shell   Orbital            Exponent    Coefficient

                          1       1    2s                7.066654       0.013136
                                                         3.428369      -0.094392
                                                         1.430064       0.265435
                                                         0.571611       0.056465
                                                         0.232197      -0.192187
                                                         0.076562      -0.044987

                          1       2    3s                7.066654      -0.098564
                                                         3.428369       0.010390
                                                         1.430064       0.351249
                                                         0.571611       0.182615
                                                         0.232197      -0.425358
                                                         0.076562       0.190349

                          1       3    3px               7.066654       0.002364
                                                         3.428369       0.019222
                                                         1.430064       0.250132
                                                         0.571611      -0.058486
                                                         0.232197      -0.159451
                                                         0.076562      -0.020696
                          1       3    3py               7.066654       0.002364
                                                         3.428369       0.019222
                                                         1.430064       0.250132
                                                         0.571611      -0.058486
                                                         0.232197      -0.159451
                                                         0.076562      -0.020696
                          1       3    3pz               7.066654       0.002364
                                                         3.428369       0.019222
                                                         1.430064       0.250132
                                                         0.571611      -0.058486
                                                         0.232197      -0.159451
                                                         0.076562      -0.020696

                          1       4    4px               7.066654       0.492448
                                                         3.428369      -0.614736
                                                         1.430064      -0.191654
                                                         0.571611       0.037801
                                                         0.232197       0.302315
                                                         0.076562      -0.071336
                          1       4    4py               7.066654       0.492448
                                                         3.428369      -0.614736
                                                         1.430064      -0.191654
                                                         0.571611       0.037801
                                                         0.232197       0.302315
                                                         0.076562      -0.071336
                          1       4    4pz               7.066654       0.492448
                                                         3.428369      -0.614736
                                                         1.430064      -0.191654
                                                         0.571611       0.037801
                                                         0.232197       0.302315
                                                         0.076562      -0.071336

                          1       5    4dx2              7.066654     -15.264855
                                                         3.428369      -5.345726
                                                         1.430064      -1.022732
                                                         0.571611      -0.123148
                                                         0.232197      -0.006983
                                                         0.076562      -0.000022
                          1       5    4dxy              7.066654     -26.439504
                                                         3.428369      -9.259069
                                                         1.430064      -1.771423
                                                         0.571611      -0.213299
                                                         0.232197      -0.012094
                                                         0.076562      -0.000037
                          1       5    4dxz              7.066654     -26.439504
                                                         3.428369      -9.259069
                                                         1.430064      -1.771423
                                                         0.571611      -0.213299
                                                         0.232197      -0.012094
                                                         0.076562      -0.000037
                          1       5    4dy2              7.066654     -15.264855
                                                         3.428369      -5.345726
                                                         1.430064      -1.022732
                                                         0.571611      -0.123148
                                                         0.232197      -0.006983
                                                         0.076562      -0.000022
                          1       5    4dyz              7.066654     -26.439504
                                                         3.428369      -9.259069
                                                         1.430064      -1.771423
                                                         0.571611      -0.213299
                                                         0.232197      -0.012094
                                                         0.076562      -0.000037
                          1       5    4dz2              7.066654     -15.264855
                                                         3.428369      -5.345726
                                                         1.430064      -1.022732
                                                         0.571611      -0.123148
                                                         0.232197      -0.006983
                                                         0.076562      -0.000022

                          1       6    5dx2              7.066654      -5.739265
                                                         3.428369      -2.129289
                                                         1.430064      -0.700423
                                                         0.571611       0.161606
                                                         0.232197       0.043513
                                                         0.076562       0.011205
                          1       6    5dxy              7.066654      -9.940698
                                                         3.428369      -3.688037
                                                         1.430064      -1.213168
                                                         0.571611       0.279909
                                                         0.232197       0.075368
                                                         0.076562       0.019407
                          1       6    5dxz              7.066654      -9.940698
                                                         3.428369      -3.688037
                                                         1.430064      -1.213168
                                                         0.571611       0.279909
                                                         0.232197       0.075368
                                                         0.076562       0.019407
                          1       6    5dy2              7.066654      -5.739265
                                                         3.428369      -2.129289
                                                         1.430064      -0.700423
                                                         0.571611       0.161606
                                                         0.232197       0.043513
                                                         0.076562       0.011205
                          1       6    5dyz              7.066654      -9.940698
                                                         3.428369      -3.688037
                                                         1.430064      -1.213168
                                                         0.571611       0.279909
                                                         0.232197       0.075368
                                                         0.076562       0.019407
                          1       6    5dz2              7.066654      -5.739265
                                                         3.428369      -2.129289
                                                         1.430064      -0.700423
                                                         0.571611       0.161606
                                                         0.232197       0.043513
                                                         0.076562       0.011205

                          1       7    5fx3              7.066654       0.705879
                                                         3.428369      -0.273976
                                                         1.430064       0.113667
                                                         0.571611       0.132480
                                                         0.232197       0.012437
                                                         0.076562       0.003241
                          1       7    5fx2y             7.066654       1.578393
                                                         3.428369      -0.612629
                                                         1.430064       0.254167
                                                         0.571611       0.296234
                                                         0.232197       0.027811
                                                         0.076562       0.007246
                          1       7    5fx2z             7.066654       1.578393
                                                         3.428369      -0.612629
                                                         1.430064       0.254167
                                                         0.571611       0.296234
                                                         0.232197       0.027811
                                                         0.076562       0.007246
                          1       7    5fxy2             7.066654       1.578393
                                                         3.428369      -0.612629
                                                         1.430064       0.254167
                                                         0.571611       0.296234
                                                         0.232197       0.027811
                                                         0.076562       0.007246
                          1       7    5fxyz             7.066654       2.733856
                                                         3.428369      -1.061105
                                                         1.430064       0.440230
                                                         0.571611       0.513092
                                                         0.232197       0.048170
                                                         0.076562       0.012551
                          1       7    5fxz2             7.066654       1.578393
                                                         3.428369      -0.612629
                                                         1.430064       0.254167
                                                         0.571611       0.296234
                                                         0.232197       0.027811
                                                         0.076562       0.007246
                          1       7    5fy3              7.066654       0.705879
                                                         3.428369      -0.273976
                                                         1.430064       0.113667
                                                         0.571611       0.132480
                                                         0.232197       0.012437
                                                         0.076562       0.003241
                          1       7    5fy2z             7.066654       1.578393
                                                         3.428369      -0.612629
                                                         1.430064       0.254167
                                                         0.571611       0.296234
                                                         0.232197       0.027811
                                                         0.076562       0.007246
                          1       7    5fyz2             7.066654       1.578393
                                                         3.428369      -0.612629
                                                         1.430064       0.254167
                                                         0.571611       0.296234
                                                         0.232197       0.027811
                                                         0.076562       0.007246
                          1       7    5fz3              7.066654       0.705879
                                                         3.428369      -0.273976
                                                         1.430064       0.113667
                                                         0.571611       0.132480
                                                         0.232197       0.012437
                                                         0.076562       0.003241

     GTH Potential information for                                   GTH-PBE-q13

       Description:                       Goedecker-Teter-Hutter pseudopotential
                                           Goedecker et al., PRB 54, 1703 (1996)
                                          Hartwigsen et al., PRB 58, 3641 (1998)
                                                      Krack, TCA 114, 145 (2005)

       Gaussian exponent of the core charge distribution:               2.082466
       Electronic configuration (s p d ...):                           2   1  10

       Parameters of the local part of the GTH pseudopotential:

                          rloc        C1          C2          C3          C4
                        0.490000

       Parameters of the non-local part of the GTH pseudopotential:

                   l      r(l)      h(i,j,l)

                   0    0.416777   10.475690   -4.921768    0.870706
                                   -4.921768    7.770178   -2.248152
                                    0.870706   -2.248152    1.784415
                   1    0.569627    1.777985    0.195860
                                    0.195860   -0.231744
                   2    0.238126  -16.248680

  3. Atomic kind: O                                     Number of atoms:       2

     Orbital Basis Set                                     DZVP-MOLOPT-SR-GTH-q6

       Number of orbital shell sets:                                           1
       Number of orbital shells:                                               5
       Number of primitive Cartesian functions:                                5
       Number of Cartesian basis functions:                                   14
       Number of spherical basis functions:                                   13
       Norm type:                                                              2

       Normalised Cartesian orbitals:

                        Set   Shell   Orbital            Exponent    Coefficient

                          1       1    2s               10.389228       0.396646
                                                         3.849621       0.208811
                                                         1.388401      -0.301641
                                                         0.496955      -0.274061
                                                         0.162492      -0.033677

                          1       2    3s               10.389228       0.303673
                                                         3.849621       0.240943
                                                         1.388401      -0.313066
                                                         0.496955      -0.043055
                                                         0.162492       0.213991

                          1       3    3px              10.389228      -1.530415
                                                         3.849621      -1.371928
                                                         1.388401      -0.761951
                                                         0.496955      -0.253695
                                                         0.162492      -0.035541
                          1       3    3py              10.389228      -1.530415
                                                         3.849621      -1.371928
                                                         1.388401      -0.761951
                                                         0.496955      -0.253695
                                                         0.162492      -0.035541
                          1       3    3pz              10.389228      -1.530415
                                                         3.849621      -1.371928
                                                         1.388401      -0.761951
                                                         0.496955      -0.253695
                                                         0.162492      -0.035541

                          1       4    4px              10.389228      -0.565392
                                                         3.849621      -0.038231
                                                         1.388401      -0.382373
                                                         0.496955       0.179070
                                                         0.162492       0.122714
                          1       4    4py              10.389228      -0.565392
                                                         3.849621      -0.038231
                                                         1.388401      -0.382373
                                                         0.496955       0.179070
                                                         0.162492       0.122714
                          1       4    4pz              10.389228      -0.565392
                                                         3.849621      -0.038231
                                                         1.388401      -0.382373
                                                         0.496955       0.179070
                                                         0.162492       0.122714

                          1       5    4dx2             10.389228       1.867377
                                                         3.849621       0.670994
                                                         1.388401       1.353441
                                                         0.496955       0.273538
                                                         0.162492       0.006620
                          1       5    4dxy             10.389228       3.234392
                                                         3.849621       1.162195
                                                         1.388401       2.344229
                                                         0.496955       0.473781
                                                         0.162492       0.011466
                          1       5    4dxz             10.389228       3.234392
                                                         3.849621       1.162195
                                                         1.388401       2.344229
                                                         0.496955       0.473781
                                                         0.162492       0.011466
                          1       5    4dy2             10.389228       1.867377
                                                         3.849621       0.670994
                                                         1.388401       1.353441
                                                         0.496955       0.273538
                                                         0.162492       0.006620
                          1       5    4dyz             10.389228       3.234392
                                                         3.849621       1.162195
                                                         1.388401       2.344229
                                                         0.496955       0.473781
                                                         0.162492       0.011466
                          1       5    4dz2             10.389228       1.867377
                                                         3.849621       0.670994
                                                         1.388401       1.353441
                                                         0.496955       0.273538
                                                         0.162492       0.006620

     GTH Potential information for                                    GTH-PBE-q6

       Description:                       Goedecker-Teter-Hutter pseudopotential
                                           Goedecker et al., PRB 54, 1703 (1996)
                                          Hartwigsen et al., PRB 58, 3641 (1998)
                                                      Krack, TCA 114, 145 (2005)

       Gaussian exponent of the core charge distribution:               8.360253
       Electronic configuration (s p d ...):                               2   4

       Parameters of the local part of the GTH pseudopotential:

                          rloc        C1          C2          C3          C4
                        0.244554  -16.667215    2.487311

       Parameters of the non-local part of the GTH pseudopotential:

                   l      r(l)      h(i,j,l)

                   0    0.220956   18.337458
                   1    0.211332

  4. Atomic kind: H                                     Number of atoms:       8

     Orbital Basis Set                                     DZVP-MOLOPT-SR-GTH-q1

       Number of orbital shell sets:                                           1
       Number of orbital shells:                                               3
       Number of primitive Cartesian functions:                                5
       Number of Cartesian basis functions:                                    5
       Number of spherical basis functions:                                    5
       Norm type:                                                              2

       Normalised Cartesian orbitals:

                        Set   Shell   Orbital            Exponent    Coefficient

                          1       1    2s               10.068468      -0.133023
                                                         2.680223      -0.177618
                                                         0.791502      -0.258419
                                                         0.239116      -0.107525
                                                         0.082193      -0.014019

                          1       2    3s               10.068468       0.344673
                                                         2.680223       1.819821
                                                         0.791502      -0.999069
                                                         0.239116       0.017430
                                                         0.082193       0.082660

                          1       3    3px              10.068468       0.155326
                                                         2.680223       0.367157
                                                         0.791502       0.311480
                                                         0.239116       0.080105
                                                         0.082193       0.033440
                          1       3    3py              10.068468       0.155326
                                                         2.680223       0.367157
                                                         0.791502       0.311480
                                                         0.239116       0.080105
                                                         0.082193       0.033440
                          1       3    3pz              10.068468       0.155326
                                                         2.680223       0.367157
                                                         0.791502       0.311480
                                                         0.239116       0.080105
                                                         0.082193       0.033440

     GTH Potential information for                                    GTH-PBE-q1

       Description:                       Goedecker-Teter-Hutter pseudopotential
                                           Goedecker et al., PRB 54, 1703 (1996)
                                          Hartwigsen et al., PRB 58, 3641 (1998)
                                                      Krack, TCA 114, 145 (2005)

       Gaussian exponent of the core charge distribution:              12.500000
       Electronic configuration (s p d ...):                                   1

       Parameters of the local part of the GTH pseudopotential:

                          rloc        C1          C2          C3          C4
                        0.200000   -4.178900    0.724463

  5. Atomic kind: C                                     Number of atoms:       2

     Orbital Basis Set                                     DZVP-MOLOPT-SR-GTH-q4

       Number of orbital shell sets:                                           1
       Number of orbital shells:                                               5
       Number of primitive Cartesian functions:                                5
       Number of Cartesian basis functions:                                   14
       Number of spherical basis functions:                                   13
       Norm type:                                                              2

       Normalised Cartesian orbitals:

                        Set   Shell   Orbital            Exponent    Coefficient

                          1       1    2s                5.605331       0.322515
                                                         2.113016       0.213043
                                                         0.769911      -0.209686
                                                         0.348157      -0.219794
                                                         0.128212      -0.022789

                          1       2    3s                5.605331       0.552234
                                                         2.113016       0.082072
                                                         0.769911       0.007843
                                                         0.348157       0.136893
                                                         0.128212       0.074283

                          1       3    3px               5.605331      -0.703879
                                                         2.113016      -0.642521
                                                         0.769911      -0.374851
                                                         0.348157      -0.139743
                                                         0.128212      -0.027849
                          1       3    3py               5.605331      -0.703879
                                                         2.113016      -0.642521
                                                         0.769911      -0.374851
                                                         0.348157      -0.139743
                                                         0.128212      -0.027849
                          1       3    3pz               5.605331      -0.703879
                                                         2.113016      -0.642521
                                                         0.769911      -0.374851
                                                         0.348157      -0.139743
                                                         0.128212      -0.027849

                          1       4    4px               5.605331      -0.480376
                                                         2.113016      -0.552894
                                                         0.769911      -0.316145
                                                         0.348157       0.210505
                                                         0.128212       0.076095
                          1       4    4py               5.605331      -0.480376
                                                         2.113016      -0.552894
                                                         0.769911      -0.316145
                                                         0.348157       0.210505
                                                         0.128212       0.076095
                          1       4    4pz               5.605331      -0.480376
                                                         2.113016      -0.552894
                                                         0.769911      -0.316145
                                                         0.348157       0.210505
                                                         0.128212       0.076095

                          1       5    4dx2              5.605331       0.640026
                                                         2.113016       0.274300
                                                         0.769911       0.446711
                                                         0.348157       0.028674
                                                         0.128212       0.029790
                          1       5    4dxy              5.605331       1.108557
                                                         2.113016       0.475102
                                                         0.769911       0.773726
                                                         0.348157       0.049666
                                                         0.128212       0.051599
                          1       5    4dxz              5.605331       1.108557
                                                         2.113016       0.475102
                                                         0.769911       0.773726
                                                         0.348157       0.049666
                                                         0.128212       0.051599
                          1       5    4dy2              5.605331       0.640026
                                                         2.113016       0.274300
                                                         0.769911       0.446711
                                                         0.348157       0.028674
                                                         0.128212       0.029790
                          1       5    4dyz              5.605331       1.108557
                                                         2.113016       0.475102
                                                         0.769911       0.773726
                                                         0.348157       0.049666
                                                         0.128212       0.051599
                          1       5    4dz2              5.605331       0.640026
                                                         2.113016       0.274300
                                                         0.769911       0.446711
                                                         0.348157       0.028674
                                                         0.128212       0.029790

     GTH Potential information for                                    GTH-PBE-q4

       Description:                       Goedecker-Teter-Hutter pseudopotential
                                           Goedecker et al., PRB 54, 1703 (1996)
                                          Hartwigsen et al., PRB 58, 3641 (1998)
                                                      Krack, TCA 114, 145 (2005)

       Gaussian exponent of the core charge distribution:               4.364419
       Electronic configuration (s p d ...):                               2   2

       Parameters of the local part of the GTH pseudopotential:

                          rloc        C1          C2          C3          C4
                        0.338471   -8.803674    1.339211

       Parameters of the non-local part of the GTH pseudopotential:

                   l      r(l)      h(i,j,l)

                   0    0.302576    9.622487
                   1    0.291507


 MOLECULE KIND INFORMATION


 All atoms are their own molecule, skipping detailed information


 TOTAL NUMBERS AND MAXIMUM NUMBERS

  Total number of            - Atomic kinds:                                   5
                             - Atoms:                                        212
                             - Shell sets:                                   212
                             - Shells:                                      1244
                             - Primitive Cartesian functions:               1160
                             - Cartesian basis functions:                   4496
                             - Spherical basis functions:                   3892

  Maximum angular momentum of- Orbital basis functions:                        3
                             - Local part of the GTH pseudopotential:          2
                             - Non-local part of the GTH pseudopotential:      4


 MODULE QUICKSTEP:  ATOMIC COORDINATES IN angstrom

  Atom  Kind  Element       X           Y           Z          Z(eff)       Mass

       1     1 N    7    0.011550    1.980520    2.542044      5.00      14.0067
       2     2 Ga  31    0.025681   -0.003567    2.908845     13.00      69.7230
       3     1 N    7    0.018502   -0.000161    5.056727      5.00      14.0067
       4     2 Ga  31    0.010585    1.812391    5.836497     13.00      69.7230
       5     1 N    7    0.011437    1.833909    7.827463      5.00      14.0067
       6     2 Ga  31    0.013196   -0.019748    8.450457     13.00      69.7230
       7     1 N    7    0.013803   -0.016349   10.426817      5.00      14.0067
       8     2 Ga  31    0.012315    1.821771   11.074997     13.00      69.7230
       9     1 N    7    0.013992    1.802991   13.074667      5.00      14.0067
      10     2 Ga  31    0.013425   -0.026361   13.863594     13.00      69.7230
      11     1 N    7    0.014439   -0.027058   16.073137      5.00      14.0067
      12     2 Ga  31    0.014108    1.973784   16.436229     13.00      69.7230
      13     2 Ga  31   -0.004470    3.666537    1.528768     13.00      69.7230
      14     1 N    7   -1.468912    4.574401    2.532712      5.00      14.0067
      15     2 Ga  31   -1.688636    2.704116    3.326565     13.00      69.7230
      16     1 N    7   -1.596063    2.777171    5.283639      5.00      14.0067
      17     2 Ga  31   -1.626267    4.648001    5.824231     13.00      69.7230
      18     1 N    7   -1.601792    4.637947    7.815624      5.00      14.0067
      19     2 Ga  31   -1.587865    2.778537    8.454008     13.00      69.7230
      20     1 N    7   -1.584041    2.778679   10.447669      5.00      14.0067
      21     2 Ga  31   -1.611652    4.637380   11.076668     13.00      69.7230
      22     1 N    7   -1.627009    4.647264   13.075868      5.00      14.0067
      23     2 Ga  31   -1.583393    2.776046   13.618662     13.00      69.7230
      24     1 N    7   -1.599854    2.767027   15.596078      5.00      14.0067
      25     2 Ga  31   -1.478932    4.561488   16.436249     13.00      69.7230
      26     1 N    7    0.015292    3.699264   17.557337      5.00      14.0067
      27     1 N    7   -3.191853    7.531161    2.519603      5.00      14.0067
      28     2 Ga  31   -3.192324    5.579187    2.870175     13.00      69.7230
      29     1 N    7   -3.198375    5.553224    5.030744      5.00      14.0067
      30     2 Ga  31   -3.207666    7.389127    5.795109     13.00      69.7230
      31     1 N    7   -3.200392    7.402585    7.795584      5.00      14.0067
      32     2 Ga  31   -3.205919    5.559465    8.451478     13.00      69.7230
      33     1 N    7   -3.203926    5.555516   10.426047      5.00      14.0067
      34     2 Ga  31   -3.204401    7.396682   11.072634     13.00      69.7230
      35     1 N    7   -3.202510    7.377990   13.066117      5.00      14.0067
      36     2 Ga  31   -3.212363    5.561619   13.865619     13.00      69.7230
      37     1 N    7   -3.213800    5.562544   16.073951      5.00      14.0067
      38     2 Ga  31   -3.204381    7.617621   16.499922     13.00      69.7230
      39     2 Ga  31   -3.231142    9.313990    1.272359     13.00      69.7230
      40     1 N    7   -4.708364   10.157993    2.532241      5.00      14.0067
      41     2 Ga  31   -4.887527    8.316679    3.241757     13.00      69.7230
      42     1 N    7   -4.811252    8.343717    5.234088      5.00      14.0067
      43     2 Ga  31   -4.829187   10.212978    5.800706     13.00      69.7230
      44     1 N    7   -4.817490   10.204017    7.804195      5.00      14.0067
      45     2 Ga  31   -4.804042    8.346026    8.431078     13.00      69.7230
      46     1 N    7   -4.799641    8.345245   10.428666      5.00      14.0067
      47     2 Ga  31   -4.825098   10.202498   11.072628     13.00      69.7230
      48     1 N    7   -4.840827   10.213650   13.066129      5.00      14.0067
      49     2 Ga  31   -4.800730    8.346701   13.626639     13.00      69.7230
      50     1 N    7   -4.827303    8.332262   15.584755      5.00      14.0067
      51     2 Ga  31   -4.634941   10.094432   16.498120     13.00      69.7230
      52     1 N    7   -3.194021    9.274946   17.641016      5.00      14.0067
      53     1 N    7    3.216316    1.847629    2.623566      5.00      14.0067
      54     2 Ga  31    3.230094    0.071980    3.266864     13.00      69.7230
      55     1 N    7    3.232382   -0.009032    5.254910      5.00      14.0067
      56     2 Ga  31    3.230075    1.832202    5.900268     13.00      69.7230
      57     1 N    7    3.231230    1.841853    7.873895      5.00      14.0067
      58     2 Ga  31    3.229082   -0.029615    8.452279     13.00      69.7230
      59     1 N    7    3.230980   -0.028406   10.444877      5.00      14.0067
      60     2 Ga  31    3.230914    1.840189   11.038715     13.00      69.7230
      61     1 N    7    3.228991    1.843068   13.011350      5.00      14.0067
      62     2 Ga  31    3.229798   -0.029890   13.629237     13.00      69.7230
      63     1 N    7    3.223644    0.008271   15.588827      5.00      14.0067
      64     2 Ga  31    3.232680    1.842881   15.867570     13.00      69.7230
      65     1 N    7    1.498649    4.555140    2.553515      5.00      14.0067
      66     2 Ga  31    1.702345    2.697058    3.333281     13.00      69.7230
      67     1 N    7    1.622447    2.768087    5.292506      5.00      14.0067
      68     2 Ga  31    1.641258    4.631543    5.847590     13.00      69.7230
      69     1 N    7    1.628314    4.633545    7.827157      5.00      14.0067
      70     2 Ga  31    1.612666    2.772515    8.459230     13.00      69.7230
      71     1 N    7    1.611007    2.777161   10.451012      5.00      14.0067
      72     2 Ga  31    1.639655    4.637893   11.075275     13.00      69.7230
      73     1 N    7    1.657089    4.647467   13.075526      5.00      14.0067
      74     2 Ga  31    1.611379    2.776474   13.618994     13.00      69.7230
      75     1 N    7    1.628226    2.767336   15.596402      5.00      14.0067
      76     2 Ga  31    1.509409    4.563012   16.437655     13.00      69.7230
      77     1 N    7    0.024539    7.432997    2.671523      5.00      14.0067
      78     2 Ga  31    0.024703    5.603692    3.354454     13.00      69.7230
      79     1 N    7    0.017635    5.579181    5.279775      5.00      14.0067
      80     2 Ga  31    0.032319    7.437482    5.889006     13.00      69.7230
      81     1 N    7    0.020225    7.418966    7.855950      5.00      14.0067
      82     2 Ga  31    0.012364    5.552004    8.454851     13.00      69.7230
      83     1 N    7    0.013910    5.545053   10.445632      5.00      14.0067
      84     2 Ga  31    0.015485    7.414672   11.036000     13.00      69.7230
      85     1 N    7    0.015733    7.410424   13.008816      5.00      14.0067
      86     2 Ga  31    0.015151    5.543158   13.619535     13.00      69.7230
      87     1 N    7    0.014359    5.564078   15.596584      5.00      14.0067
      88     2 Ga  31    0.014940    7.415757   15.866567     13.00      69.7230
      89     1 N    7   -1.690584   10.153665    2.526969      5.00      14.0067
      90     2 Ga  31   -1.594526    8.361566    3.302502     13.00      69.7230
      91     1 N    7   -1.577135    8.338679    5.250212      5.00      14.0067
      92     2 Ga  31   -1.572069   10.222813    5.813456     13.00      69.7230
      93     1 N    7   -1.587327   10.201045    7.811589      5.00      14.0067
      94     2 Ga  31   -1.604639    8.347234    8.446731     13.00      69.7230
      95     1 N    7   -1.603611    8.345101   10.438881      5.00      14.0067
      96     2 Ga  31   -1.577322   10.205722   11.079276     13.00      69.7230
      97     1 N    7   -1.560124   10.215983   13.073397      5.00      14.0067
      98     2 Ga  31   -1.605998    8.347770   13.628392     13.00      69.7230
      99     1 N    7   -1.577551    8.325304   15.588179      5.00      14.0067
     100     2 Ga  31   -1.757055   10.103989   16.499605     13.00      69.7230
     101     1 N    7    6.445903    1.973045    2.550244      5.00      14.0067
     102     2 Ga  31    6.454509   -0.027433    2.885731     13.00      69.7230
     103     1 N    7    6.438545   -0.002348    5.067119      5.00      14.0067
     104     2 Ga  31    6.448353    1.813280    5.825510     13.00      69.7230
     105     1 N    7    6.446139    1.835233    7.820597      5.00      14.0067
     106     2 Ga  31    6.446798   -0.016913    8.452449     13.00      69.7230
     107     1 N    7    6.447241   -0.015112   10.427905      5.00      14.0067
     108     2 Ga  31    6.446613    1.823291   11.082879     13.00      69.7230
     109     1 N    7    6.446946    1.804526   13.075421      5.00      14.0067
     110     2 Ga  31    6.448021   -0.014521   13.886345     13.00      69.7230
     111     1 N    7    6.447249   -0.012843   16.079651      5.00      14.0067
     112     2 Ga  31    6.447581    2.031615   16.504559     13.00      69.7230
     113     2 Ga  31    6.449337    3.697559    1.581427     13.00      69.7230
     114     1 N    7    4.942869    4.555429    2.556811      5.00      14.0067
     115     2 Ga  31    4.735186    2.685042    3.320781     13.00      69.7230
     116     1 N    7    4.836117    2.767664    5.276445      5.00      14.0067
     117     2 Ga  31    4.828576    4.634415    5.828214     13.00      69.7230
     118     1 N    7    4.831502    4.632198    7.815666      5.00      14.0067
     119     2 Ga  31    4.848737    2.775465    8.458441     13.00      69.7230
     120     1 N    7    4.848977    2.777285   10.449409      5.00      14.0067
     121     2 Ga  31    4.826784    4.638200   11.074956     13.00      69.7230
     122     1 N    7    4.809804    4.646054   13.067900      5.00      14.0067
     123     2 Ga  31    4.851133    2.778209   13.631748     13.00      69.7230
     124     1 N    7    4.816864    2.765965   15.590898      5.00      14.0067
     125     2 Ga  31    5.016057    4.528607   16.504950     13.00      69.7230
     126     1 N    7    6.447932    3.690790   17.648041      5.00      14.0067
     127     1 N    7    3.227831    7.381079    2.612974      5.00      14.0067
     128     1 N    7    3.227974    5.532564    5.078672      5.00      14.0067
     129     2 Ga  31    3.233039    7.403356    5.783105     13.00      69.7230
     130     1 N    7    3.227829    7.404958    7.783798      5.00      14.0067
     131     2 Ga  31    3.233670    5.562874    8.450542     13.00      69.7230
     132     1 N    7    3.231936    5.557968   10.424691      5.00      14.0067
     133     2 Ga  31    3.234375    7.397604   11.073927     13.00      69.7230
     134     1 N    7    3.232744    7.378303   13.067292      5.00      14.0067
     135     2 Ga  31    3.241971    5.561834   13.866961     13.00      69.7230
     136     1 N    7    3.243067    5.562378   16.076037      5.00      14.0067
     137     2 Ga  31    3.233548    7.621253   16.506307     13.00      69.7230
     138     2 Ga  31    3.151958    9.317187    1.176381     13.00      69.7230
     139     1 N    7    1.703102   10.216462    2.496219      5.00      14.0067
     140     2 Ga  31    1.637839    8.437540    3.196160     13.00      69.7230
     141     1 N    7    1.619854    8.340669    5.179894      5.00      14.0067
     142     2 Ga  31    1.592471   10.212267    5.797341     13.00      69.7230
     143     1 N    7    1.610982   10.197677    7.800693      5.00      14.0067
     144     2 Ga  31    1.637357    8.350230    8.450488     13.00      69.7230
     145     1 N    7    1.635249    8.346651   10.440494      5.00      14.0067
     146     2 Ga  31    1.608968   10.208077   11.077174     13.00      69.7230
     147     1 N    7    1.591494   10.216000   13.071893      5.00      14.0067
     148     2 Ga  31    1.636667    8.348170   13.629001     13.00      69.7230
     149     1 N    7    1.606667    8.325384   15.588634      5.00      14.0067
     150     2 Ga  31    1.791298   10.101337   16.504903     13.00      69.7230
     151     1 N    7    3.224282    9.275275   17.648252      5.00      14.0067
     152     1 N    7    9.675055    1.824164    2.632141      5.00      14.0067
     153     2 Ga  31    9.634940    0.047344    3.307736     13.00      69.7230
     154     1 N    7    9.658716   -0.005011    5.279057      5.00      14.0067
     155     2 Ga  31    9.659299    1.842867    5.897377     13.00      69.7230
     156     1 N    7    9.658525    1.847086    7.870285      5.00      14.0067
     157     2 Ga  31    9.660633   -0.027627    8.436247     13.00      69.7230
     158     1 N    7    9.661771   -0.027208   10.434432      5.00      14.0067
     159     2 Ga  31    9.660780    1.840560   11.032485     13.00      69.7230
     160     1 N    7    9.664335    1.842728   13.006699      5.00      14.0067
     161     2 Ga  31    9.664207   -0.028811   13.629048     13.00      69.7230
     162     1 N    7    9.670217    0.008072   15.588394      5.00      14.0067
     163     2 Ga  31    9.660791    1.841818   15.868608     13.00      69.7230
     164     1 N    7    7.943772    4.577194    2.548656      5.00      14.0067
     165     2 Ga  31    8.168214    2.702319    3.306890     13.00      69.7230
     166     1 N    7    8.055233    2.774514    5.265542      5.00      14.0067
     167     2 Ga  31    8.075392    4.648691    5.802336     13.00      69.7230
     168     1 N    7    8.061949    4.635214    7.802269      5.00      14.0067
     169     2 Ga  31    8.041576    2.780872    8.453353     13.00      69.7230
     170     1 N    7    8.041484    2.778501   10.446301      5.00      14.0067
     171     2 Ga  31    8.065949    4.637379   11.076709     13.00      69.7230
     172     1 N    7    8.083656    4.645923   13.068841      5.00      14.0067
     173     2 Ga  31    8.043291    2.777629   13.631165     13.00      69.7230
     174     1 N    7    8.077376    2.765967   15.590497      5.00      14.0067
     175     2 Ga  31    7.877330    4.528031   16.503587     13.00      69.7230
     176     1 N    7    6.433440    7.446985    2.589864      5.00      14.0067
     177     2 Ga  31    6.433303    5.717121    3.293424     13.00      69.7230
     178     1 N    7    6.441182    5.567619    5.252822      5.00      14.0067
     179     2 Ga  31    6.432357    7.438357    5.843927     13.00      69.7230
     180     1 N    7    6.441732    7.417752    7.831276      5.00      14.0067
     181     2 Ga  31    6.448297    5.554561    8.437420     13.00      69.7230
     182     1 N    7    6.447099    5.545976   10.432818      5.00      14.0067
     183     2 Ga  31    6.446563    7.413900   11.028020     13.00      69.7230
     184     1 N    7    6.446576    7.412266   12.999082      5.00      14.0067
     185     2 Ga  31    6.446456    5.545706   13.630591     13.00      69.7230
     186     1 N    7    6.446611    5.576540   15.587903      5.00      14.0067
     187     2 Ga  31    6.446453    7.412986   15.866524     13.00      69.7230
     188     1 N    7    4.755017   10.226464    2.493965      5.00      14.0067
     189     2 Ga  31    4.908418    8.383492    3.169307     13.00      69.7230
     190     1 N    7    4.825496    8.354435    5.184252      5.00      14.0067
     191     2 Ga  31    4.861199   10.212990    5.795263     13.00      69.7230
     192     1 N    7    4.847624   10.202524    7.798765      5.00      14.0067
     193     2 Ga  31    4.829213    8.347975    8.432117     13.00      69.7230
     194     1 N    7    4.827755    8.345815   10.428713      5.00      14.0067
     195     2 Ga  31    4.850906   10.204052   11.068857     13.00      69.7230
     196     1 N    7    4.868474   10.213647   13.063568      5.00      14.0067
     197     2 Ga  31    4.830271    8.347190   13.627374     13.00      69.7230
     198     1 N    7    4.856744    8.332744   15.585281      5.00      14.0067
     199     2 Ga  31    4.660027   10.092397   16.503996     13.00      69.7230
     200     3 O    8    0.355720    3.849674   -0.463304      6.00      15.9994
     201     4 H    1    0.645969    4.810902   -0.589547      1.00       1.0079
     202     5 C    6    1.434082    2.967777   -0.940135      4.00      12.0107
     203     4 H    1    2.257271    2.927950   -0.209924      1.00       1.0079
     204     4 H    1    0.995643    1.971699   -1.057469      1.00       1.0079
     205     4 H    1    1.778912    3.344549   -1.909778      1.00       1.0079
     206     2 Ga  31    3.215155    5.445452    3.024649     13.00      69.7230
     207     3 O    8    1.120608    6.396407   -0.762345      6.00      15.9994
     208     4 H    1   -0.038122    7.396252    1.647405      1.00       1.0079
     209     5 C    6    1.251682    6.884735   -1.885688      4.00      12.0107
     210     4 H    1    1.503121    7.960238   -2.005061      1.00       1.0079
     211     4 H    1    6.426147    7.370826    1.518698      1.00       1.0079
     212     4 H    1    1.131073    6.275164   -2.803983      1.00       1.0079




 SCF PARAMETERS         Density guess:                                    ATOMIC
                        --------------------------------------------------------
                        max_scf:                                              80
                        max_scf_history:                                       0
                        max_diis:                                              4
                        --------------------------------------------------------
                        eps_scf:                                        5.00E-06
                        eps_scf_history:                                0.00E+00
                        eps_diis:                                       1.00E-01
                        eps_eigval:                                     1.00E-05
                        --------------------------------------------------------
                        level_shift [a.u.]:                                 0.00
                        --------------------------------------------------------
                        Outer loop SCF in use 
                        No variables optimised in outer loop
                        eps_scf                                         5.00E-06
                        max_scf                                                4
                        No outer loop optimization
                        step_size                                       5.00E-01

 PW_GRID| Information for grid number                                          1
 PW_GRID| Grid distributed over                                    80 processors
 PW_GRID| Real space group dimensions                                    80    1
 PW_GRID| the grid is blocked:                                                NO
 PW_GRID| Cutoff [a.u.]                                                    600.0
 PW_GRID| spherical cutoff:                                                   NO
 PW_GRID|   Bounds   1           -144     143                Points:         288
 PW_GRID|   Bounds   2           -144     143                Points:         288
 PW_GRID|   Bounds   3           -337     337                Points:         675
 PW_GRID| Volume element (a.u.^3)  0.5630E-03     Volume (a.u.^3)     31519.8467
 PW_GRID| Grid span                                                    FULLSPACE
 PW_GRID|   Distribution                         Average         Max         Min
 PW_GRID|   G-Vectors                           699840.0      699840      699840
 PW_GRID|   G-Rays                                2430.0        2430        2430
 PW_GRID|   Real Space Points                   699840.0      777600      583200

 PW_GRID| Information for grid number                                          2
 PW_GRID| Grid distributed over                                    80 processors
 PW_GRID| Real space group dimensions                                    80    1
 PW_GRID| the grid is blocked:                                                NO
 PW_GRID| Cutoff [a.u.]                                                    200.0
 PW_GRID| spherical cutoff:                                                   NO
 PW_GRID|   Bounds   1            -80      79                Points:         160
 PW_GRID|   Bounds   2            -80      79                Points:         160
 PW_GRID|   Bounds   3           -200     199                Points:         400
 PW_GRID| Volume element (a.u.^3)  0.3078E-02     Volume (a.u.^3)     31519.8467
 PW_GRID| Grid span                                                    FULLSPACE
 PW_GRID|   Distribution                         Average         Max         Min
 PW_GRID|   G-Vectors                           128000.0      128160      127840
 PW_GRID|   G-Rays                                 800.0         801         799
 PW_GRID|   Real Space Points                   128000.0      128000      128000

 PW_GRID| Information for grid number                                          3
 PW_GRID| Grid distributed over                                    80 processors
 PW_GRID| Real space group dimensions                                    80    1
 PW_GRID| the grid is blocked:                                                NO
 PW_GRID| Cutoff [a.u.]                                                     66.7
 PW_GRID| spherical cutoff:                                                   NO
 PW_GRID|   Bounds   1            -48      47                Points:          96
 PW_GRID|   Bounds   2            -48      47                Points:          96
 PW_GRID|   Bounds   3           -112     112                Points:         225
 PW_GRID| Volume element (a.u.^3)  0.1520E-01     Volume (a.u.^3)     31519.8467
 PW_GRID| Grid span                                                    FULLSPACE
 PW_GRID|   Distribution                         Average         Max         Min
[...]
      9       N      1       5.000    2.061   2.061           -0.000      0.879
     10       Ga     2      13.000    6.872   6.872            0.000     -0.744
     11       N      1       5.000    2.135   2.135            0.000      0.731
     12       Ga     2      13.000    6.915   6.915           -0.000     -0.829
     13       Ga     2      13.000    6.959   6.959           -0.000     -0.918
     14       N      1       5.000    2.102   2.102           -0.000      0.796
     15       Ga     2      13.000    6.958   6.958           -0.000     -0.915
     16       N      1       5.000    2.052   2.052           -0.000      0.897
     17       Ga     2      13.000    6.941   6.941           -0.000     -0.883
     18       N      1       5.000    2.060   2.060           -0.000      0.880
     19       Ga     2      13.000    6.938   6.938           -0.000     -0.876
     20       N      1       5.000    2.062   2.062            0.000      0.877
     21       Ga     2      13.000    6.938   6.938           -0.000     -0.875
     22       N      1       5.000    2.061   2.061           -0.000      0.879
     23       Ga     2      13.000    6.949   6.949           -0.000     -0.898
     24       N      1       5.000    2.050   2.050           -0.000      0.900
     25       Ga     2      13.000    6.914   6.914           -0.000     -0.829
     26       N      1       5.000    2.226   2.226           -0.000      0.547
     27       N      1       5.000    2.113   2.113            0.000      0.774
     28       Ga     2      13.000    6.914   6.914           -0.000     -0.828
     29       N      1       5.000    2.096   2.096           -0.000      0.808
     30       Ga     2      13.000    6.938   6.938           -0.000     -0.877
     31       N      1       5.000    2.061   2.061           -0.000      0.878
     32       Ga     2      13.000    6.949   6.949           -0.000     -0.899
     33       N      1       5.000    2.052   2.052           -0.000      0.897
     34       Ga     2      13.000    6.939   6.939           -0.000     -0.878
     35       N      1       5.000    2.060   2.060           -0.000      0.881
     36       Ga     2      13.000    6.872   6.872           -0.000     -0.744
     37       N      1       5.000    2.134   2.134            0.000      0.731
     38       Ga     2      13.000    6.912   6.912           -0.000     -0.824
     39       Ga     2      13.000    6.736   6.736            0.000     -0.472
     40       N      1       5.000    2.103   2.103            0.000      0.794
     41       Ga     2      13.000    6.992   6.992            0.000     -0.983
     42       N      1       5.000    2.053   2.053            0.000      0.894
     43       Ga     2      13.000    6.942   6.942            0.000     -0.884
     44       N      1       5.000    2.061   2.061           -0.000      0.878
     45       Ga     2      13.000    6.939   6.939           -0.000     -0.877
     46       N      1       5.000    2.062   2.062           -0.000      0.877
     47       Ga     2      13.000    6.939   6.939           -0.000     -0.878
     48       N      1       5.000    2.060   2.060           -0.000      0.880
     49       Ga     2      13.000    6.951   6.951           -0.000     -0.901
     50       N      1       5.000    2.050   2.050           -0.000      0.900
     51       Ga     2      13.000    6.912   6.912           -0.000     -0.824
     52       N      1       5.000    2.237   2.237           -0.000      0.527
     53       N      1       5.000    2.131   2.131           -0.000      0.737
     54       Ga     2      13.000    6.966   6.966            0.000     -0.931
     55       N      1       5.000    2.055   2.055            0.000      0.890
     56       Ga     2      13.000    6.934   6.934           -0.000     -0.867
     57       N      1       5.000    2.057   2.057           -0.000      0.887
     58       Ga     2      13.000    6.939   6.939           -0.000     -0.877
     59       N      1       5.000    2.062   2.062           -0.000      0.877
     60       Ga     2      13.000    6.946   6.946           -0.000     -0.893
     61       N      1       5.000    2.062   2.062           -0.000      0.876
     62       Ga     2      13.000    6.950   6.950           -0.000     -0.901
     63       N      1       5.000    2.051   2.051           -0.000      0.899
     64       Ga     2      13.000    6.857   6.857           -0.000     -0.714
     65       N      1       5.000    2.105   2.105           -0.000      0.791
     66       Ga     2      13.000    6.976   6.976           -0.000     -0.952
     67       N      1       5.000    2.051   2.051           -0.000      0.898
     68       Ga     2      13.000    6.941   6.941            0.000     -0.882
     69       N      1       5.000    2.060   2.060            0.000      0.881
     70       Ga     2      13.000    6.938   6.938           -0.000     -0.876
     71       N      1       5.000    2.062   2.062           -0.000      0.877
     72       Ga     2      13.000    6.938   6.938           -0.000     -0.875
     73       N      1       5.000    2.060   2.060           -0.000      0.879
     74       Ga     2      13.000    6.949   6.949           -0.000     -0.899
     75       N      1       5.000    2.050   2.050           -0.000      0.900
     76       Ga     2      13.000    6.915   6.915           -0.000     -0.829
     77       N      1       5.000    2.238   2.238           -0.000      0.524
     78       Ga     2      13.000    6.987   6.987           -0.000     -0.973
     79       N      1       5.000    2.049   2.049           -0.000      0.902
     80       Ga     2      13.000    6.946   6.946            0.000     -0.891
     81       N      1       5.000    2.056   2.056            0.000      0.888
     82       Ga     2      13.000    6.938   6.938           -0.000     -0.877
     83       N      1       5.000    2.061   2.061           -0.000      0.877
     84       Ga     2      13.000    6.946   6.946           -0.000     -0.893
     85       N      1       5.000    2.062   2.062           -0.000      0.876
     86       Ga     2      13.000    6.949   6.949           -0.000     -0.899
     87       N      1       5.000    2.050   2.050           -0.000      0.900
     88       Ga     2      13.000    6.857   6.857           -0.000     -0.714
     89       N      1       5.000    2.102   2.102            0.000      0.797
     90       Ga     2      13.000    6.989   6.989            0.000     -0.979
     91       N      1       5.000    2.053   2.053            0.000      0.894
     92       Ga     2      13.000    6.943   6.943           -0.000     -0.885
     93       N      1       5.000    2.061   2.061           -0.000      0.878
     94       Ga     2      13.000    6.939   6.939           -0.000     -0.878
     95       N      1       5.000    2.062   2.062           -0.000      0.877
     96       Ga     2      13.000    6.939   6.939           -0.000     -0.877
     97       N      1       5.000    2.060   2.060            0.000      0.880
     98       Ga     2      13.000    6.951   6.951           -0.000     -0.901
     99       N      1       5.000    2.051   2.051           -0.000      0.899
    100       Ga     2      13.000    6.910   6.910           -0.000     -0.821
    101       N      1       5.000    2.093   2.093           -0.000      0.814
    102       Ga     2      13.000    6.912   6.912            0.000     -0.824
    103       N      1       5.000    2.095   2.095           -0.000      0.810
    104       Ga     2      13.000    6.946   6.946           -0.000     -0.892
    105       N      1       5.000    2.060   2.060           -0.000      0.880
    106       Ga     2      13.000    6.948   6.948           -0.000     -0.897
    107       N      1       5.000    2.053   2.053           -0.000      0.895
    108       Ga     2      13.000    6.938   6.938           -0.000     -0.877
    109       N      1       5.000    2.060   2.060           -0.000      0.879
    110       Ga     2      13.000    6.873   6.873           -0.000     -0.746
    111       N      1       5.000    2.135   2.135            0.000      0.729
    112       Ga     2      13.000    6.911   6.911            0.000     -0.822
    113       Ga     2      13.000    6.749   6.749           -0.000     -0.497
    114       N      1       5.000    2.104   2.104           -0.000      0.792
    115       Ga     2      13.000    6.963   6.963           -0.000     -0.926
    116       N      1       5.000    2.052   2.052           -0.000      0.896
    117       Ga     2      13.000    6.943   6.943            0.000     -0.886
    118       N      1       5.000    2.060   2.060           -0.000      0.880
    119       Ga     2      13.000    6.939   6.939           -0.000     -0.878
    120       N      1       5.000    2.061   2.061            0.000      0.877
    121       Ga     2      13.000    6.939   6.939           -0.000     -0.877
    122       N      1       5.000    2.060   2.060            0.000      0.881
    123       Ga     2      13.000    6.951   6.951            0.000     -0.901
    124       N      1       5.000    2.051   2.051            0.000      0.899
    125       Ga     2      13.000    6.912   6.912            0.000     -0.825
    126       N      1       5.000    2.236   2.236            0.000      0.528
    127       N      1       5.000    2.116   2.116            0.000      0.768
    128       N      1       5.000    2.095   2.095            0.000      0.810
    129       Ga     2      13.000    6.938   6.938            0.000     -0.877
    130       N      1       5.000    2.062   2.062            0.000      0.876
    131       Ga     2      13.000    6.949   6.949           -0.000     -0.898
    132       N      1       5.000    2.052   2.052           -0.000      0.896
    133       Ga     2      13.000    6.939   6.939           -0.000     -0.877
    134       N      1       5.000    2.060   2.060           -0.000      0.881
    135       Ga     2      13.000    6.872   6.872           -0.000     -0.744
    136       N      1       5.000    2.134   2.134            0.000      0.732
    137       Ga     2      13.000    6.913   6.913            0.000     -0.825
    138       Ga     2      13.000    6.747   6.747            0.000     -0.493
    139       N      1       5.000    2.104   2.104            0.000      0.791
    140       Ga     2      13.000    6.996   6.996            0.000     -0.991
    141       N      1       5.000    2.054   2.054            0.000      0.891
    142       Ga     2      13.000    6.942   6.942            0.000     -0.884
    143       N      1       5.000    2.061   2.061            0.000      0.877
    144       Ga     2      13.000    6.939   6.939           -0.000     -0.878
    145       N      1       5.000    2.061   2.061            0.000      0.877
    146       Ga     2      13.000    6.939   6.939           -0.000     -0.878
    147       N      1       5.000    2.060   2.060           -0.000      0.879
    148       Ga     2      13.000    6.950   6.950            0.000     -0.901
    149       N      1       5.000    2.051   2.051            0.000      0.899
    150       Ga     2      13.000    6.911   6.911            0.000     -0.822
    151       N      1       5.000    2.236   2.236            0.000      0.527
    152       N      1       5.000    2.125   2.125           -0.000      0.750
    153       Ga     2      13.000    6.969   6.969            0.000     -0.937
    154       N      1       5.000    2.056   2.056            0.000      0.888
    155       Ga     2      13.000    6.934   6.934            0.000     -0.867
    156       N      1       5.000    2.057   2.057            0.000      0.886
    157       Ga     2      13.000    6.938   6.938           -0.000     -0.876
    158       N      1       5.000    2.062   2.062           -0.000      0.876
    159       Ga     2      13.000    6.946   6.946            0.000     -0.893
    160       N      1       5.000    2.062   2.062            0.000      0.876
    161       Ga     2      13.000    6.951   6.951           -0.000     -0.901
    162       N      1       5.000    2.051   2.051           -0.000      0.899
    163       Ga     2      13.000    6.857   6.857            0.000     -0.714
    164       N      1       5.000    2.102   2.102           -0.000      0.796
    165       Ga     2      13.000    6.958   6.958           -0.000     -0.916
    166       N      1       5.000    2.051   2.051           -0.000      0.897
    167       Ga     2      13.000    6.942   6.942           -0.000     -0.884
    168       N      1       5.000    2.060   2.060           -0.000      0.879
    169       Ga     2      13.000    6.938   6.938           -0.000     -0.876
    170       N      1       5.000    2.062   2.062           -0.000      0.877
    171       Ga     2      13.000    6.939   6.939           -0.000     -0.878
    172       N      1       5.000    2.060   2.060            0.000      0.880
    173       Ga     2      13.000    6.951   6.951            0.000     -0.901
    174       N      1       5.000    2.051   2.051            0.000      0.899
    175       Ga     2      13.000    6.912   6.912            0.000     -0.825
    176       N      1       5.000    2.233   2.233           -0.000      0.534
    177       Ga     2      13.000    6.986   6.986           -0.000     -0.971
    178       N      1       5.000    2.050   2.050           -0.000      0.900
    179       Ga     2      13.000    6.944   6.944            0.000     -0.887
    180       N      1       5.000    2.055   2.055           -0.000      0.889
    181       Ga     2      13.000    6.939   6.939           -0.000     -0.878
    182       N      1       5.000    2.061   2.061           -0.000      0.877
    183       Ga     2      13.000    6.947   6.947           -0.000     -0.894
    184       N      1       5.000    2.062   2.062           -0.000      0.876
    185       Ga     2      13.000    6.951   6.951            0.000     -0.902
    186       N      1       5.000    2.050   2.050            0.000      0.900
    187       Ga     2      13.000    6.857   6.857           -0.000     -0.714
    188       N      1       5.000    2.107   2.107            0.000      0.786
    189       Ga     2      13.000    6.998   6.998            0.000     -0.996
    190       N      1       5.000    2.055   2.055            0.000      0.891
    191       Ga     2      13.000    6.941   6.941            0.000     -0.882
    192       N      1       5.000    2.062   2.062            0.000      0.876
    193       Ga     2      13.000    6.938   6.938           -0.000     -0.877
    194       N      1       5.000    2.062   2.062           -0.000      0.877
    195       Ga     2      13.000    6.939   6.939           -0.000     -0.878
    196       N      1       5.000    2.060   2.060           -0.000      0.880
    197       Ga     2      13.000    6.951   6.951            0.000     -0.901
    198       N      1       5.000    2.050   2.050            0.000      0.900
    199       Ga     2      13.000    6.913   6.913            0.000     -0.825
    200       O      3       6.000    3.127   3.127           -0.000     -0.254
    201       H      4       1.000    0.199   0.199           -0.000      0.602
    202       C      5       4.000    2.427   2.427           -0.000     -0.854
    203       H      4       1.000    0.269   0.269            0.000      0.462
    204       H      4       1.000    0.274   0.274            0.000      0.452
    205       H      4       1.000    0.278   0.278            0.000      0.444
    206       Ga     2      13.000    6.926   6.926            0.000     -0.852
    207       O      3       6.000    3.227   3.227            0.000     -0.454
    208       H      4       1.000    0.233   0.233           -0.000      0.533
    209       C      5       4.000    2.219   2.219            0.000     -0.439
    210       H      4       1.000    0.273   0.273            0.000      0.454
    211       H      4       1.000    0.234   0.234           -0.000      0.532
    212       H      4       1.000    0.278   0.278           -0.000      0.444

  Total Charge                                                            0.003
 !-----------------------------------------------------------------------------!

 ENERGY| Total FORCE_EVAL ( QS ) energy (a.u.):            -8504.743727478418805


 --------  Informations at step =     7 ------------
  Optimization Method        =                 BFGS
  Total Energy               =     -8504.7437274784
  Real energy change         =        -0.0002290358
  Predicted change in energy =        -0.0001738432
  Scaling factor             =         0.0000000000
  Step size                  =         0.0509393465
  Trust radius               =         0.4724315332
  Decrease in energy         =                  YES
  Used time                  =              162.910

  Convergence check :
  Max. step size             =         0.0509393465
  Conv. limit for step size  =         0.0030000000
  Convergence in step size   =                   NO
  RMS step size              =         0.0050757588
  Conv. limit for RMS step   =         0.0015000000
  Convergence in RMS step    =                   NO
  Max. gradient              =         0.0020861676
  Conv. limit for gradients  =         0.0004500000
  Conv. for gradients        =                   NO
  RMS gradient               =         0.0003162285
  Conv. limit for RMS grad.  =         0.0003000000
  Conv. for gradients        =                   NO
 ---------------------------------------------------

 --------------------------
 OPTIMIZATION STEP:      8
 --------------------------

 Spin 1

 Number of electrons:                                                        914
 Number of occupied orbitals:                                                914
 Number of molecular orbitals:                                               914

 Spin 2

 Number of electrons:                                                        914
 Number of occupied orbitals:                                                914
 Number of molecular orbitals:                                               914

 Number of orbital functions:                                               3892
 Number of independent orbital functions:                                   3892

 Parameters for the always stable predictor-corrector (ASPC) method:

  ASPC order: 3

  B(1) =   3.000000
  B(2) =  -3.428571
  B(3) =   1.928571
  B(4) =  -0.571429
  B(5) =   0.071429

 Parameters for the always stable predictor-corrector (ASPC) method:

  ASPC order: 3

  B(1) =   3.000000
  B(2) =  -3.428571
  B(3) =   1.928571
  B(4) =  -0.571429
  B(5) =   0.071429

 Extrapolation method: ASPC


 SCF WAVEFUNCTION OPTIMIZATION

  ----------------------------------- OT ---------------------------------------
  Minimizer      : CG                  : conjugate gradient
  Preconditioner : FULL_ALL            : diagonalization, state selective
  Precond_solver : DEFAULT
  Line search    : 2PNT                : 2 energies, one gradient
  stepsize       :    0.15000000                  energy_gap     :    0.08000000
  eps_taylor     :   0.10000E-15                  max_taylor     :             4
  ----------------------------------- OT ---------------------------------------

  Step     Update method      Time    Convergence         Total energy    Change
  ------------------------------------------------------------------------------
     1 OT CG       0.15E+00   14.8     0.00002858     -8504.7434718041 -8.50E+03
     2 OT LS       0.55E-01    7.6                    -8504.7431499936
     3 OT CG       0.55E-01   18.9     0.00002021     -8504.7436303540 -1.59E-04
     4 OT LS       0.18E+00    7.8                    -8504.7437654105
