     212
 i =        1, E =     -8504.7350708014
  N         0.0117812973        1.9826483601        2.5403017172
 Ga         0.0018822800        0.0017309247        2.8994619251
  N         0.0182408055       -0.0024576730        5.0513234179
 Ga         0.0103669851        1.8123975006        5.8367042107
  N         0.0115111295        1.8328576157        7.8260531439
 Ga         0.0129728225       -0.0210452144        8.4508301244
  N         0.0140570897       -0.0167631628       10.4246666424
 Ga         0.0126035560        1.8219953708       11.0773555001
  N         0.0140622840        1.8020533733       13.0725205975
 Ga         0.0136817236       -0.0249921329       13.8681309845
  N         0.0146866654       -0.0162700067       16.0705052511
 Ga         0.0144984150        1.9954401670       16.4505116826
 Ga         0.0028036826        3.6689847418        1.5269427821
  N        -1.4629500718        4.5743835417        2.5298661974
 Ga        -1.6889984438        2.7044700943        3.3262777185
  N        -1.5960142035        2.7778223260        5.2832864306
 Ga        -1.6257623400        4.6484350878        5.8244147902
  N        -1.6032762047        4.6386807501        7.8132219727
 Ga        -1.5874221255        2.7790692177        8.4559395196
  N        -1.5840719257        2.7786732121       10.4463199705
 Ga        -1.6116349893        4.6377070597       11.0786197281
  N        -1.6279657820        4.6476581673       13.0732319215
 Ga        -1.5841762733        2.7756671584       13.6178010453
  N        -1.6075191183        2.7629714210       15.5869636230
 Ga        -1.4604025034        4.5509862445       16.4510129082
  N         0.0149495925        3.6992636490       17.5833228717
  N        -3.2005704519        7.5166149742        2.5045991469
 Ga        -3.1796260491        5.5659723852        2.8846035931
  N        -3.2006666709        5.5561739624        5.0314887023
 Ga        -3.2083595021        7.3876935598        5.7953613055
  N        -3.2030770183        7.4052387815        7.7903034922
 Ga        -3.2064151108        5.5610398574        8.4511354146
  N        -3.2040242662        5.5564423834       10.4231370423
 Ga        -3.2041113933        7.3970084818       11.0745923805
  N        -3.2025830759        7.3772504557       13.0651963925
 Ga        -3.2107264727        5.5610416532       13.8702041920
  N        -3.2042509434        5.5573739754       16.0716298766
 Ga        -3.2029098415        7.6130898501       16.5000768600
 Ga        -3.2214769838        9.3226726995        1.2509319986
  N        -4.7240649703       10.1612297565        2.5169841547
 Ga        -4.8423547926        8.3427009735        3.2539461447
  N        -4.8278188559        8.3324124215        5.2234767934
 Ga        -4.8324766479       10.2123098656        5.7999629014
  N        -4.8170654180       10.2002661811        7.7996251264
 Ga        -4.8024006197        8.3466511372        8.4378679429
  N        -4.7999221483        8.3454180940       10.4287960713
 Ga        -4.8250281431       10.2027605364       11.0748267977
  N        -4.8411854844       10.2142008510       13.0654376798
 Ga        -4.7997013491        8.3472159013       13.6287687325
  N        -4.8259989962        8.3325551347       15.5863936163
 Ga        -4.6379347090       10.0980895129       16.4984619214
  N        -3.1945170428        9.2744263447       17.6384943398
  N         3.2173891355        1.8465794096        2.6230046226
 Ga         3.2284680617        0.0701479843        3.2641231947
  N         3.2323297898       -0.0132946934        5.2523048104
 Ga         3.2294916691        1.8326444898        5.9007496089
  N         3.2314441817        1.8411477064        7.8724133433
 Ga         3.2290275403       -0.0301657082        8.4538162732
  N         3.2306400846       -0.0287022209       10.4432598988
 Ga         3.2313328060        1.8402257486       11.0400315291
  N         3.2305092012        1.8420869593       13.0084521455
 Ga         3.2293852781       -0.0289888657       13.6310606415
  N         3.2259077415        0.0057837647       15.5889015565
 Ga         3.2345134896        1.8411313510       15.8697410772
  N         1.5023153274        4.5511237743        2.5610596066
 Ga         1.7022646741        2.6984489754        3.3333880371
  N         1.6221805531        2.7670761147        5.2912159680
 Ga         1.6398616815        4.6321763344        5.8476500294
  N         1.6275205988        4.6338750242        7.8269815164
 Ga         1.6124780925        2.7727822708        8.4614810812
  N         1.6115426982        2.7767844105       10.4500048789
 Ga         1.6393028803        4.6379276334       11.0773053055
  N         1.6577600065        4.6477023592       13.0728945665
 Ga         1.6122755574        2.7759620318       13.6181884386
  N         1.6362685324        2.7631211856       15.5870635916
 Ga         1.4904771992        4.5517170732       16.4520505085
  N         0.0029794504        7.4337873529        2.6688204756
 Ga         0.0322930572        5.6049030672        3.3528373316
  N         0.0150428193        5.5803607627        5.2771053789
 Ga         0.0256079453        7.4350366781        5.8918045417
  N         0.0193236972        7.4189904559        7.8550240092
 Ga         0.0114353878        5.5522651811        8.4564233535
  N         0.0135538178        5.5452007982       10.4441609990
 Ga         0.0152211554        7.4150061974       11.0367573460
  N         0.0155470352        7.4126409948       13.0056660782
 Ga         0.0150502040        5.5443050203       13.6186776778
  N         0.0144816788        5.5728198941       15.5875540879
 Ga         0.0149910258        7.4180691757       15.8693622863
  N        -1.6890374015       10.1511873648        2.5213667638
 Ga        -1.6059003008        8.3603973064        3.3030115942
  N        -1.5826658130        8.3395925588        5.2476610049
 Ga        -1.5675967516       10.2230704670        5.8145040401
  N        -1.5876866320       10.2009130641        7.8090842569
 Ga        -1.6047480295        8.3472115551        8.4471129751
  N        -1.6044051011        8.3457584913       10.4364167916
 Ga        -1.5775079563       10.2057644908       11.0811673218
  N        -1.5608323263       10.2160437969       13.0730283706
 Ga        -1.6058012787        8.3471472800       13.6306426685
  N        -1.5785621956        8.3280130089       15.5888964131
 Ga        -1.7559206179       10.1049601539       16.5002481050
  N         6.4489072671        1.9707026923        2.5504788202
 Ga         6.4550687567       -0.0278144040        2.8879147369
  N         6.4430620779       -0.0050762813        5.0587227192
 Ga         6.4487838576        1.8092458607        5.8274180379
  N         6.4465461297        1.8348030152        7.8189822126
 Ga         6.4465763728       -0.0172911310        8.4539166816
  N         6.4468718207       -0.0152205939       10.4266504791
 Ga         6.4466909059        1.8233882668       11.0843296568
  N         6.4468339610        1.8045350585       13.0752945037
 Ga         6.4477155431       -0.0149005552       13.8885399156
  N         6.4469320868       -0.0132118401       16.0791323310
 Ga         6.4471162262        2.0304144002       16.5039783423
 Ga         6.4428250647        3.6877486962        1.5627690455
  N         4.9327705233        4.5650502261        2.5510557109
 Ga         4.7367430367        2.6874363094        3.3197210240
  N         4.8390768283        2.7678594479        5.2752155344
 Ga         4.8268567665        4.6356462134        5.8291438167
  N         4.8356875558        4.6334790963        7.8135826052
 Ga         4.8491855831        2.7753531216        8.4600516313
  N         4.8492058344        2.7773110548       10.4474839708
 Ga         4.8266098304        4.6380707250       11.0766852319
  N         4.8088482170        4.6463685764       13.0672777592
 Ga         4.8503479299        2.7782843892       13.6331323999
  N         4.8195122596        2.7654484559       15.5910877103
 Ga         5.0119407055        4.5291452202       16.5041357281
  N         6.4477217890        3.6911693298       17.6441952681
  N         3.2333077764        7.4501615664        2.5572043596
  N         3.2298312810        5.5233833036        5.0696056487
 Ga         3.2358064287        7.4003957119        5.7594564273
  N         3.2299527819        7.4079381649        7.7671668137
 Ga         3.2339511974        5.5657355191        8.4482736217
  N         3.2320533655        5.5582145649       10.4217360507
 Ga         3.2338281161        7.3977048739       11.0763592698
  N         3.2325977689        7.3773618545       13.0669092666
 Ga         3.2402661718        5.5610248246       13.8712039039
  N         3.2334783166        5.5569129466       16.0737319973
 Ga         3.2320651787        7.6153461338       16.5048578970
 Ga         3.1783183711        9.3419363657        1.1194001247
  N         1.7109850612       10.1632077697        2.5184417263
 Ga         1.6349339143        8.3740176889        3.2441733279
  N         1.6108162370        8.3511129697        5.2160702917
 Ga         1.5921625870       10.2192740911        5.8098977572
  N         1.6117883739       10.1981931336        7.8051889233
 Ga         1.6382723307        8.3487751839        8.4495245488
  N         1.6353846770        8.3470204532       10.4376367516
 Ga         1.6085737719       10.2079138224       11.0793935924
  N         1.5913285551       10.2162909132       13.0718556747
 Ga         1.6362459370        8.3477981548       13.6315608014
  N         1.6080239591        8.3282238165       15.5899106680
 Ga         1.7882498369       10.1031363199       16.5043673698
  N         3.2244787652        9.2747018920       17.6434488194
  N         9.6679712553        1.8428077999        2.6299259484
 Ga         9.6593992971        0.0594537605        3.2734812256
  N         9.6556763646       -0.0094640750        5.2555749412
 Ga         9.6597655970        1.8394262629        5.8937555468
  N         9.6590028329        1.8464832084        7.8663991702
 Ga         9.6613882850       -0.0277760416        8.4392906406
  N         9.6618621990       -0.0275663634       10.4336859865
 Ga         9.6605645594        1.8406222066       11.0341149313
  N         9.6627046087        1.8417614691       13.0044191140
 Ga         9.6643986460       -0.0283956304       13.6310268574
  N         9.6678399055        0.0054699766       15.5891681951
 Ga         9.6591511670        1.8403090174       15.8708539498
  N         7.9437592139        4.5915597239        2.5307110629
 Ga         8.1654370326        2.7107649089        3.3117989270
  N         8.0519303380        2.7774614921        5.2690117136
 Ga         8.0779814316        4.6503701464        5.8037184288
  N         8.0598074603        4.6376189213        7.7979202396
 Ga         8.0420831780        2.7814870292        8.4541007098
  N         8.0416123623        2.7790644759       10.4437550903
 Ga         8.0664492916        4.6376325861       11.0783319882
  N         8.0846996196        4.6463515586       13.0681039895
 Ga         8.0437903974        2.7777456344       13.6324844678
  N         8.0745362029        2.7651675348       15.5907356302
 Ga         7.8813887758        4.5289956444       16.5029850073
  N         6.4397694219        7.4381926726        2.6073717485
 Ga         6.4273314566        5.6607427443        3.3125401028
  N         6.4435096325        5.5876484812        5.2516338901
 Ga         6.4340497955        7.4384187228        5.8874058538
  N         6.4429577560        7.4174625541        7.8498798847
 Ga         6.4491809341        5.5533917596        8.4446683546
  N         6.4473117271        5.5463851965       10.4330767861
 Ga         6.4466128138        7.4138461609       11.0304571839
  N         6.4466707029        7.4127631095       12.9995881188
 Ga         6.4464677737        5.5447010817       13.6316082770
  N         6.4464031143        5.5754755498       15.5890464075
 Ga         6.4465275177        7.4133933951       15.8678490074
  N         4.7545801336       10.1760960853        2.4949060189
 Ga         4.8546190237        8.3676929291        3.2060201766
  N         4.8551168184        8.3469682785        5.1952251510
 Ga         4.8598706339       10.2145080795        5.7927886043
  N         4.8467931033       10.2002989388        7.7940336049
 Ga         4.8263913703        8.3480655868        8.4360310784
  N         4.8282261844        8.3458627131       10.4277574742
 Ga         4.8510263908       10.2043164502       11.0715414628
  N         4.8693344098       10.2143997005       13.0634277108
 Ga         4.8291643303        8.3478480844       13.6297195300
  N         4.8551893642        8.3329029761       15.5874384126
 Ga         4.6645755924       10.0966464282       16.5029694258
  O         0.3535599219        3.8522868246       -0.4693943407
  H         0.6561380711        4.8108624881       -0.5875165490
  C         1.4336693609        2.9676217781       -0.9361969392
  H         2.2593352622        2.9300400120       -0.2101015752
  H         0.9954108050        1.9718450002       -1.0555648389
  H         1.7806325476        3.3417267338       -1.9058205065
 Ga         3.2015577771        5.5214789666        2.9863505346
  O         1.1047760875        6.3846063385       -0.7638756540
  H        -0.0282673158        7.3927454105        1.6435748939
  C         1.2545909239        6.8869163186       -1.8805599491
  H         1.5028219897        7.9583784485       -2.0020627251
  H         6.4351303884        7.3851164195        1.5620678390
  H         1.1347181954        6.2818389557       -2.7998833074
     212
 i =        2, E =     -8504.7412172694
  N         0.0133821560        1.9791611764        2.5400346779
 Ga        -0.0048866231       -0.0059838247        2.8880527797
  N         0.0150381496       -0.0000659683        5.0435716050
 Ga         0.0103219428        1.8129801149        5.8379292086
  N         0.0120295125        1.8329855731        7.8246716211
 Ga         0.0120124709       -0.0202030205        8.4510302076
  N         0.0139648918       -0.0178067033       10.4220689606
 Ga         0.0126840449        1.8218498766       11.0782202931
  N         0.0139023724        1.8031667162       13.0691798294
 Ga         0.0136966948       -0.0209864258       13.8742792063
  N         0.0145634212       -0.0138772231       16.0707000001
 Ga         0.0146826276        2.0085930201       16.4645423859
 Ga         0.0042893789        3.6715286528        1.5280149398
  N        -1.4697285897        4.5745430428        2.5265649871
 Ga        -1.6880140337        2.7074607381        3.3238980300
  N        -1.5956231979        2.7768177597        5.2799771869
 Ga        -1.6223768373        4.6455832527        5.8266250828
  N        -1.6030646795        4.6387283320        7.8121602661
 Ga        -1.5873166917        2.7783711613        8.4564598438
  N        -1.5843884385        2.7790455350       10.4435994774
 Ga        -1.6119097970        4.6383272505       11.0796195701
  N        -1.6271959109        4.6474011040       13.0694406886
 Ga        -1.5850151294        2.7757014949       13.6214759978
  N        -1.6099685062        2.7617735640       15.5843570323
 Ga        -1.4489723926        4.5445910940       16.4652736065
  N         0.0148137806        3.6990954740       17.5908894080
  N        -3.2073715503        7.5181329828        2.5004923657
 Ga        -3.1824444976        5.5624125928        2.8872721649
  N        -3.1987676573        5.5542734065        5.0286217098
 Ga        -3.2072033533        7.3838599538        5.7990949789
  N        -3.2046369752        7.4060274590        7.7891274177
 Ga        -3.2046347274        5.5610876104        8.4525189581
  N        -3.2043397588        5.5578977109       10.4209368469
 Ga        -3.2025066544        7.3966058868       11.0784395650
  N        -3.2025598645        7.3763139676       13.0662061291
 Ga        -3.2067693674        5.5591141804       13.8763979167
  N        -3.2015359264        5.5563829253       16.0717083400
 Ga        -3.2013368446        7.6108801380       16.4987125299
 Ga        -3.2079773583        9.3344450320        1.2330107680
  N        -4.7237804000       10.1545520952        2.5077734724
 Ga        -4.8215501489        8.3547289619        3.2666146072
  N        -4.8275904474        8.3340150644        5.2180877388
 Ga        -4.8375747167       10.2192482124        5.8003510078
  N        -4.8181281466       10.1991329522        7.7960171909
 Ga        -4.7995440992        8.3494864839        8.4473447226
  N        -4.7988963630        8.3458326508       10.4329173473
 Ga        -4.8252212939       10.2043950908       11.0783275446
  N        -4.8418525142       10.2144929229       13.0666752327
 Ga        -4.7990171839        8.3471421942       13.6305990019
  N        -4.8257247598        8.3322920376       15.5870302001
 Ga        -4.6390286947       10.1004555592       16.4974431895
  N        -3.1963305406        9.2733452092       17.6384941949
  N         3.2170533905        1.8464353569        2.6186287926
 Ga         3.2262958732        0.0738469251        3.2597446358
  N         3.2306465673       -0.0162328847        5.2456106199
 Ga         3.2287780844        1.8324594794        5.8987470438
  N         3.2312232271        1.8411053969        7.8685700260
 Ga         3.2291691949       -0.0297915509        8.4535251447
  N         3.2305019713       -0.0295207474       10.4405500556
 Ga         3.2318479971        1.8401390750       11.0404678431
  N         3.2315297235        1.8413420330       13.0056847479
 Ga         3.2295942076       -0.0286731764       13.6321332357
  N         3.2280263288        0.0053742409       15.5884958197
 Ga         3.2330888110        1.8414622122       15.8695232213
  N         1.5024818650        4.5573543628        2.5597466886
 Ga         1.7068951519        2.7063358549        3.3329083965
  N         1.6212480714        2.7661079958        5.2902195706
 Ga         1.6457231442        4.6333126004        5.8440235894
  N         1.6272112445        4.6336476868        7.8230123503
 Ga         1.6126043741        2.7736595041        8.4623508327
  N         1.6119752890        2.7769008021       10.4479417044
 Ga         1.6400098594        4.6389341670       11.0775832871
  N         1.6565953865        4.6475290980       13.0686579123
 Ga         1.6128396950        2.7760325672       13.6217974617
  N         1.6389502371        2.7618422620       15.5845214580
 Ga         1.4788777998        4.5448548043       16.4662231504
  N         0.0037555316        7.4250133772        2.6761008101
 Ga         0.0263378395        5.5959656634        3.3540061936
  N         0.0163147928        5.5818659731        5.2773359426
 Ga         0.0192954496        7.4333259225        5.9020363245
  N         0.0159309024        7.4178269588        7.8612521612
 Ga         0.0123103516        5.5503512415        8.4591626400
  N         0.0131377494        5.5457277839       10.4433081469
 Ga         0.0155091602        7.4159726750       11.0367314346
  N         0.0152192117        7.4143006408       13.0020601774
 Ga         0.0148633967        5.5456407216       13.6221523109
  N         0.0146631137        5.5755196551       15.5847830922
 Ga         0.0148881775        7.4163391057       15.8696486448
  N        -1.6908620108       10.1523725674        2.5162907645
 Ga        -1.6028147647        8.3585900331        3.2940460252
  N        -1.5870186565        8.3395023219        5.2388591237
 Ga        -1.5680903539       10.2234092869        5.8142262577
  N        -1.5864840703       10.2016727282        7.8061518667
 Ga        -1.6057779609        8.3490429010        8.4497904725
  N        -1.6053125731        8.3463539047       10.4355129816
 Ga        -1.5780345866       10.2054594459       11.0832947652
  N        -1.5611758264       10.2156997700       13.0724586920
 Ga        -1.6053592688        8.3466520025       13.6319858919
  N        -1.5778334386        8.3295596551       15.5885675105
 Ga        -1.7572803990       10.1041342503       16.4996667802
  N         6.4453914120        1.9676718759        2.5529526456
 Ga         6.4536938506       -0.0299500141        2.8922493708
  N         6.4443453953       -0.0055673731        5.0544399965
 Ga         6.4487931202        1.8101648170        5.8286372782
  N         6.4467567948        1.8335765687        7.8172997444
 Ga         6.4470211087       -0.0171800560        8.4585010339
  N         6.4464393770       -0.0155023993       10.4284161532
 Ga         6.4470306420        1.8238211054       11.0855382874
  N         6.4469941481        1.8046522642       13.0746383237
 Ga         6.4474923468       -0.0152801526       13.8890690398
  N         6.4469147236       -0.0140502000       16.0789412683
 Ga         6.4469471145        2.0318013153       16.5021193126
 Ga         6.4407877902        3.6734803531        1.5371950884
  N         4.9432179650        4.5699292793        2.5478494425
 Ga         4.7309221974        2.6937563848        3.3182574232
  N         4.8403932439        2.7685014207        5.2726939374
 Ga         4.8132590220        4.6369031378        5.8278398301
  N         4.8358092692        4.6342021777        7.8100707455
 Ga         4.8490637242        2.7751405759        8.4602482404
  N         4.8499493488        2.7777435928       10.4449550191
 Ga         4.8241140869        4.6381608384       11.0788671968
  N         4.8079373106        4.6471734624       13.0676872466
 Ga         4.8500843108        2.7783543556       13.6337229286
  N         4.8206023787        2.7639270933       15.5906611987
 Ga         5.0093245808        4.5289123322       16.5017765317
  N         6.4474333089        3.6930603876       17.6422429823
  N         3.2278874011        7.4866490782        2.5256615445
  N         3.2273929168        5.5340717057        5.0519207654
 Ga         3.2343143847        7.3935902350        5.7718711363
  N         3.2323243317        7.4073161281        7.7744326808
 Ga         3.2324249185        5.5652332637        8.4471460967
  N         3.2323144920        5.5597981243       10.4179343333
 Ga         3.2321266926        7.3970320391       11.0795002163
  N         3.2323508699        7.3765354251       13.0674734916
 Ga         3.2362180412        5.5591893824       13.8767667942
  N         3.2306276690        5.5560994856       16.0736243075
 Ga         3.2304620512        7.6123740821       16.5018647857
 Ga         3.1946665621        9.3597716446        1.0976164887
  N         1.7088718707       10.1462706930        2.5113497450
 Ga         1.6376876913        8.3539890344        3.2642205158
  N         1.6077031165        8.3421600258        5.2266966911
 Ga         1.5973399171       10.2183981387        5.8062517059
  N         1.6124877796       10.2014676366        7.8015036164
 Ga         1.6387128019        8.3491914277        8.4464967085
  N         1.6360615992        8.3467394037       10.4333882433
 Ga         1.6083758118       10.2064703598       11.0810527485
  N         1.5911396972       10.2161696975       13.0712054683
 Ga         1.6354315558        8.3474332224       13.6327572160
  N         1.6072053861        8.3298349377       15.5895855032
 Ga         1.7884449979       10.1029998597       16.5025182375
  N         3.2259661571        9.2735437340       17.6423821234
  N         9.6679433548        1.8477820555        2.6299318533
 Ga         9.6660602992        0.0596669251        3.2469306321
  N         9.6589777888       -0.0094034857        5.2381535497
 Ga         9.6606011452        1.8381661733        5.8902568232
  N         9.6598004639        1.8451311797        7.8616145963
 Ga         9.6622195330       -0.0272235758        8.4439403424
  N         9.6621203288       -0.0280332777       10.4345855162
 Ga         9.6602775262        1.8409699563       11.0351474516
  N         9.6616140340        1.8412408789       13.0018923304
 Ga         9.6640147102       -0.0279232093       13.6319376408
  N         9.6655786128        0.0052886298       15.5887638572
 Ga         9.6606813523        1.8410099665       15.8705065690
  N         7.9375500784        4.5890899664        2.5273422750
 Ga         8.1633302561        2.7076321770        3.3117463640
  N         8.0506411246        2.7807220748        5.2666890191
 Ga         8.0819888661        4.6501724614        5.8106152023
  N         8.0596706736        4.6395215781        7.7991245262
 Ga         8.0433263988        2.7800349006        8.4539179442
  N         8.0417255528        2.7798499467       10.4405479116
 Ga         8.0684898918        4.6372995223       11.0812985607
  N         8.0857311036        4.6470479650       13.0689501555
 Ga         8.0442458701        2.7777202449       13.6332154259
  N         8.0733070823        2.7635171860       15.5902402773
 Ga         7.8839303907        4.5288503843       16.5007699729
  N         6.4361944610        7.4325480448        2.6269925319
 Ga         6.4314973281        5.6254339722        3.3289263870
  N         6.4418800157        5.5873940186        5.2524371556
 Ga         6.4378021588        7.4371408181        5.8985216848
  N         6.4447398665        7.4175456364        7.8538014921
 Ga         6.4479071314        5.5500802613        8.4535665663
  N         6.4476308053        5.5457414156       10.4370624414
 Ga         6.4457738288        7.4145335939       11.0337745252
  N         6.4467427700        7.4132323544       13.0006873817
 Ga         6.4465277605        5.5443700124       13.6325196688
  N         6.4463705334        5.5752411129       15.5893245908
 Ga         6.4467164700        7.4134817109       15.8680770020
  N         4.7511439129       10.1563856080        2.4924253807
 Ga         4.8145059451        8.3639677795        3.2318869407
  N         4.8586048559        8.3393355232        5.2034874581
 Ga         4.8603920150       10.2161998031        5.7911296813
  N         4.8461757280       10.2002109872        7.7903960330
 Ga         4.8230583824        8.3501508441        8.4415651707
  N         4.8267556069        8.3460869639       10.4291576845
 Ga         4.8514897447       10.2048149636       11.0753083795
  N         4.8700765612       10.2147955591       13.0649241522
 Ga         4.8283950702        8.3478853384       13.6314471646
  N         4.8550265917        8.3324692515       15.5881111553
 Ga         4.6664788329       10.0994795541       16.5004521701
  O         0.3594003993        3.8530070416       -0.4701727913
  H         0.6626786707        4.8130673676       -0.5897100259
  C         1.4359553452        2.9652945132       -0.9375853996
  H         2.2571545764        2.9330398788       -0.2056613996
  H         0.9949249957        1.9694844590       -1.0501783738
  H         1.7848155859        3.3388722155       -1.9066662283
 Ga         3.2030711003        5.5596531437        2.9456828396
  O         1.0912656929        6.3839239593       -0.7609130450
  H        -0.0160498616        7.3943284832        1.6486957695
  C         1.2462436362        6.8851431058       -1.8787620815
  H         1.5047084490        7.9545747710       -1.9838298441
  H         6.4444313192        7.3949490442        1.6020098464
  H         1.1440562332        6.2854112242       -2.8032711674
     212
 i =        3, E =     -8504.7423006896
  N         0.0132772419        1.9796943747        2.5377527590
 Ga        -0.0049494132       -0.0086070134        2.8813806805
  N         0.0145459015       -0.0006704208        5.0402230583
 Ga         0.0108081666        1.8133123568        5.8352149805
  N         0.0122276570        1.8327713840        7.8221617524
 Ga         0.0112409952       -0.0197147822        8.4519661051
  N         0.0137277191       -0.0176711807       10.4220076760
 Ga         0.0129343388        1.8225359576       11.0796128185
  N         0.0139391760        1.8036563648       13.0687024649
 Ga         0.0137098112       -0.0187188389       13.8780982330
  N         0.0144430772       -0.0136235604       16.0726746072
 Ga         0.0147632216        2.0162684449       16.4705522048
 Ga         0.0029989496        3.6720352445        1.5229665293
  N        -1.4718626751        4.5724929420        2.5263693367
 Ga        -1.6890519688        2.7064729298        3.3224894683
  N        -1.5955066310        2.7767997384        5.2784649684
 Ga        -1.6225470053        4.6433845533        5.8285908558
  N        -1.6032942954        4.6382875881        7.8125825174
 Ga        -1.5876951803        2.7770530905        8.4563888292
  N        -1.5845452252        2.7789052754       10.4421132110
 Ga        -1.6111656088        4.6379951088       11.0815329351
  N        -1.6269005599        4.6473111342       13.0692986738
 Ga        -1.5844483152        2.7761238897       13.6241601578
  N        -1.6114028638        2.7610247789       15.5841238898
 Ga        -1.4424925561        4.5409527730       16.4712445973
  N         0.0146586798        3.6991436432       17.5937059571
  N        -3.2066565528        7.5190202766        2.4977778541
 Ga        -3.1847787838        5.5618114906        2.8867017318
  N        -3.1992025713        5.5535405866        5.0282300728
 Ga        -3.2055490971        7.3838628805        5.8009084420
  N        -3.2043634519        7.4062310414        7.7894911284
 Ga        -3.2039861522        5.5612574134        8.4549865173
  N        -3.2038356426        5.5582145616       10.4220024231
 Ga        -3.2022712240        7.3962618854       11.0818364857
  N        -3.2021068373        7.3762061117       13.0684591698