     206
 i =        1, E =     -8480.5337117908
  N         0.0757136156        1.9682582443        2.4850587592
 Ga         0.0676912529       -0.0120463542        2.8269375493
  N         0.0807413845       -0.0255306228        5.0134555700
 Ga         0.0812071955        1.7958080309        5.8036863704
  N         0.0797848354        1.8150399762        7.8012543023
 Ga         0.0775488492       -0.0310414518        8.4450787035
  N         0.0789008444       -0.0303299601       10.4187253398
 Ga         0.0790775497        1.8083375806       11.0731731689
  N         0.0796334744        1.7905973152       13.0654814416
 Ga         0.0792639859       -0.0288461283       13.8794088772
  N         0.0793802466       -0.0287916263       16.0709222383
 Ga         0.0793819737        2.0173707923       16.4933241350
 Ga         0.0560753144        3.7142691621        1.3864040203
  N        -1.4232564377        4.5487898200        2.5365180840
 Ga        -1.6098867030        2.6982040895        3.2787856453
  N        -1.5258581143        2.7548120801        5.2535846340
 Ga        -1.5611012406        4.6205442059        5.8130648698
  N        -1.5388901711        4.6168609658        7.8048051912
 Ga        -1.5197799700        2.7563777218        8.4386178050
  N        -1.5173400038        2.7604720353       10.4313347389
 Ga        -1.5431040988        4.6184146710       11.0710629951
  N        -1.5586799289        4.6298182569       13.0616569259
 Ga        -1.5177476225        2.7613879692       13.6237028600
  N        -1.5464100584        2.7462967015       15.5808345195
 Ga        -1.3567138491        4.5097805435       16.4936764408
  N         0.0794650007        3.6793408651       17.6368192215
  N        -3.1362265467        7.5229299448        2.5337382347
 Ga        -3.1251946728        5.5289782636        2.8554156899
  N        -3.1356024644        5.5392200322        5.0218134892
 Ga        -3.1458832017        7.3613383135        5.8084193661
  N        -3.1368353192        7.3857726935        7.7987468901
 Ga        -3.1377733947        5.5396854630        8.4503412151
  N        -3.1367988041        5.5402223403       10.4215315266
 Ga        -3.1382400908        7.3807819916       11.0717519201
  N        -3.1361724559        7.3615064121       13.0626192519
 Ga        -3.1288142989        5.5437535753       13.8639472134
  N        -3.1354158222        5.5416577087       16.0666913240
 Ga        -3.1367144863        7.5969652886       16.4944908812
 Ga        -3.1390377843        9.2494311589        1.4923820498
  N        -4.6329566966       10.1184377933        2.5119249113
 Ga        -4.8565447301        8.2711492657        3.2909838076
  N        -4.7455052017        8.3260889730        5.2515431786
 Ga        -4.7751434807       10.1997453467        5.7987683055
  N        -4.7551604640       10.1882581142        7.7952567735
 Ga        -4.7380559951        8.3326125330        8.4371694717
  N        -4.7341293311        8.3327379056       10.4296919504
 Ga        -4.7611660228       10.1916782608       11.0736006108
  N        -4.7761999447       10.2010771324       13.0667592576
 Ga        -4.7333056146        8.3318165147       13.6253439947
  N        -4.7604955956        8.3118859971       15.5837757299
 Ga        -4.5834003393       10.0885586198       16.4931038405
  N        -3.1433036878        9.2600688132       17.6267931039
  N         3.2887830508        1.8287370028        2.6143610226
 Ga         3.2875434882        0.0899949425        3.2895498860
  N         3.2952411502       -0.0323482355        5.2512521091
 Ga         3.2878170512        1.8282133348        5.8728388126
  N         3.2946601608        1.8256940326        7.8486883170
 Ga         3.2927482248       -0.0410806005        8.4399036383
  N         3.2947046508       -0.0423505916       10.4319290402
 Ga         3.2952833097        1.8269817651       11.0284653697
  N         3.2963604166        1.8268807053       12.9987752969
 Ga         3.2963909727       -0.0429123497       13.6265222681
  N         3.2991299515       -0.0090003982       15.5858043907
 Ga         3.2928910867        1.8260954298       15.8627351002
  N         1.5823278858        4.5513288712        2.5274657237
 Ga         1.7634978146        2.7106258613        3.2629336067
  N         1.6842809305        2.7555439445        5.2452533306
 Ga         1.7224071474        4.6194532672        5.8132571290
  N         1.6969677279        4.6160450088        7.8059311358
 Ga         1.6770624557        2.7573914822        8.4422774075
  N         1.6764016473        2.7603152414       10.4336998398
 Ga         1.7024531450        4.6191478078       11.0710287678
  N         1.7183205551        4.6301469893       13.0617414356
 Ga         1.6765483881        2.7619701127       13.6243868158
  N         1.7058594490        2.7460673854       15.5815593984
 Ga         1.5163928075        4.5099041616       16.4941766604
  N         0.0726884137        7.3938054551        2.7365596270
 Ga         0.0875689623        5.5571667151        3.3279525028
  N         0.0803390725        5.5432574185        5.2677468143
 Ga         0.0861724416        7.3938830860        5.8959775878
  N         0.0804923207        7.3975108246        7.8574402611
 Ga         0.0794702468        5.5260070602        8.4463649647
  N         0.0793373863        5.5270910397       10.4343715627
 Ga         0.0801852288        7.3972225522       11.0294106013
  N         0.0797116559        7.3973881090       12.9983069728
 Ga         0.0798316461        5.5273807195       13.6253008731
  N         0.0797545544        5.5580669721       15.5849498638
 Ga         0.0802652394        7.3969791894       15.8627311649
  N        -1.6358088019       10.1151311376        2.5279783941
 Ga        -1.4934921041        8.3026899161        3.3430847558
  N        -1.5223982052        8.3204887200        5.2715646903
 Ga        -1.5037966767       10.2052391595        5.8101205674
  N        -1.5196170218       10.1868413551        7.8001212256
 Ga        -1.5405233952        8.3317194966        8.4457279739
  N        -1.5401301032        8.3319786134       10.4333555209
 Ga        -1.5147292286       10.1917530041       11.0717602003
  N        -1.4970565233       10.2003781100       13.0627386303
 Ga        -1.5394869231        8.3322741240       13.6253882515
  N        -1.5121597142        8.3158123392       15.5844417261
 Ga        -1.6995427515       10.0834022968       16.4942223614
  N         6.5104848008        1.9477967673        2.5375224421
 Ga         6.5245387916       -0.0342757908        2.8601587719
  N         6.5086299888       -0.0307650488        5.0224750644
 Ga         6.5097334008        1.7986244846        5.8047303803
  N         6.5111032970        1.8145859642        7.8004304428
 Ga         6.5133838481       -0.0310419642        8.4474506784
  N         6.5122415959       -0.0305111475       10.4197338440
 Ga         6.5124392287        1.8093940507       11.0694971691
  N         6.5120986897        1.7883545986       13.0651763824
 Ga         6.5125842194       -0.0376099030       13.8648286485
  N         6.5122799214       -0.0297779973       16.0673166280
 Ga         6.5123669905        1.9845735628       16.4477132758
 Ga         6.5130138925        3.6806273871        1.5310733200
  N         5.0093993296        4.5477580599        2.5309629472
 Ga         4.7941772834        2.6973916128        3.2974262954
  N         4.9001692458        2.7543077490        5.2577741410
 Ga         4.8767437092        4.6271978082        5.8043761426
  N         4.8942570588        4.6170232497        7.8008171801
 Ga         4.9120146475        2.7595417320        8.4401215091
  N         4.9148352983        2.7614412898       10.4337177682
 Ga         4.8887821341        4.6212365732       11.0694920447
  N         4.8706242622        4.6313946413       13.0656595688
 Ga         4.9139012854        2.7606082866       13.6119530320
  N         4.8915168874        2.7459084859       15.5796172418
 Ga         5.0375205388        4.5327415388       16.4474785975
  N         6.5119915520        3.6878201662       17.5934541470
  N         3.2972220554        7.5159913128        2.5100392440
  N         3.2936879800        5.5372533018        5.0244301597
 Ga         3.3015381165        7.3643952072        5.7969626093
  N         3.2941062427        7.3874521159        7.7935303837
 Ga         3.2964271782        5.5419574568        8.4478019721
  N         3.2956322427        5.5409944248       10.4204160878
 Ga         3.2978713880        7.3813360565       11.0707557772
  N         3.2957216856        7.3616533852       13.0618453917
 Ga         3.2883282894        5.5444996773       13.8640194941
  N         3.2950461633        5.5419968488       16.0668510568
 Ga         3.2965072652        7.5985666422       16.4959856748
 Ga         3.3109287638        9.2616130806        1.3444004544
  N         1.7881792302       10.1219227476        2.5095628636
 Ga         1.6741217681        8.3114501182        3.2938124979
  N         1.6796792916        8.3189986048        5.2422520324
 Ga         1.6639317775       10.1992509747        5.7979946489
  N         1.6776912569       10.1852982964        7.7935867985
 Ga         1.7007326715        8.3327434134        8.4450112154
  N         1.6996411786        8.3325580645       10.4331175746
 Ga         1.6751058289       10.1921265829       11.0709926008
  N         1.6569824258       10.2004005756       13.0620076891
 Ga         1.6991862295        8.3323178892       13.6248666618
  N         1.6720010437        8.3159631654       15.5835693221
 Ga         1.8606380889       10.0827267530       16.4952108610
  N         3.3026179288        9.2603594831       17.6300733168
  N         9.7333162153        1.8238452240        2.6220387150
 Ga         9.7291886524        0.0640837442        3.2613180501
  N         9.7263029047       -0.0351391556        5.2399986960
 Ga         9.7325121555        1.8195629535        5.8675481679
  N         9.7275964260        1.8245698091        7.8457164482
 Ga         9.7302344686       -0.0425860031        8.4333679876
  N         9.7285810466       -0.0428313592       10.4279848631
 Ga         9.7286719042        1.8260931904       11.0254865701
  N         9.7274498222        1.8266552083       12.9964072768
 Ga         9.7278623656       -0.0426400169       13.6257615089
  N         9.7249616585       -0.0088020357       15.5846584458
 Ga         9.7314720318        1.8258703256       15.8625358965
  N         8.0128934823        4.5478636283        2.5372458339
 Ga         8.2280860804        2.6903944296        3.3004882874
  N         8.1201666290        2.7536350369        5.2599942199
 Ga         8.1426287778        4.6263545121        5.8027054890
  N         8.1296501862        4.6177524867        7.7988924297
 Ga         8.1118594062        2.7592220458        8.4370952190
  N         8.1089485020        2.7614435879       10.4316617250
 Ga         8.1343806591        4.6201801300       11.0697131706
  N         8.1531272548        4.6311045164       13.0655883641
 Ga         8.1105690031        2.7602969615       13.6115093400
  N         8.1329186937        2.7459358833       15.5791357614
 Ga         7.9864718555        4.5323228541       16.4472886429
  N         6.5071358220        7.3984997303        2.6094795891
 Ga         6.5055275392        5.6619949198        3.2954733503
  N         6.5102087549        5.5428202709        5.2557537655
 Ga         6.5043782640        7.4018678369        5.8701266831
  N         6.5105077224        7.3978325857        7.8449811647
 Ga         6.5118065744        5.5308363952        8.4381295988
  N         6.5119636589        5.5280395618       10.4321592607
 Ga         6.5112207865        7.3986358194       11.0258274869
  N         6.5117447041        7.3970160769       12.9969957953
 Ga         6.5119904422        5.5293918527       13.6128849056
  N         6.5122521383        5.5555692768       15.5825950757
 Ga         6.5120143228        7.4006059680       15.8656729461
  N         4.7983985209       10.1233814373        2.5007909889
 Ga         4.9839840375        8.2781548011        3.2584187166
  N         4.9013624692        8.3261556261        5.2372601367
 Ga         4.9298023233       10.1967917748        5.7879453071
  N         4.9139416578       10.1881364432        7.7897609590
 Ga         4.8941188914        8.3341218412        8.4337559943
  N         4.8930016432        8.3329077637       10.4277909307
 Ga         4.9186720804       10.1912619032       11.0721354239
  N         4.9353606531       10.2010253341       13.0655403205
 Ga         4.8923540613        8.3322415433       13.6252640941
  N         4.9204841279        8.3119989592       15.5832998526
 Ga         4.7412382163       10.0879496813       16.4942927627
 Ga         3.2805899888        5.5439113463        2.8490292878
  O         0.0621876304        6.9823110164        0.2433129054
  H         0.0621477522        7.2930977019        1.6503337279
  C         1.1920347816        7.5533123047       -0.3798562183
  H         1.2486358196        8.6573361795       -0.2471075513
  H         2.1612720709        7.1270036600       -0.0468499791
  H         1.1416112244        7.3926207121       -1.4711738408
     206
 i =        2, E =     -8480.5381591461
  N         0.0762409801        1.9656225706        2.4817704152
 Ga         0.0719106980       -0.0225871390        2.8260334629
  N         0.0791608947       -0.0266078740        5.0096891516
 Ga         0.0805454280        1.7965073372        5.8040822406
  N         0.0798533594        1.8149311347        7.7982313231
 Ga         0.0779423499       -0.0312426163        8.4481040799
  N         0.0790535182       -0.0309088420       10.4188617562
 Ga         0.0791542386        1.8078553407       11.0750389805
  N         0.0796468261        1.7899417608       13.0643559632
 Ga         0.0793997174       -0.0289682878       13.8800759746
  N         0.0794774252       -0.0304465604       16.0712860120
 Ga         0.0794850151        2.0154388358       16.4913219893
 Ga         0.0673026686        3.7437483642        1.4083514721
  N        -1.4273399835        4.5556635539        2.5409591655
 Ga        -1.6153479626        2.6968496459        3.2749887523
  N        -1.5259060331        2.7540260323        5.2459131083
 Ga        -1.5610418163        4.6194491088        5.8135066388
  N        -1.5387694571        4.6167857068        7.8018229800
 Ga        -1.5197112475        2.7570157125        8.4410949547
  N        -1.5168317881        2.7607660690       10.4301631212
 Ga        -1.5433011018        4.6190605305       11.0734741567
  N        -1.5596669023        4.6303422716       13.0625729558
 Ga        -1.5175696229        2.7608808092       13.6249292471
  N        -1.5421326619        2.7437342475       15.5817118978
 Ga        -1.3652090154        4.5124048439       16.4905058211
  N         0.0796259686        3.6855284236       17.6320014211
  N        -3.1354700710        7.5244570667        2.5372412915
 Ga        -3.1354294432        5.5386566445        2.8592461789
  N        -3.1353955912        5.5397044045        5.0224981278
 Ga        -3.1458573514        7.3630510020        5.8120104381
  N        -3.1376681923        7.3850063823        7.7999441929
 Ga        -3.1380590216        5.5393477049        8.4521729248
  N        -3.1364461810        5.5407587318       10.4203729272
 Ga        -3.1380210672        7.3811434111       11.0736513108
  N        -3.1362679254        7.3605561794       13.0629751535
 Ga        -3.1335418187        5.5415290356       13.8695631289
  N        -3.1412821582        5.5390761808       16.0648747166
 Ga        -3.1391899488        7.5932682315       16.4911209755
 Ga        -3.1312589896        9.2460208465        1.4849541962
  N        -4.6320606479       10.1178574268        2.5083896167
 Ga        -4.8536151647        8.2719588558        3.2881675688
  N        -4.7466353247        8.3255294448        5.2490332160
 Ga        -4.7732869145       10.1987468832        5.7999507230
  N        -4.7555123726       10.1885000215        7.7943225292
 Ga        -4.7381111027        8.3324360175        8.4393115321
  N        -4.7337125137        8.3332772208       10.4285437403
 Ga        -4.7606974373       10.1914623703       11.0757569208
  N        -4.7766481002       10.2009356759       13.0661777454
 Ga        -4.7341350375        8.3313206034       13.6258622591
  N        -4.7629223834        8.3138816574       15.5827741752
 Ga        -4.5829017649       10.0877406538       16.4906481084
  N        -3.1396089124        9.2596652786       17.6182471209
  N         3.2908134910        1.8273986703        2.6114626796
 Ga         3.2891364817        0.0869934568        3.2868492639
  N         3.2951824846       -0.0309047688        5.2487416570
 Ga         3.2888402992        1.8279660228        5.8734321393
  N         3.2936208242        1.8264049239        7.8465362625
 Ga         3.2929704213       -0.0406455652        8.4412093016
  N         3.2945735710       -0.0430826795       10.4303188450
 Ga         3.2951645177        1.8262736831       11.0289374391
  N         3.2946583866        1.8258815297       12.9956783397
 Ga         3.2961522090       -0.0431652013       13.6270193335
  N         3.2953323784       -0.0081413867       15.5853523643
 Ga         3.2949369479        1.8280454010       15.8608108964
  N         1.5852839619        4.5592158561        2.5335320834
 Ga         1.7705585072        2.7073202948        3.2622300338
  N         1.6834779492        2.7551793089        5.2399011962
 Ga         1.7218872401        4.6191067140        5.8130605765
  N         1.6974150887        4.6160755503        7.8021631567
 Ga         1.6772190768        2.7581350110        8.4447414351
  N         1.6759477884        2.7607172431       10.4325891304
 Ga         1.7026107633        4.6197505853       11.0735858513
  N         1.7193463486        4.6306405345       13.0627833899
 Ga         1.6765019853        2.7613431960       13.6256014412
  N         1.7016207197        2.7436341358       15.5823967090
 Ga         1.5249777869        4.5126626427       16.4908929025
  N         0.0781997140        7.3999321796        2.7530197554
 Ga         0.0850524610        5.5787817636        3.3347327447
  N         0.0801488081        5.5398096260        5.2713199511
 Ga         0.0842172813        7.3953807175        5.8926940622
  N         0.0808855865        7.3962308216        7.8534431276
 Ga         0.0797944972        5.5265683274        8.4472279132
  N         0.0794080637        5.5276743266       10.4327012974
 Ga         0.0800286497        7.3979600688       11.0315927872
  N         0.0797251551        7.3972826458       12.9987006417
 Ga         0.0798209750        5.5270039077       13.6272415738
  N         0.0797502686        5.5555636861       15.5875672409
 Ga         0.0803713993        7.3953336397       15.8666771995
  N        -1.6356343534       10.1150504267        2.5317189892
 Ga        -1.4870260667        8.3005997547        3.3437013247
  N        -1.5256921830        8.3224475509        5.2735471194
 Ga        -1.5042071837       10.2050409822        5.8127037620
  N        -1.5192407649       10.1881196744        7.8005097745
 Ga        -1.5396016731        8.3313667970        8.4445068191
  N        -1.5399340108        8.3319510933       10.4306503985
 Ga        -1.5146632175       10.1915324195       11.0738133175
  N        -1.4959424876       10.2007472813       13.0633901158
 Ga        -1.5398909230        8.3322321154       13.6268377673
  N        -1.5113948116        8.3143360037       15.5856463316
 Ga        -1.6959932871       10.0876768291       16.4904440237
  N         6.5105916996        1.9483698878        2.5356681057
 Ga         6.5205521601       -0.0342171121        2.8586773088
  N         6.5101414512       -0.0323229741        5.0202490355
 Ga         6.5102505821        1.7980809272        5.8049663732
  N         6.5110555259        1.8143511341        7.7980952202
 Ga         6.5134861303       -0.0305685074        8.4492649340
  N         6.5122367985       -0.0314696461       10.4184015043
 Ga         6.5123877251        1.8091699777       11.0691727171
  N         6.5120851076        1.7888898417       13.0587855635
 Ga         6.5125345061       -0.0322298001       13.8708632846
  N         6.5122235912       -0.0242817978       16.0656329994
 Ga         6.5123295415        2.0052478300       16.4674920774
 Ga         6.5127829081        3.6802005696        1.5237542372
  N         5.0105474812        4.5475752601        2.5290149538
 Ga         4.7956179422        2.6968458875        3.2971688976
  N         4.9003180877        2.7539522177        5.2561306277
 Ga         4.8773365876        4.6265360951        5.8048487185
  N         4.8936386336        4.6173881902        7.7985029602
 Ga         4.9120187925        2.7597400232        8.4403590198
  N         4.9142341502        2.7613294762       10.4304571521
 Ga         4.8891401147        4.6212838049       11.0698312677
  N         4.8714437211        4.6310008953       13.0601005148
 Ga         4.9136764104        2.7601344249       13.6140376037
  N         4.8896728087        2.7444613432       15.5724717748
 Ga         5.0548763316        4.5230805577       16.4675700878
  N         6.5120922129        3.6900885128       17.6169742833
  N         3.2952982124        7.5203985468        2.5194077506
  N         3.2934202630        5.5388496303        5.0225606047
 Ga         3.3022128279        7.3655363471        5.8007419437
  N         3.2946769278        7.3867027968        7.7931583015
 Ga         3.2966631230        5.5417068950        8.4497600951
  N         3.2953176302        5.5415049363       10.4190978644
 Ga         3.2975971539        7.3815257791       11.0731329184
  N         3.2958460941        7.3607166146       13.0624984102
 Ga         3.2931474643        5.5421812224       13.8699120598
  N         3.3009823710        5.5392520411       16.0652192154
 Ga         3.2988511619        7.5943935187       16.4926288322
 Ga         3.2872357125        9.2485318908        1.3759171207
  N         1.7899092807       10.1205907107        2.5145667187
 Ga         1.6645342233        8.3098503052        3.3103741216
  N         1.6829913269        8.3214470322        5.2530698144
 Ga         1.6648087379       10.2006713435        5.8020733409
  N         1.6778313860       10.1859009134        7.7934765832
 Ga         1.6999756281        8.3320568111        8.4444897398
  N         1.6994944046        8.3324786825       10.4305651944
 Ga         1.6748014551       10.1919535065       11.0733763192
  N         1.6558658521       10.2007444127       13.0628316109
 Ga         1.6995445197        8.3322553846       13.6266192357
  N         1.6714615406        8.3145885908       15.5850954948
 Ga         1.8568306901       10.0870556010       16.4915481339
  N         3.2990580333        9.2597778405       17.6207350450
  N         9.7310795848        1.8238280328        2.6160933398
 Ga         9.7279396162        0.0669320130        3.2627107940
  N         9.7271979247       -0.0341256815        5.2371824488
 Ga         9.7316936487        1.8199504863        5.8687620425
  N         9.7285388895        1.8247503600        7.8434911206
 Ga         9.7297459263       -0.0423403409        8.4356576706
  N         9.7286814888       -0.0435095309       10.4267418255
 Ga         9.7288190126        1.8256372381       11.0263714445
  N         9.7291715118        1.8256499008       12.9936916239
 Ga         9.7280854534       -0.0429806882       13.6266177873
  N         9.7288062515       -0.0081857743       15.5846326157
 Ga         9.7294680430        1.8276702287       15.8606679019
  N         8.0120886788        4.5479341182        2.5345131524
 Ga         8.2260388802        2.6915034416        3.2991296950
  N         8.1210001867        2.7530109370        5.2572112049
 Ga         8.1423223642        4.6254235467        5.8040518463
  N         8.1296876536        4.6177901613        7.7974078746
 Ga         8.1116158900        2.7591964612        8.4375653009
  N         8.1095389782        2.7612829401       10.4285104867
 Ga         8.1341011710        4.6203440811       11.0699552662
  N         8.1523600590        4.6307548655       13.0599934374
 Ga         8.1106941097        2.7599119173       13.6136244517
  N         8.1348374868        2.7444392398       15.5721026506
 Ga         7.9693219231        4.5227340378       16.4674357341
  N         6.5076363936        7.3985020628        2.6082639545
 Ga         6.5064932836        5.6612706799        3.2951639956
  N         6.5103311156        5.5427996090        5.2542707626
 Ga         6.5051269954        7.4012909934        5.8724643535
  N         6.5100860843        7.3980497709        7.8445960236
 Ga         6.5115369267        5.5305881254        8.4392104581
  N         6.5119057005        5.5289555275       10.4293756327
 Ga         6.5114449769        7.3994233325       11.0264102855
  N         6.5117380143        7.3987603593       12.9930106152
 Ga         6.5120177537        5.5303814712       13.6150325425
  N         6.5123086926        5.5573770660       15.5754287134
 Ga         6.5119221480        7.3965419796       15.8657670616
  N         4.7936349131       10.1202945148        2.4899859770
 Ga         4.9870485786        8.2761392022        3.2622276294
  N         4.9020534234        8.3269884926        5.2368905744
 Ga         4.9281908907       10.1966128595        5.7924811139
  N         4.9140689373       10.1883162035        7.7899727014
 Ga         4.8938389022        8.3335607774        8.4365062629
  N         4.8925401466        8.3332881856       10.4268618776
 Ga         4.9185417699       10.1911415748       11.0744750344
  N         4.9358608579       10.2008798396       13.0651222099
 Ga         4.8932678315        8.3317128759       13.6261608131
  N         4.9226332314        8.3140867863       15.5827442314
 Ga         4.7411204795       10.0872979191       16.4919690657
 Ga         3.2928021968        5.5483335469        2.8516880682
  O         0.0753181931        6.9723212290        0.2112358993
  H         0.0664821085        7.2803410000        1.6413789335
  C         1.1764306646        7.5322362151       -0.4038271048
  H         1.2514131639        8.6482780718       -0.2480922154
  H         2.1484827066        7.1176504313       -0.0459029247
  H         1.1494116408        7.4072979779       -1.5007834086
     206
 i =        3, E =     -8480.5393404572
  N         0.0778738193        1.9692584899        2.4791628973
 Ga         0.0719645016       -0.0234109855        2.8215004795
  N         0.0788579076       -0.0282201392        5.0045340228
 Ga         0.0800958227        1.7966305838        5.8005527773
  N         0.0798680248        1.8148836702        7.7943436202
 Ga         0.0784125627       -0.0311879816        8.4487467047
  N         0.0791377344       -0.0309573527       10.4184401108
 Ga         0.0792629550        1.8079948208       11.0758868148
  N         0.0796515384        1.7891899280       13.0638415893
 Ga         0.0795011876       -0.0296666468       13.8804880226
  N         0.0796698998       -0.0317123975       16.0710190447
 Ga         0.0796397163        2.0137234227       16.4881331036
 Ga         0.0734409792        3.7604764754        1.4206102899
  N        -1.4246222134        4.5619946361        2.5403505584
 Ga        -1.6161602377        2.6971642844        3.2711193649
  N        -1.5268326405        2.7533520303        5.2410490474
 Ga        -1.5618026424        4.6178854687        5.8127160335
  N        -1.5389320017        4.6165994989        7.7997647496
 Ga        -1.5194890319        2.7571922425        8.4418775208
  N        -1.5166632018        2.7614010987       10.4292980462
 Ga        -1.5434311280        4.6199891822       11.0754363798
  N        -1.5598395443        4.6304623249       13.0639297879
 Ga        -1.5172243938        2.7605728548       13.6250956914
  N        -1.5410173900        2.7436117305       15.5827109646
 Ga        -1.3682101997        4.5157415877       16.4870491524
  N         0.0795851320        3.6874358557       17.6299246396
  N        -3.1336141756        7.5227875606        2.5367664765
 Ga        -3.1390624958        5.5405990446        2.8627987253
  N        -3.1364117392        5.5407514604        5.0228331339
 Ga        -3.1464989632        7.3639868350        5.8143083154
  N        -3.1378598413        7.3854046773        7.8004704557
 Ga        -3.1381616819        5.5394257279        8.4528380599
  N        -3.1361280976        5.5408804325       10.4193936340
 Ga        -3.1373668091        7.3808450576       11.0749243152
  N        -3.1361864004        7.3605955427       13.0634899178
 Ga        -3.1369822520        5.5401047350       13.8729717261
  N        -3.1409192302        5.5395215732       16.0652627325
 Ga        -3.1388916053        7.5940417887       16.4890516562
 Ga        -3.1294359364        9.2446274961        1.4791761338
  N        -4.6340783525       10.1186181509        2.5067150959
 Ga        -4.8511628006        8.2736202301        3.2867443079
  N        -4.7466968236        8.3259695376        5.2481762573
 Ga        -4.7732734014       10.1987912740        5.8002313424
  N        -4.7551811609       10.1882963067        7.7933090854
 Ga        -4.7380630251        8.3324554135        8.4411589615
  N        -4.7332209479        8.3332051487       10.4284833264
 Ga        -4.7602846063       10.1913207117       11.0764615304