     156
 i =        1, E =     -6136.6034312133
 Ga        -0.0031984430       -0.0157335377       -0.5336483642
  N        -0.0002913872        1.8585795751        0.6062564715
 Ga        -0.0003457536        1.8278255195        2.6379703026
  N        -0.0034284553       -0.0156334836        3.2694744433
 Ga        -0.0021986591       -0.0150496260        5.2602669816
  N         0.0008051299        1.8595725847        5.8482904079
 Ga         0.0022129400        1.8581559262        7.8481874087
  N         0.0007913702       -0.0150849666        8.4504092831
 Ga         0.0039271975       -0.0152387984       10.4496794852
  N         0.0041420833        1.8599367799       11.0445322605
 Ga         0.0093275422        1.8629890847       13.0364630636
  N         0.0159569738       -0.0103820430       13.6280077039
 Ga         0.0285749522       -0.0071546545       15.6181779782
  N         0.0127698030        1.8566860093       16.2252647011
 Ga         0.0444565872        1.8433598426       18.2890459052
  N         0.0522607710       -0.0333658265       18.7079272177
 Ga        -1.6232279277        2.7901663648        0.3242973585
  N        -1.6246809884        4.6598226918        0.6069664115
 Ga        -1.5957559464        4.6757311094        2.6367559716
  N        -1.6229032168        2.7899080914        3.2282238503
 Ga        -1.6217300757        2.7906130969        5.2398527904
  N        -1.6212922253        4.6609258980        5.8465812765
 Ga        -1.6191504411        4.6613813135        7.8452073549
  N        -1.6203671314        2.7917947886        8.4509160800
 Ga        -1.6189488159        2.7952071315       10.4470069380
  N        -1.6173722921        4.6668176457       11.0553115751
 Ga        -1.6178427134        4.6714118621       13.0523690893
  N        -1.6096313290        2.8009465586       13.6535889709
 Ga        -1.5945364367        2.8148200879       15.6561002277
  N        -1.5865998062        4.6819973678       16.3074894936
 Ga        -1.5131048634        4.6785541433       18.3838493050
  N        -1.4627906432        2.8268334467       19.0172612122
 Ga        -3.2435764063        5.5952569251        0.3242285735
  N        -3.2373222608        7.4661032771        0.6064679070
 Ga        -3.2644045967        7.4808318850        2.6380746857
  N        -3.2426879340        5.5953269656        3.2285510771
 Ga        -3.2418965096        5.5960232190        5.2400215724
  N        -3.2358508133        7.4662957373        5.8470310124
 Ga        -3.2359073073        7.4670565386        7.8461080892
  N        -3.2398979552        5.5961591155        8.4492345148
 Ga        -3.2386486255        5.5972331989       10.4445607734
  N        -3.2307749927        7.4657470441       11.0554144319
 Ga        -3.2220906176        7.4629087195       13.0531649909
  N        -3.2329926977        5.5990774477       13.6952168647
 Ga        -3.2218819945        5.5931948081       15.7311087729
  N        -3.2146240884        7.4810489105       16.2611780800
 Ga        -3.1811588430        7.4511527559       18.3200188096
  N        -3.1601534203        5.5890430190       18.8543516869
 Ga         3.2428704501       -0.0154120022        0.3245684639
  N         3.2410866699        1.8546110956        0.6063935875
 Ga         3.2695073719        1.8704128047        2.6370890694
  N         3.2425645654       -0.0154637373        3.2282017373
 Ga         3.2439720339       -0.0146702251        5.2398887636
  N         3.2445822906        1.8554880037        5.8475386043
 Ga         3.2469595513        1.8562226774        7.8469291503
  N         3.2449147565       -0.0147766060        8.4495589997
 Ga         3.2477501843       -0.0140656155       10.4450088453
  N         3.2512155420        1.8568111030       11.0510638465
 Ga         3.2575648879        1.8537112131       13.0481394233
  N         3.2566544317       -0.0169303874       13.6606717864
 Ga         3.2742479178       -0.0173110665       15.6662153990
  N         3.2811004502        1.8612924163       16.2204051769
 Ga         3.3162166462        1.8601644273       18.2456065176
  N         3.3131243991       -0.0289425953       18.7024721952
 Ga         1.6222713805        2.7908667180        0.3241955660
  N         1.6291462151        4.6604626215        0.6072477834
 Ga         1.6011666234        4.6758556703        2.6370747110
  N         1.6226570714        2.7900584085        3.2289602519
 Ga         1.6241921201        2.7909364546        5.2408518732
  N         1.6297046110        4.6611638867        5.8484656417
 Ga         1.6300477029        4.6614416940        7.8482356813
  N         1.6260103480        2.7902702989        8.4493639096
 Ga         1.6291250196        2.7915478979       10.4448411533
  N         1.6276053269        4.6623002191       11.0486017420
 Ga         1.6288746381        4.6631022249       13.0432015652
  N         1.6327057554        2.7878814223       13.6461527417
 Ga         1.6446347587        2.7782667475       15.6405885837
  N         1.6331659790        4.6647998889       16.1834823619
 Ga         1.6767674339        4.6404907465       18.1829443675
  N         1.6838665730        2.7772754417       18.6467944118
 Ga         0.0031011779        5.5957638021       -0.5476333005
  N         0.0059396856        7.4706174214        0.6069375034
 Ga         0.0060463943        7.4383372153        2.6368474997
  N         0.0029958584        5.5951906230        3.2695320548
 Ga         0.0046628447        5.5961897222        5.2597229971
  N         0.0074464913        7.4706990339        5.8477645170
 Ga         0.0088079740        7.4692910498        7.8471772056
  N         0.0049260314        5.5957361851        8.4470700573
 Ga         0.0064318402        5.5971514970       10.4441081520
  N         0.0116655846        7.4692019628       11.0460642630
 Ga         0.0139884803        7.4711224125       13.0386268635
  N         0.0067581670        5.6018371583       13.6475513735
 Ga         0.0039958905        5.6023976909       15.6426968130
  N         0.0341637934        7.4608731412       16.2766764507
 Ga         0.0825994228        7.4286358956       18.3610340251
  N         0.1404772281        5.5768226379       18.9085033370
 Ga         6.4869616357       -0.0149760188        0.3237938806
  N         6.4936817126        1.8550609189        0.6060396714
 Ga         6.4661608871        1.8702367465        2.6368716431
  N         6.4882474502       -0.0154070628        3.2287819059
 Ga         6.4897418389       -0.0146924328        5.2407230543
  N         6.4945195804        1.8558484283        5.8479629527
 Ga         6.4945270984        1.8569274893        7.8474859563
  N         6.4909424044       -0.0136681629        8.4510328712
 Ga         6.4943280286       -0.0113323984       10.4474534712
  N         6.4967679440        1.8609513674       11.0528368450
 Ga         6.5001471610        1.8659757995       13.0498837022
  N         6.4898967758       -0.0079238964       13.6399582612
 Ga         6.5043991873        0.0008680714       15.6429095978
  N         6.5224749150        1.8777105255       16.2350157836
 Ga         6.6566988250        1.9248264628       18.2967720067
  N         6.5630395330       -0.0013580504       18.6488631441
 Ga         4.8675567608        2.7916316724       -0.5416994921
  N         4.8709616334        4.6647998174        0.6069227435
 Ga         4.8708013603        4.6333778635        2.6373393850
  N         4.8682788413        2.7899377144        3.2691686117
 Ga         4.8695463211        2.7911157045        5.2594624623
  N         4.8721478631        4.6652194556        5.8481336364
 Ga         4.8728270891        4.6639565117        7.8477319803
  N         4.8708929427        2.7913913692        8.4502856466
 Ga         4.8736871228        2.7952785868       10.4496898140
  N         4.8797508263        4.6661503170       11.0585158862
 Ga         4.8832589537        4.6703183691       13.0610860774
  N         4.8746762080        2.7953359563       13.6515643118
 Ga         4.8852555344        2.8006473593       15.6642061860
  N         4.8661251223        4.6727420090       16.1744498388
 Ga         4.9292540428        4.6591333622       19.0948976404
  N         4.9548785901        2.7702640342       18.7381510977
 Ga         3.2487054005        5.5947575854        0.3237588187
  N         3.2479443464        7.4655068177        0.6059303093
 Ga         3.2756446982        7.4806958090        2.6376012615
  N         3.2485860060        5.5955682337        3.2289534250
 Ga         3.2499602932        5.5963745306        5.2405876439
  N         3.2504649203        7.4661667696        5.8493963942
 Ga         3.2531804705        7.4666826754        7.8496469819
  N         3.2514121685        5.5959718024        8.4547429795
 Ga         3.2549060837        5.5974678760       10.4536230538
  N         3.2566610011        7.4713187729       11.0516423112
 Ga         3.2585869935        7.4718422847       13.0487710857
  N         3.2487495198        5.5960375780       13.6323209163
 Ga         3.2601575163        5.6061571919       15.6384572010
  N         3.2811306733        7.4895361538       16.1554782091
 Ga         3.3266469908        7.4959091874       18.1709055694
  N         3.3572770161        5.5732531499       18.4702525022
  O         1.5524314317        5.0320734117       21.2546965732
  H         0.9929920697        5.3933137572       20.4867621923
  C         0.7594087973        3.9393946618       21.7957915983
  H         0.0316971159        3.5233871127       21.0064884958
  H         1.5320721524        3.2342642689       22.1793070362
  H         0.3368847898        4.3636163747       22.7396831429
  O         4.2312452635        4.7164628221       21.0756781486
  H         3.2214589750        4.8672286986       21.0754578105
  C         4.5516683507        3.5969496516       21.9427834684
  H         4.1180042224        2.6626123632       21.5598235600
  H         5.6437328599        3.5041853738       21.9648998217
  H         4.1787781861        3.8120224117       22.9522780789
     156
 i =        2, E =     -6136.6385138810
 Ga        -0.0031879005       -0.0157699276       -0.5374139819
  N        -0.0002561367        1.8586328486        0.6073233798
 Ga        -0.0002832756        1.8279174842        2.6382236407
  N        -0.0033713023       -0.0155817085        3.2697712581
 Ga        -0.0021286622       -0.0150554444        5.2601761615
  N         0.0008633954        1.8596973476        5.8484377749
 Ga         0.0021924734        1.8582480079        7.8483728315
  N         0.0009442689       -0.0151169811        8.4512222793
 Ga         0.0039319894       -0.0154066551       10.4507453026
  N         0.0042228350        1.8601679805       11.0432547022
 Ga         0.0102301781        1.8620194761       13.0342012188
  N         0.0158430926       -0.0092252148       13.6289829699
 Ga         0.0290395574       -0.0133220959       15.6206087900
  N         0.0169828965        1.8576887140       16.2394597229
 Ga         0.0525180771        1.8578424285       18.3133499098
  N         0.0471036567       -0.0296553699       18.6899294446
 Ga        -1.6229131246        2.7899840941        0.3234205262
  N        -1.6248971884        4.6596563607        0.6071462698
 Ga        -1.5958023862        4.6756770331        2.6368155353
  N        -1.6230108655        2.7897793759        3.2283287034
 Ga        -1.6217779896        2.7906205125        5.2396521986
  N        -1.6212701906        4.6608747325        5.8464736031
 Ga        -1.6191608667        4.6615625158        7.8450855260
  N        -1.6204487787        2.7920071239        8.4520461459
 Ga        -1.6191456889        2.7955629067       10.4481434021
  N        -1.6177399191        4.6671431206       11.0553284187
 Ga        -1.6167143847        4.6709705080       13.0519401605
  N        -1.6085938203        2.7995616142       13.6500519085
 Ga        -1.5906611306        2.8184532898       15.6488991942
  N        -1.5882197955        4.6779837067       16.3177466470
 Ga        -1.5026093434        4.6680736812       18.3953116859
  N        -1.3880854314        2.8538166574       19.2196452972
 Ga        -3.2435355417        5.5955689609        0.3233823578
  N        -3.2372045210        7.4660686762        0.6075922639
 Ga        -3.2642784947        7.4807380017        2.6384502445
  N        -3.2427948168        5.5951743388        3.2287545986
 Ga        -3.2419340407        5.5960222111        5.2399690964
  N        -3.2357247017        7.4663635162        5.8469513307
 Ga        -3.2357626986        7.4669675554        7.8459618626
  N        -3.2398894301        5.5961663794        8.4496380694
 Ga        -3.2385430957        5.5971021829       10.4446114618
  N        -3.2307491919        7.4651318480       11.0553399053
 Ga        -3.2220540149        7.4637924688       13.0538470816
  N        -3.2351751891        5.5960554973       13.6887309014
 Ga        -3.2178532530        5.5932081899       15.7257243881
  N        -3.2114799079        7.4766439713       16.2701141589
 Ga        -3.1810134955        7.4477472319       18.3255222167
  N        -3.1597143691        5.5806528749       18.8381877593
 Ga         3.2426491812       -0.0155651077        0.3237165429
  N         3.2412972650        1.8547267734        0.6065596227
 Ga         3.2696178331        1.8704420978        2.6372626660
  N         3.2426328524       -0.0152531254        3.2283013678
 Ga         3.2440248930       -0.0145563837        5.2396807048
  N         3.2446508225        1.8555441748        5.8474338930
 Ga         3.2472939156        1.8563051635        7.8466618481
  N         3.2448604905       -0.0145849909        8.4504852588
 Ga         3.2478738226       -0.0142804438       10.4462506620
  N         3.2523297776        1.8572898453       11.0510757130
 Ga         3.2587631712        1.8539440628       13.0484402955
  N         3.2568561803       -0.0160421696       13.6597191514
 Ga         3.2723418954       -0.0215543310       15.6669672991
  N         3.2776095188        1.8558071309       16.2292086844
 Ga         3.3455038842        1.8533523054       18.2546213823
  N         3.3058249001       -0.0252790985       18.7212096806
 Ga         1.6220247968        2.7906992470        0.3233787021
  N         1.6294293444        4.6602927870        0.6074515467
 Ga         1.6013175383        4.6757654564        2.6371170940
  N         1.6228794565        2.7899307364        3.2290684330
 Ga         1.6243420152        2.7909092737        5.2406119070
  N         1.6298145527        4.6611306879        5.8482799177
 Ga         1.6302703676        4.6617591766        7.8481335534
  N         1.6263031465        2.7903929403        8.4503636536
 Ga         1.6294136601        2.7921079518       10.4461501815
  N         1.6274563007        4.6628994066       11.0491759793
 Ga         1.6297829862        4.6644774128       13.0451791751
  N         1.6327814794        2.7875124000       13.6432271406
 Ga         1.6461617434        2.7856068645       15.6375601335
  N         1.6268503125        4.6639156242       16.1880563592
 Ga         1.6770725644        4.6451393089       18.1855586891
  N         1.7089281637        2.7799710485       18.6225354412
 Ga         0.0031929262        5.5957459032       -0.5474715981
  N         0.0059677606        7.4708806097        0.6071779799
 Ga         0.0060951875        7.4384360733        2.6369543058
  N         0.0030699706        5.5951707289        3.2695301610
 Ga         0.0046815150        5.5962374712        5.2595633754
  N         0.0074511496        7.4707938263        5.8477461729
 Ga         0.0089302840        7.4693591920        7.8473022749
  N         0.0049335314        5.5956400891        8.4477949420
 Ga         0.0061886027        5.5972046863       10.4450860287
  N         0.0120024997        7.4691976240       11.0454693713
 Ga         0.0150257848        7.4717914948       13.0384213981
  N         0.0053631418        5.6021877867       13.6431310410
 Ga         0.0029541321        5.5999441986       15.6400598957
  N         0.0402108485        7.4610477359       16.2746424024
 Ga         0.0815296121        7.4513790570       18.3594667159
  N         0.1433209316        5.5968826992       18.8933628905
 Ga         6.4872477661       -0.0151377883        0.3229607583
  N         6.4935213807        1.8551691981        0.6062073970
 Ga         6.4661297950        1.8702559022        2.6370533118
  N         6.4882631367       -0.0151997258        3.2289998423
 Ga         6.4898006263       -0.0145403371        5.2407060146
  N         6.4946024595        1.8559696899        5.8480147882
 Ga         6.4944727053        1.8569564095        7.8474488176
  N         6.4910087477       -0.0134681026        8.4515881716
 Ga         6.4942657738       -0.0110060126       10.4480413295
  N         6.4963359093        1.8613012359       11.0516794801
 Ga         6.5012687538        1.8649028685       13.0477972209
  N         6.4901819483       -0.0052497114       13.6421363886
 Ga         6.5070103688        0.0082877947       15.6478404438
  N         6.5380429891        1.8850131548       16.2685589914
 Ga         6.7194068770        1.9599418859       18.3482730201
  N         6.5726790227        0.0143405746       18.6523607966
 Ga         4.8676031848        2.7915445881       -0.5398301388
  N         4.8710085977        4.6645283495        0.6071034298
 Ga         4.8708421425        4.6333022636        2.6375727521
  N         4.8683122757        2.7899104096        3.2692701869
 Ga         4.8696434743        2.7911774824        5.2593927898
  N         4.8722449444        4.6651849205        5.8480865985
 Ga         4.8728759880        4.6640178835        7.8475521341
  N         4.8709815276        2.7915442298        8.4503727370
 Ga         4.8741786206        2.7955413003       10.4490091283
  N         4.8802939152        4.6656176265       11.0574468506
 Ga         4.8794511160        4.6702348884       13.0594072765
  N         4.8782447419        2.7961354539       13.6602748114
 Ga         4.8928098670        2.7956197280       15.6798555200
  N         4.8666708820        4.6747624770       16.1638485309
 Ga         4.9311521083        4.6600337749       19.1041588866
  N         4.9786239196        2.7816489204       18.7307441512
 Ga         3.2487342901        5.5950363082        0.3229428160
  N         3.2478861902        7.4654478187        0.6071153276
 Ga         3.2756040086        7.4806074874        2.6380261191
  N         3.2487609939        5.5953982905        3.2291387803
 Ga         3.2501929814        5.5963587694        5.2405018883
  N         3.2505198171        7.4661731446        5.8493774841
 Ga         3.2530898960        7.4666097908        7.8497030488
  N         3.2516686765        5.5959366084        8.4558502241
 Ga         3.2550579582        5.5976828936       10.4552555680
  N         3.2562243863        7.4718056622       11.0506837162
 Ga         3.2580810097        7.4729736854       13.0485730419
  N         3.2496446590        5.5988907837       13.6316759907
 Ga         3.2534822625        5.6078682438       15.6386472096
  N         3.2803778202        7.4890222088       16.1556049337
 Ga         3.3224206831        7.4914340813       18.1672050607
  N         3.3642021526        5.5699248583       18.4718140301
  O         1.5508725300        5.0359657870       21.1997810782
  H         0.9811005998        5.4220287626       20.4650415486
  C         0.7561295949        3.9407048181       21.7471243114
  H        -0.0180307416        3.5017799324       20.9728894613
  H         1.4448805671        3.1589650876       22.1003987689
  H         0.2273359401        4.2969043896       22.6499509092
  O         4.2259434314        4.7185295718       21.0734853934
  H         3.2164648310        4.8570891723       21.0814312209
  C         4.5505274369        3.6002402457       21.9412385349
  H         4.1180603849        2.6646097654       21.5609415537
  H         5.6420965611        3.5040825140       21.9649923895
  H         4.1787658290        3.8101299764       22.9518568817
     156
 i =        3, E =     -6136.6427609011
 Ga        -0.0031878715       -0.0158416790       -0.5405313380
  N        -0.0002340201        1.8587726903        0.6074564976
 Ga        -0.0002605582        1.8278523643        2.6380084492
  N        -0.0033194675       -0.0156468271        3.2700964121
 Ga        -0.0021230451       -0.0149302606        5.2603471924
  N         0.0009050832        1.8597458669        5.8490246194
 Ga         0.0024413011        1.8584351728        7.8487410993
  N         0.0009193734       -0.0148683028        8.4503613325
 Ga         0.0037925122       -0.0151464392       10.4489823342
  N         0.0044692136        1.8601890225       11.0426490573
 Ga         0.0123479894        1.8616564756       13.0325950802
  N         0.0155400707       -0.0077763273       13.6363668879
 Ga         0.0328934735       -0.0119672173       15.6299880967
  N         0.0162653460        1.8628444862       16.2492972862
 Ga         0.0617254021        1.8691823807       18.3292621317
  N         0.0480659377       -0.0234652722       18.6802556878
 Ga        -1.6226884070        2.7898397777        0.3235671550
  N        -1.6249786365        4.6595887135        0.6067235322
 Ga        -1.5958096152        4.6756370966        2.6365464595
  N        -1.6230247369        2.7898671053        3.2285095892
 Ga        -1.6216403934        2.7906682615        5.2398252207
  N        -1.6211439039        4.6609759038        5.8469251748
 Ga        -1.6188050872        4.6614996236        7.8454184442
  N        -1.6202164352        2.7919925950        8.4512653477
 Ga        -1.6188358294        2.7952250674       10.4463319753
  N        -1.6176587751        4.6664695675       11.0531655568
 Ga        -1.6169049995        4.6704725285       13.0487264922
  N        -1.6074425627        2.7978846828       13.6510012914
 Ga        -1.5897757196        2.8171447846       15.6463080692
  N        -1.5864493982        4.6713400304       16.3248131978
 Ga        -1.4948539859        4.6613082185       18.4069566917
  N        -1.3905275655        2.8474499943       19.2068360064
 Ga        -3.2435220339        5.5958141428        0.3235334276
  N        -3.2370221923        7.4659696728        0.6077048707
 Ga        -3.2642542788        7.4807420335        2.6381642498
  N        -3.2427193418        5.5950972975        3.2287855520
 Ga        -3.2417773221        5.5960357420        5.2399220421
  N        -3.2356730982        7.4663727618        5.8474010126
 Ga        -3.2357787269        7.4672789840        7.8463415606
  N        -3.2397221940        5.5962481496        8.4496109180
 Ga        -3.2390508603        5.5970545343       10.4446581334
  N        -3.2312628924        7.4657106590       11.0550460475
 Ga        -3.2219756419        7.4644536055       13.0538524073
  N        -3.2341594662        5.5956351228       13.6900613207
 Ga        -3.2160518768        5.5901072499       15.7288499395
  N        -3.2074059424        7.4711881593       16.2772495051
 Ga        -3.1793334840        7.4463830911       18.3325107988
  N        -3.1576976047        5.5763859389       18.8311994597
 Ga         3.2424585680       -0.0157046913        0.3238967393
  N         3.2414898246        1.8547976284        0.6060815436
 Ga         3.2695967422        1.8703762294        2.6371434924
  N         3.2427745687       -0.0152974233        3.2284054963
 Ga         3.2441332461       -0.0145436916        5.2397416167
  N         3.2447267176        1.8555644032        5.8479155616
 Ga         3.2469629894        1.8563859382        7.8470938282
  N         3.2449921577       -0.0145491434        8.4504426264
 Ga         3.2481248211       -0.0138383975       10.4460762444
  N         3.2521774131        1.8578204796       11.0521186169
 Ga         3.2602701878        1.8541162049       13.0496748428
  N         3.2560790618       -0.0156855298       13.6613302351
 Ga         3.2718190524       -0.0229818647       15.6694561566
  N         3.2840376036        1.8531124037       16.2375898727
 Ga         3.3622934058        1.8524092209       18.2622089259
  N         3.3040125170       -0.0191240990       18.7324832702
 Ga         1.6218528003        2.7905491487        0.3235122088
  N         1.6295943513        4.6602132453        0.6070837940
 Ga         1.6014170643        4.6757494483        2.6369197496
  N         1.6229784097        2.7899899844        3.2292750328
 Ga         1.6243258573        2.7910164725        5.2408682186
  N         1.6298275080        4.6612469401        5.8489197793
 Ga         1.6301935356        4.6616410380        7.8487148523
  N         1.6262482181        2.7904650532        8.4500074078
 Ga         1.6296931477        2.7922101009       10.4450218324
  N         1.6277742291        4.6625179181       11.0477699341
 Ga         1.6283109752        4.6647886086       13.0435285188
  N         1.6334678460        2.7878664694       13.6477643853
 Ga         1.6499432300        2.7842457911       15.6437571704
  N         1.6248970429        4.6616575782       16.1843185215
 Ga         1.6787957367        4.6474342013       18.1834074238
  N         1.7248965199        2.7840593238       18.6172721639
 Ga         0.0032391811        5.5957567161       -0.5457989692
  N         0.0060042030        7.4710020047        0.6067893675
 Ga         0.0061627051        7.4384829847        2.6366997485
  N         0.0030864352        5.5951791443        3.2693388913
 Ga         0.0048040073        5.5962425103        5.2595027336
  N         0.0075306261        7.4707600897        5.8482215214
 Ga         0.0089614901        7.4693089484        7.8476923000
  N         0.0050066452        5.5957573554        8.4477976166
 Ga         0.0066803963        5.5974971486       10.4449187112
  N         0.0121436351        7.4695326657       11.0470110529
 Ga         0.0166259959        7.4728599905       13.0415681443
  N         0.0032612047        5.6010706641       13.6439078462
 Ga         0.0035686794        5.6040098179       15.6427072490
  N         0.0426421637        7.4650787974       16.2681421912
 Ga         0.0769544893        7.4688901949       18.3436935740
  N         0.1481355730        5.6141669819       18.8784895338
 Ga         6.4875163442       -0.0152896248        0.3231440667
  N         6.4933993213        1.8552157234        0.6057147748
 Ga         6.4662765765        1.8701939097        2.6368899513
  N         6.4882051039       -0.0151874418        3.2291329182
 Ga         6.4898625407       -0.0145629471        5.2407723199
  N         6.4946865832        1.8559613061        5.8483842920
 Ga         6.4948100511        1.8569867831        7.8476825928
  N         6.4910153137       -0.0134113968        8.4511626675
 Ga         6.4942315763       -0.0108684342       10.4473589966
  N         6.4967839037        1.8618047834       11.0512526884
 Ga         6.4999001037        1.8657802080       13.0466476851
  N         6.4914528870       -0.0009417573       13.6471226529
 Ga         6.5072658429        0.0129373219       15.6548301870
  N         6.5491902231        1.8890728078       16.2923087658
 Ga         6.7063033165        1.9508802861       18.3757240978
  N         6.5789418561        0.0087969483       18.6494647136
 Ga         4.8676616582        2.7915268709       -0.5374862107
  N         4.8710516622        4.6643383360        0.6066178720
 Ga         4.8708942350        4.6333672111        2.6374102459
  N         4.8683900563        2.7899019432        3.2690850248
 Ga         4.8697193311        2.7911752376        5.2593320289
  N         4.8723195251        4.6652725053        5.8483693490
 Ga         4.8727631538        4.6642058176        7.8477719160
  N         4.8710883740        2.7914883891        8.4499125221
 Ga         4.8740347724        2.7953904278       10.4483320074
  N         4.8792872297        4.6653568175       11.0597902188
 Ga         4.8786586855        4.6677797546       13.0636579698
  N         4.8790483375        2.7937670520       13.6687994064
 Ga         4.9028540232        2.7936765926       15.6918920752
  N         4.8652340136        4.6753686486       16.1618260767
 Ga         4.9302182773        4.6649872239       19.1067000602
  N         4.9855390231        2.7931709408       18.7361209007
 Ga         3.2487976055        5.5952768128        0.3231133245
  N         3.2477764154        7.4653361120        0.6073112975
 Ga         3.2756394743        7.4806198261        2.6378171586
  N         3.2488094242        5.5953264415        3.2292441182
 Ga         3.2501174219        5.5963959434        5.2405643893
  N         3.2505623781        7.4661869695        5.8498701135
 Ga         3.2532164326        7.4667448597        7.8500672117
  N         3.2515638925        5.5961224753        8.4551516385
 Ga         3.2546492856        5.5980785837       10.4542077567
  N         3.2565343726        7.4723011878       11.0504621076
 Ga         3.2566080703        7.4750572426       13.0486622044
  N         3.2472796522        5.6008806446       13.6318316591
 Ga         3.2521175690        5.6100244623       15.6401180644
  N         3.2827669741        7.4916564860       16.1578575735
 Ga         3.3268193613        7.4902666700       18.1678567010
  N         3.3675974703        5.5713027735       18.4661793790
  O         1.5321795308        5.0091805291       21.2004110789
  H         0.9831687546        5.4289922403       20.4609426237
  C         0.7223124193        3.9177806016       21.7299194449