     206
 i =        1, E =     -8480.5253030138
  N         0.0269868876        2.0194860110        2.4563272097
 Ga         0.0016031766        0.0370406247        2.8103349471
  N         0.0234523639        0.0493322311        4.9704508158
 Ga         0.0177365518        1.8723768112        5.7539331820
  N         0.0229658966        1.8946215793        7.7459709642
 Ga         0.0204465117        0.0479257364        8.3972879414
  N         0.0206058933        0.0483692407       10.3692257013
 Ga         0.0204847918        1.8872446456       11.0232981507
  N         0.0196005732        1.8671241393       13.0159657843
 Ga         0.0177129801        0.0440708451       13.8200438454
  N         0.0220374159        0.0480559718       16.0203215437
 Ga         0.0238536195        2.0780509053       16.4202769683
 Ga         0.0182990631        3.7791501768        1.4270263225
  N        -1.4811954613        4.6266122061        2.4766439753
 Ga        -1.6823849436        2.7769895679        3.2387922383
  N        -1.5868566244        2.8319571562        5.2023655814
 Ga        -1.6158095653        4.7044272725        5.7533419402
  N        -1.5975988717        4.6942920531        7.7481650364
 Ga        -1.5779500976        2.8379071050        8.3902384478
  N        -1.5759632001        2.8387659849       10.3818714871
 Ga        -1.6024962480        4.6981107807       11.0214876828
  N        -1.6209059523        4.7086917727       13.0145494204
 Ga        -1.5781330493        2.8393619626       13.5706991906
  N        -1.6052473983        2.8239791042       15.5353617082
 Ga        -1.4327348340        4.6035942834       16.4200373868
  N         0.0212957802        3.7580404994       17.5501503891
  N        -3.1962084889        7.5994279832        2.4801460785
 Ga        -3.1942527815        5.6187200387        2.8024871909
  N        -3.1959573748        5.6176671331        4.9666349032
 Ga        -3.1961197472        7.4431468450        5.7525408209
  N        -3.1961569214        7.4646108177        7.7472592495
 Ga        -3.1963193401        5.6183254022        8.3973050471
  N        -3.1960758345        5.6180021377       10.3698121907
 Ga        -3.1963379038        7.4587110687       11.0212457318
  N        -3.1969491492        7.4385194275       13.0131077717
 Ga        -3.1997501994        5.6189502511       13.8160297594
  N        -3.1959752109        5.6195802057       16.0188191634
 Ga        -3.1924292374        7.6652504169       16.4340785347
 Ga        -3.1955723215        9.3143608727        1.4169731277
  N        -4.6996762416       10.2093644748        2.4602417089
 Ga        -4.9002901122        8.3485164075        3.2393469426
  N        -4.8028038074        8.4047623179        5.2023856316
 Ga        -4.8314137218       10.2742363898        5.7525287531
  N        -4.8108521608       10.2681377207        7.7449392288
 Ga        -4.7945470062        8.4097319096        8.3892092681
  N        -4.7934132978        8.4107490734       10.3805480727
 Ga        -4.8184611716       10.2691906523       11.0224307881
  N        -4.8365697291       10.2789245978       13.0136209324
 Ga        -4.7940622174        8.4100316018       13.5733702944
  N        -4.8211861760        8.3938362688       15.5347435212
 Ga        -4.6383900599       10.1683380040       16.4338671885
  N        -3.1939706754        9.3326078937       17.5705423028
  N         3.2346054518        1.9029419343        2.6008488436
 Ga         3.2365805661        0.1029185035        3.2574486025
  N         3.2364597608        0.0690693384        5.2010852759
 Ga         3.2361939012        1.9031283768        5.8710369947
  N         3.2357229182        1.9037777477        7.8225470649
 Ga         3.2362341596        0.0337028550        8.3966273146
  N         3.2363215292        0.0361950110       10.3833077760
 Ga         3.2359523348        1.9045971284       10.9789949115
  N         3.2359807239        1.9052188698       12.9468358440
 Ga         3.2352719442        0.0364367687       13.5720883867
  N         3.2362614641        0.0696969315       15.5305346876
 Ga         3.2374022159        1.9052645175       15.8178576604
  N         1.5098601932        4.6129216681        2.5011807031
 Ga         1.6753371974        2.8005510022        3.2616937575
  N         1.6467071647        2.8187719224        5.2043927210
 Ga         1.6578918244        4.7079803527        5.7492480732
  N         1.6368161284        4.6905546570        7.7469422759
 Ga         1.6161493811        2.8382955555        8.3979163373
  N         1.6175881215        2.8390121652       10.3849631104
 Ga         1.6430173881        4.6978105221       11.0236660641
  N         1.6604663291        4.7090403590       13.0162111779
 Ga         1.6178418340        2.8391162736       13.5680533717
  N         1.6465997996        2.8247534374       15.5296160038
 Ga         1.4767483229        4.6017939013       16.4207302790
  N         0.0158854810        7.4769639656        2.5694722345
 Ga         0.0164433356        5.7334085487        3.2414110641
  N         0.0187184675        5.6172281236        5.2042191625
 Ga         0.0192388342        7.4754470204        5.8281284796
  N         0.0190479541        7.4748634888        7.8003146828
 Ga         0.0193650993        5.6072292979        8.3906498394
  N         0.0210038285        5.6048415393       10.3824960095
 Ga         0.0197508903        7.4752069288       10.9781966803
  N         0.0203766628        7.4751791309       12.9479769764
 Ga         0.0194785641        5.6069346611       13.5690021100
  N         0.0210070228        5.6393290587       15.5312240484
 Ga         0.0215890068        7.4785749579       15.8184674861
  N        -1.6920055461       10.2094893280        2.4606605848
 Ga        -1.4924054977        8.3489006437        3.2405418850
  N        -1.5896170008        8.4049686530        5.2036406661
 Ga        -1.5604241356       10.2742228753        5.7529772692
  N        -1.5814598552       10.2679290131        7.7451162013
 Ga        -1.5978487539        8.4097868448        8.3898620166
  N        -1.5990938399        8.4110212447       10.3812678534
 Ga        -1.5736593197       10.2693595830       11.0241991065
  N        -1.5564127143       10.2794531570       13.0158794674
 Ga        -1.5991222163        8.4096228553       13.5714529245
  N        -1.5693462881        8.3935483330       15.5298740163
 Ga        -1.7493242514       10.1673787885       16.4348043800
  N         6.4463146609        2.0170036401        2.4576184491
 Ga         6.4727870016        0.0349609219        2.8111535497
  N         6.4493202003        0.0489816136        4.9705150937
 Ga         6.4549235297        1.8723000929        5.7538020230
  N         6.4498102099        1.8943261553        7.7457917838
 Ga         6.4514677168        0.0477126740        8.3976129674
  N         6.4512964133        0.0480170597       10.3695148401
 Ga         6.4516820536        1.8872721213       11.0240818342
  N         6.4516578776        1.8685513175       13.0156634798
 Ga         6.4539261692        0.0478754542       13.8249764179
  N         6.4480359772        0.0465489299       16.0218534778
 Ga         6.4538067621        2.0862802922       16.4359714065
 Ga         6.4591222389        3.7748321521        1.4293658720
  N         4.9674445974        4.6119875027        2.4994442760
 Ga         4.7962154663        2.7999732872        3.2594463691
  N         4.8255984723        2.8173959734        5.2030553146
 Ga         4.8153172554        4.7070773793        5.7481150454
  N         4.8351307903        4.6905365603        7.7461393271
 Ga         4.8561184130        2.8378861964        8.3970143879
  N         4.8543265439        2.8383777637       10.3838724827
 Ga         4.8296644744        4.6974653055       11.0227312069
  N         4.8125850800        4.7079342032       13.0136044972
 Ga         4.8539529059        2.8396649425       13.5747311737
  N         4.8279153032        2.8252517549       15.5352004105
 Ga         5.0074299977        4.5960656093       16.4358015313
  N         6.4506261257        3.7543736102       17.5739406353
  N         3.2307521563        7.6414549640        2.5358780181
 Ga         3.2372651230        5.6423586379        2.6645125586
  N         3.2366466078        5.6132784744        4.9255829820
 Ga         3.2360038625        7.4418711584        5.7467076167
  N         3.2359541360        7.4634443132        7.7476074076
 Ga         3.2359928783        5.6174089307        8.3980139081
  N         3.2358127736        5.6169419432       10.3707191601
 Ga         3.2360115683        7.4581261618       11.0231722116
  N         3.2357831054        7.4393665537       13.0148043193
 Ga         3.2391611746        5.6212556265       13.8208352887
  N         3.2337877861        5.6161374049       16.0200373805
 Ga         3.2379727326        7.6673087895       16.4490434174
 Ga         3.2402043482        9.3180410774        1.4232646957
  N         1.7458542468       10.1947114846        2.4727963761
 Ga         1.5218408276        8.3533558700        3.2461646823
  N         1.6243441933        8.4033935464        5.2072923758
 Ga         1.6041912548       10.2746716207        5.7512571016
  N         1.6170225645       10.2671071163        7.7466298872
 Ga         1.6369115845        8.4100368121        8.3898925415
  N         1.6387671949        8.4096444044       10.3818300493
 Ga         1.6132829673       10.2687501714       11.0237651692
  N         1.5966859271       10.2784008985       13.0158469334
 Ga         1.6389482612        8.4099768540       13.5793826715
  N         1.6138372628        8.3944150048       15.5394237325
 Ga         1.7944725115       10.1649964539       16.4495152567
  N         3.2333771350        9.3297486884       17.5883393097
  N         9.6691994978        1.9038867426        2.5687492152
 Ga         9.6690638913        0.1570720465        3.2417654342
  N         9.6685758043        0.0507119781        5.2045092241
 Ga         9.6687251965        1.9039648245        5.8290116989
  N         9.6687475341        1.9046536613        7.8005085721
 Ga         9.6682613385        0.0357751605        8.3890724571
  N         9.6682900111        0.0350164107       10.3807595587
 Ga         9.6682449951        1.9043235561       10.9783028227
  N         9.6684162421        1.9043568374       12.9487154026
 Ga         9.6684627126        0.0346788246       13.5791637545
  N         9.6704713516        0.0649264182       15.5387019011
 Ga         9.6660981248        1.9021404998       15.8169352383
  N         7.9564832332        4.6281853776        2.4766721447
 Ga         8.1560024703        2.7767599207        3.2385135979
  N         8.0599552544        2.8317405482        5.2020543748
 Ga         8.0887311490        4.7040918538        5.7535204817
  N         8.0700519996        4.6938749495        7.7479387085
 Ga         8.0505900878        2.8375442220        8.3900923100
  N         8.0483950515        2.8384260206       10.3812210779
 Ga         8.0741229875        4.6976904339       11.0211596760
  N         8.0909842391        4.7080315374       13.0124450069
 Ga         8.0493687158        2.8398627189       13.5737520360
  N         8.0777243279        2.8256519321       15.5334866555
 Ga         7.8968110919        4.5938465242       16.4364188215
  N         6.4538091640        7.4760853313        2.5692792860
 Ga         6.4576356361        5.7321536678        3.2435803627
  N         6.4547889699        5.6180859456        5.2056195912
 Ga         6.4530282194        7.4757509085        5.8284333903
  N         6.4529253436        7.4752297735        7.8000513206
 Ga         6.4529483700        5.6072053086        8.3893070327
  N         6.4513934840        5.6048621170       10.3806965133
 Ga         6.4518867173        7.4749166034       10.9779344743
  N         6.4516830817        7.4748877166       12.9481859672
 Ga         6.4519187228        5.6056522629       13.5738964867
  N         6.4536429101        5.6357323694       15.5342327011
 Ga         6.4499051943        7.4755577055       15.8143820773
  N         4.7296493302       10.1969499466        2.4763000901
 Ga         4.9468220484        8.3545043874        3.2454962870
  N         4.8479236780        8.4030684064        5.2065350878
 Ga         4.8684136450       10.2746496450        5.7509207703
  N         4.8551824210       10.2670484429        7.7463911750
 Ga         4.8349865449        8.4098591407        8.3894814035
  N         4.8329521243        8.4096748424       10.3811863426
 Ga         4.8585347401       10.2685306954       11.0227732543
  N         4.8748809235       10.2780994566       13.0141553872
 Ga         4.8326546502        8.4101492731       13.5778247790
  N         4.8594491965        8.3957924888       15.5370510658
 Ga         4.6761082510       10.1617365856       16.4502436853
  O         3.2119534582        5.6418241651        0.3277939369
  H         3.2257511116        1.9189969138        1.5761211218
  C         3.9951144556        6.6129198764       -0.3505227099
  H         3.3867906943        7.2427558006       -1.0338130365
  H         4.5624431841        7.2893494385        0.3172034538
  H         4.7477551628        6.1481696176       -1.0153995040
     206
 i =        2, E =     -8480.5438571011
  N         0.0339973763        2.0201297504        2.4466376962
 Ga        -0.0036990353        0.0344936857        2.8101912745
  N         0.0218770855        0.0487974656        4.9672389916
 Ga         0.0125344668        1.8659253255        5.7607867546
  N         0.0234370374        1.8945678535        7.7465123011
 Ga         0.0197625111        0.0471918310        8.3985586404
  N         0.0208022394        0.0478591144       10.3667999268
 Ga         0.0180658140        1.8857352277       11.0264565763
  N         0.0197764412        1.8670320679       13.0137027356
 Ga         0.0190563329        0.0466194755       13.8265932624
  N         0.0237323850        0.0518279641       16.0187817058
 Ga         0.0251288021        2.0935056814       16.4328480408
 Ga         0.0096413068        3.7951484276        1.4112784637
  N        -1.4825623801        4.6289347574        2.4736631551
 Ga        -1.6840241999        2.7784352200        3.2325933049
  N        -1.5831602245        2.8312149173        5.1964799209
 Ga        -1.6166419299        4.7031412440        5.7560129632
  N        -1.5990936879        4.6942663487        7.7474724749
 Ga        -1.5792318872        2.8389198855        8.3918429706
  N        -1.5766867583        2.8385812831       10.3798982289
 Ga        -1.6030664588        4.6981825802       11.0233761106
  N        -1.6207818270        4.7087108904       13.0122161048
 Ga        -1.5781388571        2.8391561932       13.5731303412
  N        -1.6073830478        2.8208203604       15.5308143503
 Ga        -1.4213553758        4.5974209274       16.4323032121
  N         0.0155140221        3.7579940902       17.5644534575
  N        -3.1977432458        7.5990857072        2.4804666436
 Ga        -3.1930134903        5.6181383713        2.8051432143
  N        -3.1955246632        5.6176057129        4.9680977330
 Ga        -3.1964069827        7.4433031651        5.7537235219
  N        -3.1963929691        7.4637298899        7.7454108446
 Ga        -3.1961596172        5.6183462005        8.3997997446
  N        -3.1962370444        5.6182218658       10.3684716722
 Ga        -3.1965138380        7.4582832704       11.0233627358
  N        -3.1965441028        7.4381438164       13.0118058206
 Ga        -3.1976770522        5.6190494689       13.8235408310
  N        -3.1919656990        5.6190039647       16.0158146994
 Ga        -3.1911401219        7.6697656738       16.4388758227
 Ga        -3.1949194292        9.2920154608        1.3823967439
  N        -4.6925840963       10.2128986821        2.4527347985
 Ga        -4.9015894591        8.3460412045        3.2359016218
  N        -4.8006411357        8.4091291531        5.1984267469
 Ga        -4.8376530354       10.2747864685        5.7567896838
  N        -4.8095908097       10.2688963754        7.7434919173
 Ga        -4.7934878753        8.4087704998        8.3908971090
  N        -4.7933908200        8.4106822180       10.3787739437
 Ga        -4.8206518258       10.2678269972       11.0265815350
  N        -4.8368508074       10.2792582274       13.0138168482
 Ga        -4.7933836374        8.4098131711       13.5759038263
  N        -4.8230265121        8.3929565511       15.5338303344
 Ga        -4.6336623991       10.1673994403       16.4393332686
  N        -3.2000576348        9.3304438748       17.5724919849
  N         3.2340076458        1.9067047431        2.6336986096
 Ga         3.2361385304        0.0544758706        3.2751930474
  N         3.2362693334        0.0737353820        5.1962466084
 Ga         3.2361551922        1.9018965334        5.8873401926
  N         3.2357559885        1.9025125706        7.8274309776
 Ga         3.2360996358        0.0294011204        8.4065776613
  N         3.2359677350        0.0336095448       10.3865538651
 Ga         3.2361337267        1.9043884957       10.9810033562
  N         3.2372992979        1.9051430958       12.9436313194
 Ga         3.2359426639        0.0369496525       13.5746933197
  N         3.2403805466        0.0715521587       15.5283563773
 Ga         3.2380932372        1.9055632797       15.8177385620
  N         1.4819726107        4.5899951197        2.5194201509
 Ga         1.6301164055        2.8217142689        3.2945166788
  N         1.6489371318        2.8113337409        5.2116434789
 Ga         1.6730664809        4.7201243078        5.7391320632
  N         1.6366800749        4.6891428729        7.7403614181
 Ga         1.6128173732        2.8414571006        8.4060669269
  N         1.6155980774        2.8392592490       10.3876326992
 Ga         1.6429456087        4.7003601152       11.0253619405
  N         1.6601338767        4.7086990576       13.0126588867
 Ga         1.6188405615        2.8388367792       13.5704660422
  N         1.6512404137        2.8240278860       15.5236495337
 Ga         1.4610997370        4.5914894991       16.4342508564
  N         0.0172634538        7.4813157459        2.5739700351
 Ga         0.0127313410        5.7382555953        3.2481102875
  N         0.0166480225        5.6146496922        5.2089672245
 Ga         0.0176026936        7.4755982107        5.8308910010
  N         0.0175482631        7.4749620555        7.8012769759
 Ga         0.0188655346        5.6064917394        8.3907372362
  N         0.0199973777        5.6049730192       10.3797743471
 Ga         0.0203085475        7.4759192315       10.9780208472
  N         0.0215171207        7.4764758107       12.9437339373
 Ga         0.0199417345        5.6080224872       13.5712951838
  N         0.0244660356        5.6425179152       15.5262878153
 Ga         0.0214712700        7.4772897989       15.8187117214
  N        -1.6992631834       10.2138886284        2.4538357948
 Ga        -1.4945026940        8.3471884740        3.2386439566
  N        -1.5924998192        8.4096400661        5.2011736609
 Ga        -1.5543341448       10.2751039203        5.7575165334
  N        -1.5825516989       10.2690026841        7.7441215847
 Ga        -1.5989900902        8.4086627535        8.3911535025
  N        -1.5998814423        8.4111271510       10.3788389961
 Ga        -1.5716339037       10.2682377657       11.0268618651
  N        -1.5563810672       10.2792806617       13.0137533354
 Ga        -1.5979081063        8.4091997722       13.5735015245
  N        -1.5655343944        8.3960242148       15.5271025008
 Ga        -1.7584505464       10.1620083174       16.4413995910
  N         6.4400178543        2.0163304009        2.4487801737
 Ga         6.4792142722        0.0316654674        2.8106012781
  N         6.4511247942        0.0477109368        4.9674492807
 Ga         6.4592439798        1.8655490488        5.7599554157
  N         6.4491156581        1.8943884372        7.7459870114
 Ga         6.4522940416        0.0473290485        8.3993805475
  N         6.4515380648        0.0479879775       10.3677838661
 Ga         6.4534375830        1.8859382392       11.0276260447
  N         6.4519859545        1.8681536336       13.0159853530
 Ga         6.4515240633        0.0474949687       13.8277514100
  N         6.4473968080        0.0462559213       16.0222295895
 Ga         6.4534682046        2.0862183648       16.4358071880
 Ga         6.4727402497        3.7870546476        1.4150918457
  N         4.9996594437        4.5892416091        2.5180331636
 Ga         4.8411604664        2.8216041845        3.2908541705
  N         4.8226214583        2.8094595324        5.2094617555
 Ga         4.8006421590        4.7187138372        5.7373270555
  N         4.8353240844        4.6887884718        7.7391128048
 Ga         4.8593462372        2.8410957177        8.4051170807
  N         4.8564358394        2.8390698699       10.3867056462
 Ga         4.8296654858        4.6995945715       11.0261053214
  N         4.8123880513        4.7082952472       13.0148373533
 Ga         4.8540005851        2.8392423634       13.5768317233
  N         4.8308387213        2.8243029521       15.5358440551
 Ga         5.0039059575        4.5966283532       16.4351372735
  N         6.4480093602        3.7566461863       17.5745475597
  N         3.2272250818        7.6724867084        2.5769605545
 Ga         3.2360142970        5.6521042758        2.4270682637
  N         3.2371609727        5.6125376207        4.8694847188
 Ga         3.2352291149        7.4314780548        5.7308187138
  N         3.2359333716        7.4632631642        7.7401262465
 Ga         3.2361888172        5.6185008889        8.3958067569
  N         3.2364364061        5.6171953699       10.3677532243
 Ga         3.2356552409        7.4584440071       11.0241367189
  N         3.2360850094        7.4384726014       13.0150853930
 Ga         3.2360964476        5.6190666731       13.8246316617
  N         3.2307698626        5.6137029334       16.0196383784
 Ga         3.2372959302        7.6588686475       16.4414408401
 Ga         3.2445534280        9.3040261343        1.4173945913
  N         1.7397885768       10.1985042178        2.4673351895
 Ga         1.5244429423        8.3611596179        3.2550305089
  N         1.6178475402        8.4073992983        5.2164626543
 Ga         1.6070911879       10.2752077010        5.7566819588
  N         1.6167078376       10.2682799701        7.7490432523
 Ga         1.6381263507        8.4091126486        8.3891065368
  N         1.6390958814        8.4106352982       10.3793365433
 Ga         1.6133586141       10.2685655905       11.0255922341
  N         1.5961116368       10.2790500560       13.0164957773
 Ga         1.6389489445        8.4097754013       13.5796209108
  N         1.6155563026        8.3960335454       15.5409148925
 Ga         1.7874636362       10.1690840295       16.4421323748
  N         3.2312432342        9.3293174773       17.5784673410
  N         9.6692793109        1.8997361444        2.5689241774
 Ga         9.6686586072        0.1474985901        3.2356548609
  N         9.6682548946        0.0526008753        5.2012336672
 Ga         9.6686756732        1.9040360314        5.8267380907
  N         9.6685603080        1.9052639923        7.7971869642
 Ga         9.6682977140        0.0364871816        8.3903588062
  N         9.6680654973        0.0343435063       10.3792303189
 Ga         9.6676307009        1.9033154194       10.9792172867
  N         9.6674117211        1.9031065628       12.9465265252
 Ga         9.6690377337        0.0344899713       13.5795909026
  N         9.6698628512        0.0638187016       15.5398385576
 Ga         9.6676319087        1.9038939429       15.8162036755
  N         7.9605062529        4.6304086076        2.4745402574
 Ga         8.1585095004        2.7774186551        3.2340975635
  N         8.0557220128        2.8312462134        5.1973262335
 Ga         8.0902448307        4.7031633471        5.7566113812
  N         8.0715993534        4.6938563614        7.7476580058
 Ga         8.0515789388        2.8384867408        8.3918263369
  N         8.0479739788        2.8386187329       10.3795974309
 Ga         8.0746221848        4.6980778911       11.0231701790
  N         8.0919097799        4.7083286008       13.0121666233
 Ga         8.0500961871        2.8399236223       13.5752808168
  N         8.0757697605        2.8241260676       15.5332475123
 Ga         7.9002308901        4.5947608584       16.4346525822
  N         6.4471200786        7.4788714815        2.5719866384
 Ga         6.4632912395        5.7353732147        3.2521737597
  N         6.4575947901        5.6159187270        5.2114139069
 Ga         6.4543904525        7.4760430640        5.8313066994
  N         6.4543612098        7.4756000604        7.8010922729
 Ga         6.4531564793        5.6064884587        8.3890297595
  N         6.4518192181        5.6049058615       10.3784772777
 Ga         6.4510310829        7.4753075124       10.9792281361
  N         6.4508262517        7.4748607035       12.9473576419
 Ga         6.4528069687        5.6055887161       13.5759764561
  N         6.4534220344        5.6348078630       15.5355005794
 Ga         6.4519697149        7.4750124842       15.8155073074
  N         4.7378183063       10.2012793254        2.4756539861
 Ga         4.9415789081        8.3637570230        3.2577401019
  N         4.8531964245        8.4068953990        5.2173444548
 Ga         4.8653916842       10.2758166204        5.7556924109
  N         4.8554068243       10.2681248849        7.7482084167
 Ga         4.8335857624        8.4091160811        8.3888332065
  N         4.8326864576        8.4103276947       10.3792115959
 Ga         4.8584733478       10.2687118757       11.0242982365
  N         4.8761947496       10.2789689006       13.0142769505
 Ga         4.8325962463        8.4107534642       13.5782477500
  N         4.8588056977        8.3962209302       15.5384302613
 Ga         4.6832919082       10.1667068734       16.4418607202
  O         3.2360980965        5.6826917246        0.4010088306
  H         3.2318353739        1.9196782394        1.5946025684
  C         3.9713573094        6.5843349957       -0.3298644371
  H         3.3613253594        7.2243519108       -1.0163772300
  H         4.5850148709        7.2808978258        0.3034413402
  H         4.7407806229        6.1448669539       -1.0060522561
     206
 i =        3, E =     -8480.5483075319
  N         0.0326005294        2.0198798417        2.4488299635
 Ga         0.0002107027        0.0371640962        2.8081940939
  N         0.0197918000        0.0485831213        4.9671807130
 Ga         0.0099935445        1.8652318458        5.7663976010
  N         0.0214988526        1.8931570856        7.7497081125
 Ga         0.0188811040        0.0465151974        8.4021714921
  N         0.0206164218        0.0473322348       10.3685613701
 Ga         0.0172652188        1.8856221230       11.0281752298
  N         0.0195015007        1.8669187460       13.0133489269
 Ga         0.0197998491        0.0482307594       13.8305927941
  N         0.0231600051        0.0513289971       16.0186340108
 Ga         0.0230409640        2.0999072447       16.4383734625
 Ga         0.0061097762        3.7997611559        1.4184029694
  N        -1.4869535315        4.6327790483        2.4712938044
 Ga        -1.6870616662        2.7781168341        3.2289378598
  N        -1.5828006680        2.8313198104        5.1930878410
 Ga        -1.6138400484        4.7023093537        5.7580012451
  N        -1.5999972531        4.6941991090        7.7480515048
 Ga        -1.5808516017        2.8394498109        8.3931651025
  N        -1.5776453904        2.8384262735       10.3797523225
 Ga        -1.6029422623        4.6984618856       11.0246289196
  N        -1.6203616403        4.7085438272       13.0116738823
 Ga        -1.5779580767        2.8393163005       13.5746123860
  N        -1.6083439692        2.8199859204       15.5284955460
 Ga        -1.4174391947        4.5935676345       16.4376593266
  N         0.0145474607        3.7584999863       17.5679374563
  N        -3.1985132389        7.5958761153        2.4776210127
 Ga        -3.1925029835        5.6180839453        2.8094355547
  N        -3.1951285777        5.6167843552        4.9707226855
 Ga        -3.1968746255        7.4449614870        5.7541013149
  N        -3.1966897205        7.4633443786        7.7448718095
 Ga        -3.1961151812        5.6182062521        8.4014891002
  N        -3.1963874281        5.6183449752       10.3687072965
 Ga        -3.1965859975        7.4579212367       11.0253631202
  N        -3.1962305304        7.4383029361       13.0126185835
 Ga        -3.1957900337        5.6188681686       13.8280317241
  N        -3.1920194322        5.6185186783       16.0153378642
 Ga        -3.1928318231        7.6708093478       16.4400946602
 Ga        -3.1947818738        9.2846779233        1.3733140828
  N        -4.6913814234       10.2099284713        2.4530825946
 Ga        -4.9034669467        8.3441088013        3.2328852066
  N        -4.8013404882        8.4090028968        5.1957019236
 Ga        -4.8403991998       10.2731402613        5.7596697738
  N        -4.8108708795       10.2681212881        7.7446608615
 Ga        -4.7938824482        8.4073003587        8.3927106168
  N        -4.7933970604        8.4104520380       10.3794076878
 Ga        -4.8215326389       10.2670491344       11.0295744540