 DBCSR| Multiplication driver                                               BLAS
 DBCSR| Multrec recursion limit                                              512
 DBCSR| Multiplication stack size                                           1000
 DBCSR| Maximum elements for images                                    UNLIMITED
 DBCSR| Multiplicative factor virtual images                                   1
 DBCSR| Multiplication size stacks                                             3
 DBCSR| Number of 3D layers                                               SINGLE
 DBCSR| Use MPI memory allocation                                              T
 DBCSR| Use RMA algorithm                                                      F
 DBCSR| Use Communication thread                                               T
 DBCSR| Communication thread load                                             87


  **** **** ******  **  PROGRAM STARTED AT               2019-05-27 06:08:03.194
 ***** ** ***  *** **   PROGRAM STARTED ON        blg9141.int.ets1.calculquebec.
 **    ****   ******    PROGRAM STARTED BY                                   rzk
 ***** **    ** ** **   PROGRAM PROCESS ID                                418662
  **** **  *******  **  PROGRAM STARTED IN /lustre03/project/6004141/rzk/GaN-car
                                           bene/06-Formaldehyde/01-H2OC-Nsur

 CP2K| version string:                    CP2K version 7.0 (Development Version)
 CP2K| source code revision number:                                    svn:18619
 CP2K| cp2kflags: libint fftw3 libxc parallel mpi3 scalapack mkl                
 CP2K| is freely available from                            https://www.cp2k.org/
 CP2K| Program compiled at                          Sun Apr  7 00:48:11 EDT 2019
 CP2K| Program compiled on                      beluga2.int.ets1.calculquebec.ca
 CP2K| Program compiled for                    Beluga-Linux-x86-64-intel-openmpi
 CP2K| Data directory path    /home/rzk/projects/def-rzk/group/cp2k/cp2k-mcgill/
 CP2K| Input file name                                                 start.inp
 
 GLOBAL| Force Environment number                                              1
 GLOBAL| Basis set file name                                        BASIS_MOLOPT
 GLOBAL| Potential file name                                      GTH_POTENTIALS
 GLOBAL| MM Potential file name                                     MM_POTENTIAL
 GLOBAL| Coordinate file name                                      __STD_INPUT__
 GLOBAL| Method name                                                        CP2K
 GLOBAL| Project name                                                       TEST
 GLOBAL| Preferred FFT library                                             FFTW3
 GLOBAL| Preferred diagonalization lib.                                       SL
 GLOBAL| Run type                                                        GEO_OPT
 GLOBAL| All-to-all communication in single precision                          F
 GLOBAL| FFTs using library dependent lengths                                  F
 GLOBAL| Global print level                                               MEDIUM
 GLOBAL| MPI I/O enabled                                                       T
 GLOBAL| Total number of message passing processes                            80
 GLOBAL| Number of threads for this process                                    1
 GLOBAL| This output is from process                                           0
 GLOBAL| CPU model name :  Intel(R) Xeon(R) Gold 6148 CPU @ 2.40GHz

 MEMORY| system memory details [Kb]
 MEMORY|                        rank 0           min           max       average
 MEMORY| MemTotal            196614300     196614300     196614300     196614300
 MEMORY| MemFree             178402048     178395716     184165500     181267703
 MEMORY| Buffers                     0             0            76            38
 MEMORY| Cached                1794096       1623608       1794096       1709572
 MEMORY| Slab                  1545492       1085712       1545492       1315771
 MEMORY| SReclaimable           224040        155144        224040        189628
 MEMORY| MemLikelyFree       180420184     180413852     185944328     183166942


 *** Fundamental physical constants (SI units) ***

 *** Literature: B. J. Mohr and B. N. Taylor,
 ***             CODATA recommended values of the fundamental physical
 ***             constants: 2006, Web Version 5.1
 ***             http://physics.nist.gov/constants

 Speed of light in vacuum [m/s]                             2.99792458000000E+08
 Magnetic constant or permeability of vacuum [N/A**2]       1.25663706143592E-06
 Electric constant or permittivity of vacuum [F/m]          8.85418781762039E-12
 Planck constant (h) [J*s]                                  6.62606896000000E-34
 Planck constant (h-bar) [J*s]                              1.05457162825177E-34
 Elementary charge [C]                                      1.60217648700000E-19
 Electron mass [kg]                                         9.10938215000000E-31
 Electron g factor [ ]                                     -2.00231930436220E+00
 Proton mass [kg]                                           1.67262163700000E-27
 Fine-structure constant                                    7.29735253760000E-03
 Rydberg constant [1/m]                                     1.09737315685270E+07
 Avogadro constant [1/mol]                                  6.02214179000000E+23
 Boltzmann constant [J/K]                                   1.38065040000000E-23
 Atomic mass unit [kg]                                      1.66053878200000E-27
 Bohr radius [m]                                            5.29177208590000E-11

 *** Conversion factors ***

 [u] -> [a.u.]                                              1.82288848426455E+03
 [Angstrom] -> [Bohr] = [a.u.]                              1.88972613288564E+00
 [a.u.] = [Bohr] -> [Angstrom]                              5.29177208590000E-01
 [a.u.] -> [s]                                              2.41888432650478E-17
 [a.u.] -> [fs]                                             2.41888432650478E-02
 [a.u.] -> [J]                                              4.35974393937059E-18
 [a.u.] -> [N]                                              8.23872205491840E-08
 [a.u.] -> [K]                                              3.15774647902944E+05
 [a.u.] -> [kJ/mol]                                         2.62549961709828E+03
 [a.u.] -> [kcal/mol]                                       6.27509468713739E+02
 [a.u.] -> [Pa]                                             2.94210107994716E+13
 [a.u.] -> [bar]                                            2.94210107994716E+08
 [a.u.] -> [atm]                                            2.90362800883016E+08
 [a.u.] -> [eV]                                             2.72113838565563E+01
 [a.u.] -> [Hz]                                             6.57968392072181E+15
 [a.u.] -> [1/cm] (wave numbers)                            2.19474631370540E+05
 [a.u./Bohr**2] -> [1/cm]                                   5.14048714338585E+03
 

 CELL_TOP| Volume [angstrom^3]:                                         2519.385
 CELL_TOP| Vector a [angstrom     9.737     0.000     0.000    |a| =       9.737
 CELL_TOP| Vector b [angstrom    -4.859     8.416     0.000    |b| =       9.718
 CELL_TOP| Vector c [angstrom     0.000     0.000    30.744    |c| =      30.744
 CELL_TOP| Angle (b,c), alpha [degree]:                                   90.000
 CELL_TOP| Angle (a,c), beta  [degree]:                                   90.000
 CELL_TOP| Angle (a,b), gamma [degree]:                                  120.000
 CELL_TOP| Numerically orthorhombic:                                          NO
 
 GENERATE|  Preliminary Number of Bonds generated:                             0
 GENERATE|  Achieved consistency in connectivity generation.

 CELL| Volume [angstrom^3]:                                             2519.385
 CELL| Vector a [angstrom]:       9.737     0.000     0.000    |a| =       9.737
 CELL| Vector b [angstrom]:      -4.859     8.416     0.000    |b| =       9.718
 CELL| Vector c [angstrom]:       0.000     0.000    30.744    |c| =      30.744
 CELL| Angle (b,c), alpha [degree]:                                       90.000
 CELL| Angle (a,c), beta  [degree]:                                       90.000
 CELL| Angle (a,b), gamma [degree]:                                      120.000
 CELL| Numerically orthorhombic:                                              NO

 CELL_REF| Volume [angstrom^3]:                                         2432.344
 CELL_REF| Vector a [angstrom     9.558     0.000     0.000    |a| =       9.558
 CELL_REF| Vector b [angstrom    -4.779     8.277     0.000    |b| =       9.558
 CELL_REF| Vector c [angstrom     0.000     0.000    30.744    |c| =      30.744
 CELL_REF| Angle (b,c), alpha [degree]:                                   90.000
 CELL_REF| Angle (a,c), beta  [degree]:                                   90.000
 CELL_REF| Angle (a,b), gamma [degree]:                                  120.000
 CELL_REF| Numerically orthorhombic:                                          NO

 *******************************************************************************
 *******************************************************************************
 **                                                                           **
 **     #####                         ##              ##                      **
 **    ##   ##            ##          ##              ##                      **
 **   ##     ##                       ##            ######                    **
 **   ##     ##  ##   ##  ##   #####  ##  ##   ####   ##    #####    #####    **
 **   ##     ##  ##   ##  ##  ##      ## ##   ##      ##   ##   ##  ##   ##   **
 **   ##  ## ##  ##   ##  ##  ##      ####     ###    ##   ######   ######    **
 **    ##  ###   ##   ##  ##  ##      ## ##      ##   ##   ##       ##        **
 **     #######   #####   ##   #####  ##  ##  ####    ##    #####   ##        **
 **           ##                                                    ##        **
 **                                                                           **
 **                                                ... make the atoms dance   **
 **                                                                           **
 **            Copyright (C) by CP2K developers group (2000 - 2018)           **
 **                                                                           **
 *******************************************************************************

 DFT| Spin restricted Kohn-Sham (RKS) calculation                            RKS
 DFT| Multiplicity                                                             1
 DFT| Number of spin states                                                    1
 DFT| Charge                                                                   0
 DFT| Self-interaction correction (SIC)                                       NO
 DFT| Cutoffs: density                                              1.000000E-10
 DFT|          gradient                                             1.000000E-10
 DFT|          tau                                                  1.000000E-10
 DFT|          cutoff_smoothing_range                               0.000000E+00
 DFT| XC density smoothing                                                  NONE
 DFT| XC derivatives                                                          PW
 FUNCTIONAL| ROUTINE=NEW
 FUNCTIONAL| PBE:
 FUNCTIONAL| J.P.Perdew, K.Burke, M.Ernzerhof, Phys. Rev. Letter, vol. 77, n 18,
 FUNCTIONAL|  pp. 3865-3868, (1996){spin unpolarized}                           
 vdW POTENTIAL|                                                   Pair Potential
 vdW POTENTIAL|          DFT-D3 (Version 3.1)
 vdW POTENTIAL|          Potential Form: S. Grimme et al, JCP 132: 154104 (2010)
 vdW POTENTIAL|          Zero Damping
 vdW POTENTIAL|          Cutoff Radius [Bohr]:                             18.90
 vdW POTENTIAL|          s6 Scaling Factor:                               1.0000
 vdW POTENTIAL|          sr6 Scaling Factor:                              1.2170
 vdW POTENTIAL|          s8 Scaling Factor:                               0.7220
 vdW POTENTIAL|          Cutoff for CN calculation:                   0.1000E-05

 QS| Method:                                                                 GPW
 QS| Density plane wave grid type                        NON-SPHERICAL FULLSPACE
 QS| Number of grid levels:                                                    5
 QS| Density cutoff [a.u.]:                                                600.0
 QS| Multi grid cutoff [a.u.]: 1) grid level                               600.0
 QS|                           2) grid level                               200.0
 QS|                           3) grid level                                66.7
 QS|                           4) grid level                                22.2
 QS|                           5) grid level                                 7.4
 QS| Grid level progression factor:                                          3.0
 QS| Relative density cutoff [a.u.]:                                        20.0
 QS| Consistent realspace mapping and integration 
 QS| Interaction thresholds: eps_pgf_orb:                                1.0E-07
 QS|                         eps_filter_matrix:                          0.0E+00
 QS|                         eps_core_charge:                            1.0E-16
 QS|                         eps_rho_gspace:                             1.0E-14
 QS|                         eps_rho_rspace:                             1.0E-14
 QS|                         eps_gvg_rspace:                             1.0E-07
 QS|                         eps_ppl:                                    1.0E-02
 QS|                         eps_ppnl:                                   1.0E-09


 ATOMIC KIND INFORMATION

  1. Atomic kind: Ga                                    Number of atoms:      72

     Orbital Basis Set                                    DZVP-MOLOPT-SR-GTH-q13

       Number of orbital shell sets:                                           1
       Number of orbital shells:                                               7
       Number of primitive Cartesian functions:                                6
       Number of Cartesian basis functions:                                   30
       Number of spherical basis functions:                                   25
       Norm type:                                                              2

       Normalised Cartesian orbitals:

                        Set   Shell   Orbital            Exponent    Coefficient

                          1       1    2s                7.066654       0.013136
                                                         3.428369      -0.094392
                                                         1.430064       0.265435
                                                         0.571611       0.056465
                                                         0.232197      -0.192187
                                                         0.076562      -0.044987

                          1       2    3s                7.066654      -0.098564
                                                         3.428369       0.010390
                                                         1.430064       0.351249
                                                         0.571611       0.182615
                                                         0.232197      -0.425358
                                                         0.076562       0.190349

                          1       3    3px               7.066654       0.002364
                                                         3.428369       0.019222
                                                         1.430064       0.250132
                                                         0.571611      -0.058486
                                                         0.232197      -0.159451
                                                         0.076562      -0.020696
                          1       3    3py               7.066654       0.002364
                                                         3.428369       0.019222
                                                         1.430064       0.250132
                                                         0.571611      -0.058486
                                                         0.232197      -0.159451
                                                         0.076562      -0.020696
                          1       3    3pz               7.066654       0.002364
                                                         3.428369       0.019222
                                                         1.430064       0.250132
                                                         0.571611      -0.058486
                                                         0.232197      -0.159451
                                                         0.076562      -0.020696

                          1       4    4px               7.066654       0.492448
                                                         3.428369      -0.614736
                                                         1.430064      -0.191654
                                                         0.571611       0.037801
                                                         0.232197       0.302315
                                                         0.076562      -0.071336
                          1       4    4py               7.066654       0.492448
                                                         3.428369      -0.614736
                                                         1.430064      -0.191654
                                                         0.571611       0.037801
                                                         0.232197       0.302315
                                                         0.076562      -0.071336
                          1       4    4pz               7.066654       0.492448
                                                         3.428369      -0.614736
                                                         1.430064      -0.191654
                                                         0.571611       0.037801
                                                         0.232197       0.302315
                                                         0.076562      -0.071336

                          1       5    4dx2              7.066654     -15.264855
                                                         3.428369      -5.345726
                                                         1.430064      -1.022732
                                                         0.571611      -0.123148
                                                         0.232197      -0.006983
                                                         0.076562      -0.000022
                          1       5    4dxy              7.066654     -26.439504
                                                         3.428369      -9.259069
                                                         1.430064      -1.771423
                                                         0.571611      -0.213299
                                                         0.232197      -0.012094
                                                         0.076562      -0.000037
                          1       5    4dxz              7.066654     -26.439504
                                                         3.428369      -9.259069
                                                         1.430064      -1.771423
                                                         0.571611      -0.213299
                                                         0.232197      -0.012094
                                                         0.076562      -0.000037
                          1       5    4dy2              7.066654     -15.264855
                                                         3.428369      -5.345726
                                                         1.430064      -1.022732
                                                         0.571611      -0.123148
                                                         0.232197      -0.006983
                                                         0.076562      -0.000022
                          1       5    4dyz              7.066654     -26.439504
                                                         3.428369      -9.259069
                                                         1.430064      -1.771423
                                                         0.571611      -0.213299
                                                         0.232197      -0.012094
                                                         0.076562      -0.000037
                          1       5    4dz2              7.066654     -15.264855
                                                         3.428369      -5.345726
                                                         1.430064      -1.022732
                                                         0.571611      -0.123148
                                                         0.232197      -0.006983
                                                         0.076562      -0.000022

                          1       6    5dx2              7.066654      -5.739265
                                                         3.428369      -2.129289
                                                         1.430064      -0.700423
                                                         0.571611       0.161606
                                                         0.232197       0.043513
                                                         0.076562       0.011205
                          1       6    5dxy              7.066654      -9.940698
                                                         3.428369      -3.688037
                                                         1.430064      -1.213168
                                                         0.571611       0.279909
                                                         0.232197       0.075368
                                                         0.076562       0.019407
                          1       6    5dxz              7.066654      -9.940698
                                                         3.428369      -3.688037
                                                         1.430064      -1.213168
                                                         0.571611       0.279909
                                                         0.232197       0.075368
                                                         0.076562       0.019407
                          1       6    5dy2              7.066654      -5.739265
                                                         3.428369      -2.129289
                                                         1.430064      -0.700423
                                                         0.571611       0.161606
                                                         0.232197       0.043513
                                                         0.076562       0.011205
                          1       6    5dyz              7.066654      -9.940698
                                                         3.428369      -3.688037
                                                         1.430064      -1.213168
                                                         0.571611       0.279909
                                                         0.232197       0.075368
                                                         0.076562       0.019407
                          1       6    5dz2              7.066654      -5.739265
                                                         3.428369      -2.129289
                                                         1.430064      -0.700423
                                                         0.571611       0.161606
                                                         0.232197       0.043513
                                                         0.076562       0.011205

                          1       7    5fx3              7.066654       0.705879
                                                         3.428369      -0.273976
                                                         1.430064       0.113667
                                                         0.571611       0.132480
                                                         0.232197       0.012437
                                                         0.076562       0.003241
                          1       7    5fx2y             7.066654       1.578393
                                                         3.428369      -0.612629
                                                         1.430064       0.254167
                                                         0.571611       0.296234
                                                         0.232197       0.027811
                                                         0.076562       0.007246
                          1       7    5fx2z             7.066654       1.578393
                                                         3.428369      -0.612629
                                                         1.430064       0.254167
                                                         0.571611       0.296234
                                                         0.232197       0.027811
                                                         0.076562       0.007246
                          1       7    5fxy2             7.066654       1.578393
                                                         3.428369      -0.612629
                                                         1.430064       0.254167
                                                         0.571611       0.296234
                                                         0.232197       0.027811
                                                         0.076562       0.007246
                          1       7    5fxyz             7.066654       2.733856
                                                         3.428369      -1.061105
                                                         1.430064       0.440230
                                                         0.571611       0.513092
                                                         0.232197       0.048170
                                                         0.076562       0.012551
                          1       7    5fxz2             7.066654       1.578393
                                                         3.428369      -0.612629
                                                         1.430064       0.254167
                                                         0.571611       0.296234
                                                         0.232197       0.027811
                                                         0.076562       0.007246
                          1       7    5fy3              7.066654       0.705879
                                                         3.428369      -0.273976
                                                         1.430064       0.113667
                                                         0.571611       0.132480
                                                         0.232197       0.012437
                                                         0.076562       0.003241
                          1       7    5fy2z             7.066654       1.578393
                                                         3.428369      -0.612629
                                                         1.430064       0.254167
                                                         0.571611       0.296234
                                                         0.232197       0.027811
                                                         0.076562       0.007246
                          1       7    5fyz2             7.066654       1.578393
                                                         3.428369      -0.612629
                                                         1.430064       0.254167
                                                         0.571611       0.296234
                                                         0.232197       0.027811
                                                         0.076562       0.007246
                          1       7    5fz3              7.066654       0.705879
                                                         3.428369      -0.273976
                                                         1.430064       0.113667
                                                         0.571611       0.132480
                                                         0.232197       0.012437
                                                         0.076562       0.003241

     GTH Potential information for                                   GTH-PBE-q13

       Description:                       Goedecker-Teter-Hutter pseudopotential
                                           Goedecker et al., PRB 54, 1703 (1996)
                                          Hartwigsen et al., PRB 58, 3641 (1998)
                                                      Krack, TCA 114, 145 (2005)

       Gaussian exponent of the core charge distribution:               2.082466
       Electronic configuration (s p d ...):                           2   1  10

       Parameters of the local part of the GTH pseudopotential:

                          rloc        C1          C2          C3          C4
                        0.490000

       Parameters of the non-local part of the GTH pseudopotential:

                   l      r(l)      h(i,j,l)

                   0    0.416777   10.475690   -4.921768    0.870706
                                   -4.921768    7.770178   -2.248152
                                    0.870706   -2.248152    1.784415
                   1    0.569627    1.777985    0.195860
                                    0.195860   -0.231744
                   2    0.238126  -16.248680

  2. Atomic kind: N                                     Number of atoms:      72

     Orbital Basis Set                                     DZVP-MOLOPT-SR-GTH-q5

       Number of orbital shell sets:                                           1
       Number of orbital shells:                                               5
       Number of primitive Cartesian functions:                                5
       Number of Cartesian basis functions:                                   14
       Number of spherical basis functions:                                   13
       Norm type:                                                              2

       Normalised Cartesian orbitals:

                        Set   Shell   Orbital            Exponent    Coefficient

                          1       1    2s                7.341988       0.360561
                                                         2.542637       0.139177
                                                         0.888575      -0.289383
                                                         0.333802      -0.182244
                                                         0.112012      -0.019197

                          1       2    3s                7.341988       0.282000
                                                         2.542637       0.177875
                                                         0.888575      -0.278381
                                                         0.333802       0.008577
                                                         0.112012       0.154176

                          1       3    3px               7.341988      -1.188719
                                                         2.542637      -0.973969
                                                         0.888575      -0.501079
                                                         0.333802      -0.144894
                                                         0.112012      -0.013986
                          1       3    3py               7.341988      -1.188719
                                                         2.542637      -0.973969
                                                         0.888575      -0.501079
                                                         0.333802      -0.144894
                                                         0.112012      -0.013986
                          1       3    3pz               7.341988      -1.188719
                                                         2.542637      -0.973969
                                                         0.888575      -0.501079
                                                         0.333802      -0.144894
                                                         0.112012      -0.013986

                          1       4    4px               7.341988      -0.094798
                                                         2.542637       0.050069
                                                         0.888575      -0.114797
                                                         0.333802       0.144793
                                                         0.112012       0.066710
                          1       4    4py               7.341988      -0.094798
                                                         2.542637       0.050069
                                                         0.888575      -0.114797
                                                         0.333802       0.144793
                                                         0.112012       0.066710
                          1       4    4pz               7.341988      -0.094798
                                                         2.542637       0.050069
                                                         0.888575      -0.114797
                                                         0.333802       0.144793
                                                         0.112012       0.066710

                          1       5    4dx2              7.341988       1.354688
                                                         2.542637       0.690378
                                                         0.888575       0.855359
                                                         0.333802       0.091746
                                                         0.112012       0.001253
                          1       5    4dxy              7.341988       2.346389
                                                         2.542637       1.195770
                                                         0.888575       1.481524
                                                         0.333802       0.158910
                                                         0.112012       0.002169
                          1       5    4dxz              7.341988       2.346389
                                                         2.542637       1.195770
                                                         0.888575       1.481524
                                                         0.333802       0.158910
                                                         0.112012       0.002169
                          1       5    4dy2              7.341988       1.354688
                                                         2.542637       0.690378
                                                         0.888575       0.855359
                                                         0.333802       0.091746
                                                         0.112012       0.001253
                          1       5    4dyz              7.341988       2.346389
                                                         2.542637       1.195770
                                                         0.888575       1.481524
                                                         0.333802       0.158910
                                                         0.112012       0.002169
                          1       5    4dz2              7.341988       1.354688
                                                         2.542637       0.690378
                                                         0.888575       0.855359
                                                         0.333802       0.091746
                                                         0.112012       0.001253

     GTH Potential information for                                    GTH-PBE-q5

       Description:                       Goedecker-Teter-Hutter pseudopotential
                                           Goedecker et al., PRB 54, 1703 (1996)
                                          Hartwigsen et al., PRB 58, 3641 (1998)
                                                      Krack, TCA 114, 145 (2005)

       Gaussian exponent of the core charge distribution:               6.208322
       Electronic configuration (s p d ...):                               2   3

       Parameters of the local part of the GTH pseudopotential:

                          rloc        C1          C2          C3          C4
                        0.283791  -12.415226    1.868096

       Parameters of the non-local part of the GTH pseudopotential:

                   l      r(l)      h(i,j,l)

                   0    0.255405   13.630263
                   1    0.245495

  3. Atomic kind: H                                     Number of atoms:       2

     Orbital Basis Set                                     DZVP-MOLOPT-SR-GTH-q1

       Number of orbital shell sets:                                           1
       Number of orbital shells:                                               3
       Number of primitive Cartesian functions:                                5
       Number of Cartesian basis functions:                                    5
       Number of spherical basis functions:                                    5
       Norm type:                                                              2

       Normalised Cartesian orbitals:

                        Set   Shell   Orbital            Exponent    Coefficient

                          1       1    2s               10.068468      -0.133023
                                                         2.680223      -0.177618
                                                         0.791502      -0.258419
                                                         0.239116      -0.107525
                                                         0.082193      -0.014019

                          1       2    3s               10.068468       0.344673
                                                         2.680223       1.819821
                                                         0.791502      -0.999069
                                                         0.239116       0.017430
                                                         0.082193       0.082660

                          1       3    3px              10.068468       0.155326
                                                         2.680223       0.367157
                                                         0.791502       0.311480
                                                         0.239116       0.080105
                                                         0.082193       0.033440
                          1       3    3py              10.068468       0.155326
                                                         2.680223       0.367157
                                                         0.791502       0.311480
                                                         0.239116       0.080105
                                                         0.082193       0.033440
                          1       3    3pz              10.068468       0.155326
                                                         2.680223       0.367157
                                                         0.791502       0.311480
                                                         0.239116       0.080105
                                                         0.082193       0.033440

     GTH Potential information for                                    GTH-PBE-q1

       Description:                       Goedecker-Teter-Hutter pseudopotential
                                           Goedecker et al., PRB 54, 1703 (1996)
                                          Hartwigsen et al., PRB 58, 3641 (1998)
                                                      Krack, TCA 114, 145 (2005)

       Gaussian exponent of the core charge distribution:              12.500000
       Electronic configuration (s p d ...):                                   1

       Parameters of the local part of the GTH pseudopotential:

                          rloc        C1          C2          C3          C4
                        0.200000   -4.178900    0.724463

  4. Atomic kind: C                                     Number of atoms:       1

     Orbital Basis Set                                     DZVP-MOLOPT-SR-GTH-q4

       Number of orbital shell sets:                                           1
       Number of orbital shells:                                               5
       Number of primitive Cartesian functions:                                5
       Number of Cartesian basis functions:                                   14
       Number of spherical basis functions:                                   13
       Norm type:                                                              2

       Normalised Cartesian orbitals:

                        Set   Shell   Orbital            Exponent    Coefficient

                          1       1    2s                5.605331       0.322515
                                                         2.113016       0.213043
                                                         0.769911      -0.209686
                                                         0.348157      -0.219794
                                                         0.128212      -0.022789

                          1       2    3s                5.605331       0.552234
                                                         2.113016       0.082072
                                                         0.769911       0.007843
                                                         0.348157       0.136893
                                                         0.128212       0.074283

                          1       3    3px               5.605331      -0.703879
                                                         2.113016      -0.642521
                                                         0.769911      -0.374851
                                                         0.348157      -0.139743
                                                         0.128212      -0.027849
                          1       3    3py               5.605331      -0.703879
                                                         2.113016      -0.642521
                                                         0.769911      -0.374851
                                                         0.348157      -0.139743
                                                         0.128212      -0.027849
                          1       3    3pz               5.605331      -0.703879
                                                         2.113016      -0.642521
                                                         0.769911      -0.374851
                                                         0.348157      -0.139743
                                                         0.128212      -0.027849

                          1       4    4px               5.605331      -0.480376
                                                         2.113016      -0.552894
                                                         0.769911      -0.316145
                                                         0.348157       0.210505
                                                         0.128212       0.076095
                          1       4    4py               5.605331      -0.480376
                                                         2.113016      -0.552894
                                                         0.769911      -0.316145
                                                         0.348157       0.210505
                                                         0.128212       0.076095
                          1       4    4pz               5.605331      -0.480376
                                                         2.113016      -0.552894
                                                         0.769911      -0.316145
                                                         0.348157       0.210505
                                                         0.128212       0.076095

                          1       5    4dx2              5.605331       0.640026
                                                         2.113016       0.274300
                                                         0.769911       0.446711
                                                         0.348157       0.028674
                                                         0.128212       0.029790
                          1       5    4dxy              5.605331       1.108557
                                                         2.113016       0.475102
                                                         0.769911       0.773726
                                                         0.348157       0.049666
                                                         0.128212       0.051599
                          1       5    4dxz              5.605331       1.108557
                                                         2.113016       0.475102
                                                         0.769911       0.773726
                                                         0.348157       0.049666
                                                         0.128212       0.051599
                          1       5    4dy2              5.605331       0.640026
                                                         2.113016       0.274300
                                                         0.769911       0.446711
                                                         0.348157       0.028674
                                                         0.128212       0.029790
                          1       5    4dyz              5.605331       1.108557
                                                         2.113016       0.475102
                                                         0.769911       0.773726
                                                         0.348157       0.049666
                                                         0.128212       0.051599
                          1       5    4dz2              5.605331       0.640026
                                                         2.113016       0.274300
                                                         0.769911       0.446711
                                                         0.348157       0.028674
                                                         0.128212       0.029790

     GTH Potential information for                                    GTH-PBE-q4

       Description:                       Goedecker-Teter-Hutter pseudopotential
                                           Goedecker et al., PRB 54, 1703 (1996)
                                          Hartwigsen et al., PRB 58, 3641 (1998)
                                                      Krack, TCA 114, 145 (2005)

       Gaussian exponent of the core charge distribution:               4.364419
       Electronic configuration (s p d ...):                               2   2

       Parameters of the local part of the GTH pseudopotential:

                          rloc        C1          C2          C3          C4
                        0.338471   -8.803674    1.339211

       Parameters of the non-local part of the GTH pseudopotential:

                   l      r(l)      h(i,j,l)

                   0    0.302576    9.622487
                   1    0.291507

  5. Atomic kind: O                                     Number of atoms:       1

     Orbital Basis Set                                     DZVP-MOLOPT-SR-GTH-q6

       Number of orbital shell sets:                                           1
       Number of orbital shells:                                               5
       Number of primitive Cartesian functions:                                5
       Number of Cartesian basis functions:                                   14
       Number of spherical basis functions:                                   13
       Norm type:                                                              2

       Normalised Cartesian orbitals:

                        Set   Shell   Orbital            Exponent    Coefficient

                          1       1    2s               10.389228       0.396646
                                                         3.849621       0.208811
                                                         1.388401      -0.301641
                                                         0.496955      -0.274061
                                                         0.162492      -0.033677

                          1       2    3s               10.389228       0.303673
                                                         3.849621       0.240943
                                                         1.388401      -0.313066
                                                         0.496955      -0.043055
                                                         0.162492       0.213991

                          1       3    3px              10.389228      -1.530415
                                                         3.849621      -1.371928
                                                         1.388401      -0.761951
                                                         0.496955      -0.253695
                                                         0.162492      -0.035541
                          1       3    3py              10.389228      -1.530415
                                                         3.849621      -1.371928
                                                         1.388401      -0.761951
                                                         0.496955      -0.253695
                                                         0.162492      -0.035541
                          1       3    3pz              10.389228      -1.530415
                                                         3.849621      -1.371928
                                                         1.388401      -0.761951
                                                         0.496955      -0.253695
                                                         0.162492      -0.035541

                          1       4    4px              10.389228      -0.565392
                                                         3.849621      -0.038231
                                                         1.388401      -0.382373
                                                         0.496955       0.179070
                                                         0.162492       0.122714
                          1       4    4py              10.389228      -0.565392
                                                         3.849621      -0.038231
                                                         1.388401      -0.382373
                                                         0.496955       0.179070
                                                         0.162492       0.122714
                          1       4    4pz              10.389228      -0.565392
                                                         3.849621      -0.038231
                                                         1.388401      -0.382373
                                                         0.496955       0.179070
                                                         0.162492       0.122714

                          1       5    4dx2             10.389228       1.867377
                                                         3.849621       0.670994
                                                         1.388401       1.353441
                                                         0.496955       0.273538
                                                         0.162492       0.006620
                          1       5    4dxy             10.389228       3.234392
                                                         3.849621       1.162195
                                                         1.388401       2.344229
                                                         0.496955       0.473781
                                                         0.162492       0.011466
                          1       5    4dxz             10.389228       3.234392
                                                         3.849621       1.162195
                                                         1.388401       2.344229
                                                         0.496955       0.473781
                                                         0.162492       0.011466
                          1       5    4dy2             10.389228       1.867377
                                                         3.849621       0.670994
                                                         1.388401       1.353441
                                                         0.496955       0.273538
                                                         0.162492       0.006620
                          1       5    4dyz             10.389228       3.234392
                                                         3.849621       1.162195
                                                         1.388401       2.344229
                                                         0.496955       0.473781
                                                         0.162492       0.011466
                          1       5    4dz2             10.389228       1.867377
                                                         3.849621       0.670994
                                                         1.388401       1.353441
                                                         0.496955       0.273538
                                                         0.162492       0.006620

     GTH Potential information for                                    GTH-PBE-q6

       Description:                       Goedecker-Teter-Hutter pseudopotential
                                           Goedecker et al., PRB 54, 1703 (1996)
                                          Hartwigsen et al., PRB 58, 3641 (1998)
                                                      Krack, TCA 114, 145 (2005)

       Gaussian exponent of the core charge distribution:               8.360253
       Electronic configuration (s p d ...):                               2   4

       Parameters of the local part of the GTH pseudopotential:

                          rloc        C1          C2          C3          C4
                        0.244554  -16.667215    2.487311

       Parameters of the non-local part of the GTH pseudopotential:

                   l      r(l)      h(i,j,l)

                   0    0.220956   18.337458
                   1    0.211332


 MOLECULE KIND INFORMATION


 All atoms are their own molecule, skipping detailed information


 TOTAL NUMBERS AND MAXIMUM NUMBERS

  Total number of            - Atomic kinds:                                   5
                             - Atoms:                                        148
                             - Shell sets:                                   148
                             - Shells:                                       880
                             - Primitive Cartesian functions:                812
                             - Cartesian basis functions:                   3206
                             - Spherical basis functions:                   2772

  Maximum angular momentum of- Orbital basis functions:                        3
                             - Local part of the GTH pseudopotential:          2
                             - Non-local part of the GTH pseudopotential:      4


 MODULE QUICKSTEP:  ATOMIC COORDINATES IN angstrom

  Atom  Kind  Element       X           Y           Z          Z(eff)       Mass

       1     1 Ga  31   -0.048418   -0.033518   -0.529533     13.00      69.7230
       2     2 N    7   -0.045763    1.841453    0.622208      5.00      14.0067
       3     1 Ga  31   -0.047085    1.809488    2.651254     13.00      69.7230
       4     2 N    7   -0.050165   -0.033478    3.284970      5.00      14.0067
       5     1 Ga  31   -0.050770   -0.030602    5.274971     13.00      69.7230
       6     2 N    7   -0.048124    1.843742    5.864687      5.00      14.0067
       7     1 Ga  31   -0.050347    1.844024    7.863357     13.00      69.7230
       8     2 N    7   -0.053344   -0.029438    8.465831      5.00      14.0067
       9     1 Ga  31   -0.054530   -0.025922   10.463754     13.00      69.7230
      10     2 N    7   -0.051843    1.845045   11.069876      5.00      14.0067
      11     1 Ga  31   -0.054206    1.845626   13.070425     13.00      69.7230
      12     2 N    7   -0.057500   -0.032354   13.663143      5.00      14.0067
      13     1 Ga  31   -0.058175   -0.015841   15.667638     13.00      69.7230
      14     2 N    7   -0.055827    1.865823   16.172418      5.00      14.0067
      15     1 Ga  31   -0.058927    1.872193   18.206173     13.00      69.7230
      16     2 N    7   -0.060538   -0.005387   18.610849      5.00      14.0067
      17     1 Ga  31   -1.668492    2.770487    0.339185     13.00      69.7230
      18     2 N    7   -1.669427    4.641216    0.623221      5.00      14.0067
      19     1 Ga  31   -1.642705    4.657255    2.653588     13.00      69.7230
      20     2 N    7   -1.669839    2.771642    3.244180      5.00      14.0067
      21     1 Ga  31   -1.670469    2.773816    5.253613     13.00      69.7230
      22     2 N    7   -1.670616    4.644219    5.862644      5.00      14.0067
      23     1 Ga  31   -1.671376    4.646017    7.860036     13.00      69.7230
      24     2 N    7   -1.673042    2.776690    8.469479      5.00      14.0067
      25     1 Ga  31   -1.673934    2.779133   10.466038     13.00      69.7230
      26     2 N    7   -1.671954    4.654961   11.066695      5.00      14.0067
      27     1 Ga  31   -1.673105    4.655362   13.060482     13.00      69.7230
      28     2 N    7   -1.684509    2.786599   13.648671      5.00      14.0067
      29     1 Ga  31   -1.681861    2.788358   15.643977     13.00      69.7230
      30     2 N    7   -1.684384    4.664678   16.267699      5.00      14.0067
      31     1 Ga  31   -1.632091    4.655272   18.298921     13.00      69.7230
      32     2 N    7   -1.694096    2.789862   18.675166      5.00      14.0067
      33     1 Ga  31   -3.289425    5.577080    0.339403     13.00      69.7230
      34     2 N    7   -3.281332    7.446868    0.622155      5.00      14.0067
      35     1 Ga  31   -3.311086    7.463296    2.651212     13.00      69.7230
      36     2 N    7   -3.289661    5.577505    3.243816      5.00      14.0067
      37     1 Ga  31   -3.290356    5.579881    5.253215     13.00      69.7230
      38     2 N    7   -3.284882    7.450387    5.862849      5.00      14.0067
      39     1 Ga  31   -3.288525    7.453076    7.860437     13.00      69.7230
      40     2 N    7   -3.292681    5.581869    8.463313      5.00      14.0067
      41     1 Ga  31   -3.293059    5.585624   10.455967     13.00      69.7230
      42     2 N    7   -3.290957    7.453894   11.068502      5.00      14.0067
      43     1 Ga  31   -3.294684    7.457166   13.063490     13.00      69.7230
      44     2 N    7   -3.304209    5.581314   13.680391      5.00      14.0067
      45     1 Ga  31   -3.313334    5.579713   15.669998     13.00      69.7230
      46     2 N    7   -3.288274    7.449048   16.264138      5.00      14.0067
      47     1 Ga  31   -3.272372    7.512230   18.291413     13.00      69.7230
      48     2 N    7   -3.271197    5.619418   18.853463      5.00      14.0067
      49     1 Ga  31    3.196912   -0.033758    0.339016     13.00      69.7230
      50     2 N    7    3.195413    1.835481    0.622122      5.00      14.0067
      51     1 Ga  31    3.223360    1.852258    2.650686     13.00      69.7230
      52     2 N    7    3.195481   -0.033164    3.243976      5.00      14.0067
      53     1 Ga  31    3.194678   -0.030426    5.253202     13.00      69.7230
      54     2 N    7    3.194518    1.839015    5.863780      5.00      14.0067
      55     1 Ga  31    3.192914    1.840899    7.861548     13.00      69.7230
      56     2 N    7    3.192561   -0.029760    8.468202      5.00      14.0067
      57     1 Ga  31    3.192080   -0.027854   10.463762     13.00      69.7230
      58     2 N    7    3.196370    1.844333   11.065962      5.00      14.0067
      59     1 Ga  31    3.192370    1.843999   13.060448     13.00      69.7230
      60     2 N    7    3.187226   -0.027776   13.670349      5.00      14.0067
      61     1 Ga  31    3.206538   -0.030307   15.673868     13.00      69.7230
      62     2 N    7    3.204669    1.850968   16.236293      5.00      14.0067
      63     1 Ga  31    3.149054    1.803525   18.242199     13.00      69.7230
      64     2 N    7    3.189249   -0.010567   18.777436      5.00      14.0067
      65     1 Ga  31    1.576993    2.770934    0.339091     13.00      69.7230
      66     2 N    7    1.583107    4.641716    0.623342      5.00      14.0067
      67     1 Ga  31    1.554403    4.657402    2.653492     13.00      69.7230
      68     2 N    7    1.575950    2.771666    3.244155      5.00      14.0067
      69     1 Ga  31    1.575149    2.773798    5.253594     13.00      69.7230
      70     2 N    7    1.580434    4.644182    5.862594      5.00      14.0067
      71     1 Ga  31    1.577091    4.646043    7.859993     13.00      69.7230
      72     2 N    7    1.572782    2.776632    8.469497      5.00      14.0067
      73     1 Ga  31    1.571354    2.779046   10.466093     13.00      69.7230
      74     2 N    7    1.574388    4.654783   11.066756      5.00      14.0067
      75     1 Ga  31    1.571087    4.655180   13.060581     13.00      69.7230
      76     2 N    7    1.576314    2.786676   13.649463      5.00      14.0067
      77     1 Ga  31    1.572063    2.787565   15.645399     13.00      69.7230
      78     2 N    7    1.579191    4.664675   16.270556      5.00      14.0067
      79     1 Ga  31    1.522947    4.655595   18.302711     13.00      69.7230
      80     2 N    7    1.577520    2.789166   18.672892      5.00      14.0067
      81     1 Ga  31   -0.042225    5.577300   -0.511120     13.00      69.7230
      82     2 N    7   -0.039606    7.451260    0.623363      5.00      14.0067
      83     1 Ga  31   -0.040960    7.420889    2.653622     13.00      69.7230
      84     2 N    7   -0.043990    5.577361    3.285815      5.00      14.0067
      85     1 Ga  31   -0.044643    5.579808    5.275835     13.00      69.7230
      86     2 N    7   -0.042026    7.455116    5.862666      5.00      14.0067
      87     1 Ga  31   -0.044040    7.455381    7.859952     13.00      69.7230
      88     2 N    7   -0.047016    5.582103    8.462380      5.00      14.0067
      89     1 Ga  31   -0.048186    5.585926   10.458152     13.00      69.7230
      90     2 N    7   -0.045720    7.454263   11.072751      5.00      14.0067
      91     1 Ga  31   -0.047614    7.453421   13.069339     13.00      69.7230
      92     2 N    7   -0.050728    5.580319   13.684262      5.00      14.0067
      93     1 Ga  31   -0.052648    5.606327   15.691957     13.00      69.7230
      94     2 N    7   -0.049990    7.460066   16.313576      5.00      14.0067
      95     1 Ga  31   -0.050977    7.465090   18.417083     13.00      69.7230
      96     2 N    7   -0.055276    5.597724   18.772316      5.00      14.0067
      97     1 Ga  31    6.442120   -0.033197    0.339114     13.00      69.7230
      98     2 N    7    6.448899    1.836086    0.622420      5.00      14.0067
      99     1 Ga  31    6.418932    1.852499    2.650787     13.00      69.7230
     100     2 N    7    6.441178   -0.033098    3.243963      5.00      14.0067
     101     1 Ga  31    6.440443   -0.030417    5.253184     13.00      69.7230
     102     2 N    7    6.445883    1.839083    5.863750      5.00      14.0067
     103     1 Ga  31    6.443481    1.840873    7.861544     13.00      69.7230
     104     2 N    7    6.437772   -0.029778    8.467942      5.00      14.0067
     105     1 Ga  31    6.435604   -0.028244   10.463350     13.00      69.7230
     106     2 N    7    6.436616    1.844051   11.065318      5.00      14.0067
     107     1 Ga  31    6.436533    1.843402   13.059448     13.00      69.7230
     108     2 N    7    6.435694   -0.027835   13.671246      5.00      14.0067
     109     1 Ga  31    6.413665   -0.030959   15.675110     13.00      69.7230
     110     2 N    7    6.423713    1.850161   16.237603      5.00      14.0067
     111     1 Ga  31    6.472220    1.802361   18.244094     13.00      69.7230
     112     2 N    7    6.426082   -0.011523   18.778424      5.00      14.0067
     113     1 Ga  31    4.823255    2.770710   -0.537504     13.00      69.7230
     114     2 N    7    4.825705    4.646012    0.622186      5.00      14.0067
     115     1 Ga  31    4.824360    4.614194    2.650957     13.00      69.7230
     116     2 N    7    4.821267    2.771597    3.285429      5.00      14.0067
     117     1 Ga  31    4.820560    2.773839    5.275318     13.00      69.7230
     118     2 N    7    4.823281    4.649010    5.861522      5.00      14.0067
     119     1 Ga  31    4.821179    4.649455    7.858358     13.00      69.7230
     120     2 N    7    4.818282    2.776298    8.460724      5.00      14.0067
     121     1 Ga  31    4.816741    2.777173   10.455357     13.00      69.7230
     122     2 N    7    4.819533    4.650974   11.058489      5.00      14.0067
     123     1 Ga  31    4.817588    4.653373   13.045192     13.00      69.7230
     124     2 N    7    4.815186    2.789678   13.665981      5.00      14.0067
     125     1 Ga  31    4.813843    2.799539   15.650795     13.00      69.7230
     126     2 N    7    4.816211    4.654488   16.338715      5.00      14.0067
     127     1 Ga  31    4.814633    4.661961   18.352794     13.00      69.7230
     128     2 N    7    4.811169    2.742728   18.879040      5.00      14.0067
     129     1 Ga  31    3.204047    5.576580    0.339438     13.00      69.7230
     130     2 N    7    3.201106    7.446322    0.622032      5.00      14.0067
     131     1 Ga  31    3.228962    7.463094    2.651244     13.00      69.7230
     132     2 N    7    3.201881    5.577441    3.243747      5.00      14.0067
     133     1 Ga  31    3.201067    5.579783    5.253135     13.00      69.7230
     134     2 N    7    3.200892    7.450361    5.862706      5.00      14.0067
     135     1 Ga  31    3.200127    7.453046    7.860263     13.00      69.7230
     136     2 N    7    3.198541    5.581875    8.463232      5.00      14.0067
     137     1 Ga  31    3.196199    5.585354   10.455874     13.00      69.7230
     138     2 N    7    3.199355    7.453607   11.068480      5.00      14.0067
     139     1 Ga  31    3.198514    7.456778   13.063440     13.00      69.7230
     140     2 N    7    3.202359    5.580738   13.681074      5.00      14.0067
     141     1 Ga  31    3.209281    5.578953   15.670971     13.00      69.7230
     142     2 N    7    3.189374    7.448541   16.265238      5.00      14.0067
     143     1 Ga  31    3.169692    7.512071   18.292947     13.00      69.7230
     144     2 N    7    3.162216    5.619092   18.854416      5.00      14.0067
     145     3 H    1    5.704423    2.347134   20.772556      1.00       1.0079
     146     3 H    1    3.951615    2.326935   20.786476      1.00       1.0079
     147     4 C    6    4.817088    2.902525   20.349346      4.00      12.0107
     148     5 O    8    4.809708    4.186776   20.732367      6.00      15.9994




 SCF PARAMETERS         Density guess:                                    ATOMIC
                        --------------------------------------------------------
                        max_scf:                                             100
                        max_scf_history:                                       0
                        max_diis:                                              4
                        --------------------------------------------------------
                        eps_scf:                                        5.00E-06
                        eps_scf_history:                                0.00E+00
                        eps_diis:                                       1.00E-01
                        eps_eigval:                                     1.00E-05
                        --------------------------------------------------------
                        level_shift [a.u.]:                                 0.00
                        --------------------------------------------------------
                        Outer loop SCF in use 
                        No variables optimised in outer loop
                        eps_scf                                         5.00E-06
                        max_scf                                                4
                        No outer loop optimization
                        step_size                                       5.00E-01

 PW_GRID| Information for grid number                                          1
 PW_GRID| Grid distributed over                                    80 processors
 PW_GRID| Real space group dimensions                                    80    1
 PW_GRID| the grid is blocked:                                                NO
 PW_GRID| Cutoff [a.u.]                                                    600.0
 PW_GRID| spherical cutoff:                                                   NO
 PW_GRID|   Bounds   1           -100      99                Points:         200
 PW_GRID|   Bounds   2           -100      99                Points:         200
 PW_GRID|   Bounds   3           -324     323                Points:         648
 PW_GRID| Volume element (a.u.^3)  0.6333E-03     Volume (a.u.^3)     16414.2734
 PW_GRID| Grid span                                                    FULLSPACE
 PW_GRID|   Distribution                         Average         Max         Min
 PW_GRID|   G-Vectors                           324000.0      324000      324000
 PW_GRID|   G-Rays                                1620.0        1620        1620
 PW_GRID|   Real Space Points                   324000.0      388800      259200

 PW_GRID| Information for grid number                                          2
 PW_GRID| Grid distributed over                                    80 processors
 PW_GRID| Real space group dimensions                                    80    1
 PW_GRID| the grid is blocked:                                                NO
 PW_GRID| Cutoff [a.u.]                                                    200.0
 PW_GRID| spherical cutoff:                                                   NO
 PW_GRID|   Bounds   1            -60      59                Points:         120
 PW_GRID|   Bounds   2            -60      59                Points:         120
 PW_GRID|   Bounds   3           -187     187                Points:         375
 PW_GRID| Volume element (a.u.^3)  0.3040E-02     Volume (a.u.^3)     16414.2734
 PW_GRID| Grid span                                                    FULLSPACE
 PW_GRID|   Distribution                         Average         Max         Min
 PW_GRID|   G-Vectors                            67500.0       68520       66240
 PW_GRID|   G-Rays                                 562.5         571         552
 PW_GRID|   Real Space Points                    67500.0       90000       45000

 PW_GRID| Information for grid number                                          3
 PW_GRID| Grid distributed over                                    80 processors
 PW_GRID| Real space group dimensions                                     8   10
 PW_GRID| the grid is blocked:                                                NO
 PW_GRID| Cutoff [a.u.]                                                     66.7
 PW_GRID| spherical cutoff:                                                   NO
 PW_GRID|   Bounds   1            -36      35                Points:          72
 PW_GRID|   Bounds   2            -36      35                Points:          72
 PW_GRID|   Bounds   3           -108     107                Points:         216
 PW_GRID| Volume element (a.u.^3)  0.1466E-01     Volume (a.u.^3)     16414.2734
 PW_GRID| Grid span                                                    FULLSPACE
 PW_GRID|   Distribution                         Average         Max         Min
 PW_GRID|   G-Vectors                            13996.8       14976       12816
 PW_GRID|   G-Rays                                 194.4         208         178
 PW_GRID|   Real Space Points                    13996.8       15552       13608

 PW_GRID| Information for grid number                                          4
 PW_GRID| Grid distributed over                                    80 processors
 PW_GRID| Real space group dimensions                                     8   10
 PW_GRID| the grid is blocked:                                                NO
 PW_GRID| Cutoff [a.u.]                                                     22.2
 PW_GRID| spherical cutoff:                                                   NO
 PW_GRID|   Bounds   1            -20      19                Points:          40
 PW_GRID|   Bounds   2            -20      19                Points:          40
 PW_GRID|   Bounds   3            -62      62                Points:         125
 PW_GRID| Volume element (a.u.^3)  0.8207E-01     Volume (a.u.^3)     16414.2734
 PW_GRID| Grid span                                                    FULLSPACE
 PW_GRID|   Distribution                         Average         Max         Min
 PW_GRID|   G-Vectors                             2500.0        2960        2040
 PW_GRID|   G-Rays                                  62.5          74          51
 PW_GRID|   Real Space Points                     2500.0        2500        2500

 PW_GRID| Information for grid number                                          5
 PW_GRID| Grid distributed over                                    80 processors
 PW_GRID| Real space group dimensions                                     8   10
 PW_GRID| the grid is blocked:                                                NO
 PW_GRID| Cutoff [a.u.]                                                      7.4
 PW_GRID| spherical cutoff:                                                   NO
 PW_GRID|   Bounds   1            -12      11                Points:          24
 PW_GRID|   Bounds   2            -12      11                Points:          24
 PW_GRID|   Bounds   3            -36      35                Points:          72
 PW_GRID| Volume element (a.u.^3)  0.3958         Volume (a.u.^3)     16414.2734
 PW_GRID| Grid span                                                    FULLSPACE
 PW_GRID|   Distribution                         Average         Max         Min
 PW_GRID|   G-Vectors                              518.4         648         240
 PW_GRID|   G-Rays                                  21.6          27          10
 PW_GRID|   Real Space Points                      518.4         648         432

 POISSON| Solver                                                        PERIODIC
 POISSON| Periodicity                                                        XYZ

 RS_GRID| Information for grid number                                          1
 RS_GRID|   Bounds   1           -100      99                Points:         200
 RS_GRID|   Bounds   2           -100      99                Points:         200
 RS_GRID|   Bounds   3           -324     323                Points:         648
 RS_GRID| Real space distribution over                                 80 groups
 RS_GRID| Real space distribution along direction                              3
 RS_GRID| Border size                                                         73
 RS_GRID|   Distribution                         Average         Max         Min
 RS_GRID|   Planes                                 154.1         155         154

 RS_GRID| Information for grid number                                          2
 RS_GRID|   Bounds   1            -60      59                Points:         120
 RS_GRID|   Bounds   2            -60      59                Points:         120
 RS_GRID|   Bounds   3           -187     187                Points:         375
 RS_GRID| Real space distribution over                                 80 groups
 RS_GRID| Real space distribution along direction                              3
 RS_GRID| Border size                                                         45
 RS_GRID|   Distribution                         Average         Max         Min
 RS_GRID|   Planes                                  94.7          95          94

 RS_GRID| Information for grid number                                          3
 RS_GRID|   Bounds   1            -36      35                Points:          72
 RS_GRID|   Bounds   2            -36      35                Points:          72
 RS_GRID|   Bounds   3           -108     107                Points:         216
 RS_GRID| Real space fully replicated
 RS_GRID| Group size                                                           1

 RS_GRID| Information for grid number                                          4
 RS_GRID|   Bounds   1            -20      19                Points:          40
 RS_GRID|   Bounds   2            -20      19                Points:          40
 RS_GRID|   Bounds   3            -62      62                Points:         125
 RS_GRID| Real space fully replicated
 RS_GRID| Group size                                                           1

 RS_GRID| Information for grid number                                          5
 RS_GRID|   Bounds   1            -12      11                Points:          24
 RS_GRID|   Bounds   2            -12      11                Points:          24
 RS_GRID|   Bounds   3            -36      35                Points:          72
 RS_GRID| Real space fully replicated
[...]
 flops    13 x     5 x    46           1384274320     100.0%      0.0%      0.0%
 flops     5 x    13 x    46           1392957280     100.0%      0.0%      0.0%
 flops    13 x    14 x     5           1439756500     100.0%      0.0%      0.0%
 flops     5 x    14 x    13           1439756500     100.0%      0.0%      0.0%
 flops     5 x    25 x    46           3117454500     100.0%      0.0%      0.0%
 flops    25 x     5 x    46           3136820500     100.0%      0.0%      0.0%
 flops    25 x    14 x     5           3242491000     100.0%      0.0%      0.0%
 flops     5 x    14 x    25           3242491000     100.0%      0.0%      0.0%
 flops    13 x    32 x    32           3703930880     100.0%      0.0%      0.0%
 flops    25 x    32 x    32           6930432000     100.0%      0.0%      0.0%
 flops   174 x    46 x    46          12173635776     100.0%      0.0%      0.0%
 flops    13 x     5 x    32          18296495360     100.0%      0.0%      0.0%
 flops     5 x    13 x    32          18411261440     100.0%      0.0%      0.0%
 flops   160 x    46 x    46          33582443520     100.0%      0.0%      0.0%
 flops     5 x    25 x    32          41204616000     100.0%      0.0%      0.0%
 flops    25 x     5 x    32          41460584000     100.0%      0.0%      0.0%
 flops   174 x    46 x   128          57087857664     100.0%      0.0%      0.0%
 flops   174 x    46 x   139          61993845432     100.0%      0.0%      0.0%
 flops    13 x    32 x     5          65817440000     100.0%      0.0%      0.0%
 flops     5 x    32 x    13          65817440000     100.0%      0.0%      0.0%
 flops   690 x    46 x    46          74859170880     100.0%      0.0%      0.0%
 flops   696 x    46 x    46          75510120192     100.0%      0.0%      0.0%
 flops   174 x    46 x   127         113283717552     100.0%      0.0%      0.0%
 flops    13 x    13 x    46         132970196424     100.0%      0.0%      0.0%
 flops    13 x    14 x    13         135582200936     100.0%      0.0%      0.0%
 flops    25 x    32 x     5         148228160000     100.0%      0.0%      0.0%
 flops     5 x    32 x    25         148228160000     100.0%      0.0%      0.0%
 flops   160 x    46 x   128         157483745280     100.0%      0.0%      0.0%
 flops   174 x    46 x    32         160903707648     100.0%      0.0%      0.0%
 flops   174 x    32 x    46         160903707648     100.0%      0.0%      0.0%
 flops   160 x    46 x   139         171017504640     100.0%      0.0%      0.0%
 flops   690 x    46 x   128         190135296000     100.0%      0.0%      0.0%
 flops   696 x    46 x   128         191788646400     100.0%      0.0%      0.0%
 flops   690 x    46 x   139         206475048000     100.0%      0.0%      0.0%
 flops   696 x    46 x   139         208270483200     100.0%      0.0%      0.0%
 flops    25 x    13 x    46         281982773800     100.0%      0.0%      0.0%
 flops    13 x    25 x    46         292674744700     100.0%      0.0%      0.0%
 flops    13 x    14 x    25         297878244300     100.0%      0.0%      0.0%
 flops    25 x    14 x    13         297878244300     100.0%      0.0%      0.0%
 flops   160 x    46 x   127         312506807040     100.0%      0.0%      0.0%
 flops   690 x    46 x   127         377299728000     100.0%      0.0%      0.0%
 flops   696 x    46 x   127         380580595200     100.0%      0.0%      0.0%
 flops   160 x    32 x    46         443872296960     100.0%      0.0%      0.0%
 flops   160 x    46 x    32         443872296960     100.0%      0.0%      0.0%
 flops    25 x    25 x    46         574218000000     100.0%      0.0%      0.0%
 flops    25 x    14 x    25         587139840000     100.0%      0.0%      0.0%
 flops   174 x    32 x   128         754552553472     100.0%      0.0%      0.0%
 flops   174 x    32 x   139         819396913536     100.0%      0.0%      0.0%
 flops   690 x    32 x    46         989442954240     100.0%      0.0%      0.0%
 flops   690 x    46 x    32         989442954240     100.0%      0.0%      0.0%
 flops   696 x    46 x    32         998046806016     100.0%      0.0%      0.0%
 flops   696 x    32 x    46         998046806016     100.0%      0.0%      0.0%
 flops   174 x    32 x   127        1497315223296     100.0%      0.0%      0.0%
 flops    13 x    13 x    32        1757519117952     100.0%      0.0%      0.0%
 flops   160 x    32 x   128        2081524285440     100.0%      0.0%      0.0%
 flops   174 x    32 x    32        2126727266304     100.0%      0.0%      0.0%
 flops   160 x    32 x   139        2260405278720     100.0%      0.0%      0.0%
 flops   690 x    32 x   128        2513092608000     100.0%      0.0%      0.0%
 flops   696 x    32 x   128        2534945587200     100.0%      0.0%      0.0%
 flops   690 x    32 x   139        2729061504000     100.0%      0.0%      0.0%
 flops   696 x    32 x   139        2752792473600     100.0%      0.0%      0.0%
 flops    25 x    13 x    32        3727076662400     100.0%      0.0%      0.0%
 flops    13 x    25 x    32        3868396625600     100.0%      0.0%      0.0%
 flops   160 x    32 x   127        4130524753920     100.0%      0.0%      0.0%
 flops   690 x    32 x   127        4986918144000     100.0%      0.0%      0.0%
 flops   696 x    32 x   127        5030282649600     100.0%      0.0%      0.0%
 flops   160 x    32 x    32        5866833838080     100.0%      0.0%      0.0%
 flops    13 x    32 x    13        6198043471360     100.0%      0.0%      0.0%
 flops    25 x    25 x    32        7589664000000     100.0%      0.0%      0.0%
 flops   690 x    32 x    32       13077854699520     100.0%      0.0%      0.0%
 flops   696 x    32 x    32       13191575175168     100.0%      0.0%      0.0%
 flops    13 x    32 x    25       13617291168000     100.0%      0.0%      0.0%
 flops    25 x    32 x    13       13617291168000     100.0%      0.0%      0.0%
 flops    25 x    32 x    25       26840678400000     100.0%      0.0%      0.0%
 flops inhomo. stacks              28975419479808     100.0%      0.0%      0.0%
 flops total                       183.531942E+12     100.0%      0.0%      0.0%
 flops max/rank                      3.159334E+12     100.0%      0.0%      0.0%
 matmuls inhomo. stacks                   8439680     100.0%      0.0%      0.0%
 matmuls total                         3597669134     100.0%      0.0%      0.0%
 number of processed stacks             153360208     100.0%      0.0%      0.0%
 average stack size                                    23.5       0.0       0.0
 marketing flops                   204.537382E+12
 -------------------------------------------------------------------------------
 # multiplications                          52997
 max memory usage/rank             965.292032E+06
 # max total images/rank                        5
 # max 3D layers                                1
 # MPI messages exchanged               483332640
 MPI messages size (bytes):
  total size                        28.357249E+12
  min size                           0.000000E+00
  max size                         913.152000E+03
  average size                      58.670254E+03
 MPI breakdown and total messages size (bytes):
             size <=      128             1535960                        0
       128 < size <=     8192           201345584            1649423024128
      8192 < size <=    32768            92719126            2549991561344
     32768 < size <=   131072           132448050            5248137609024
    131072 < size <=  4194304            55283920           18927712611248
   4194304 < size <= 16777216                   0                        0
  16777216 < size                               0                        0
 -------------------------------------------------------------------------------

 *** WARNING in dbcsr/mm/dbcsr_mm.F:268 :: Using a non-square number of ***
 *** MPI ranks might lead to poor performance.                          ***
 *** Used ranks: 80                                                     ***
 *** Suggested: 81 169                                                  ***

 -------------------------------------------------------------------------------
 
 MEMORY| Estimated peak process memory [MiB]                                 925

 -------------------------------------------------------------------------------
 ----                             MULTIGRID INFO                            ----
 -------------------------------------------------------------------------------
 count for grid        1:        1149465          cutoff [a.u.]          600.00
 count for grid        2:        8123362          cutoff [a.u.]          200.00
 count for grid        3:        7264576          cutoff [a.u.]           66.67
 count for grid        4:       10849463          cutoff [a.u.]           22.22
 count for grid        5:       10060353          cutoff [a.u.]            7.41
 total gridlevel count  :       37447219

 -------------------------------------------------------------------------------
 -                                                                             -
 -                         MESSAGE PASSING PERFORMANCE                         -
 -                                                                             -
 -------------------------------------------------------------------------------

 ROUTINE             CALLS      AVE VOLUME [Bytes]
 MP_Group             3499
 MP_Bcast            54512                  18298.
 MP_Allreduce       420697                    140.
 MP_Sync              2318
 MP_Alltoall        267507                2801415.
 MP_SendRecv         27492                   5261.
 MP_ISendRecv      1340472                  49867.
 MP_Wait          11996473
 MP_comm_split        2313
 MP_ISend         13721288                  55450.
 MP_IRecv         13721288                  55374.
 MP_Recv              1634                  81696.
 MP_Memory         5946004
 -------------------------------------------------------------------------------


 -------------------------------------------------------------------------------
 -                                                                             -
 -                           R E F E R E N C E S                               -
 -                                                                             -
 -------------------------------------------------------------------------------
 
 CP2K version 7.0 (Development Version), the CP2K developers group (2018).
 CP2K is freely available from https://www.cp2k.org/ .

 Schuett, Ole; Messmer, Peter; Hutter, Juerg; VandeVondele, Joost. 
 Electronic Structure Calculations on Graphics Processing Units, John Wiley & Sons, Ltd, 173-190 (2016). 
 GPU-Accelerated Sparse Matrix-Matrix Multiplication for Linear Scaling Density Functional Theory.
 http://dx.doi.org/10.1002/9781118670712.ch8


 Borstnik, U; VandeVondele, J; Weber, V; Hutter, J. 
 PARALLEL COMPUTING, 40 (5-6), 47-58 (2014). 
 Sparse matrix multiplication: The distributed block-compressed sparse
 row library.
 http://dx.doi.org/10.1016/j.parco.2014.03.012


 Hutter, J; Iannuzzi, M; Schiffmann, F; VandeVondele, J. 
 WILEY INTERDISCIPLINARY REVIEWS-COMPUTATIONAL MOLECULAR SCIENCE, 4 (1), 15-25 (2014). 
 CP2K: atomistic simulations of condensed matter systems.
 http://dx.doi.org/10.1002/wcms.1159


 Grimme, S; Ehrlich, S; Goerigk, L. 
 JOURNAL OF COMPUTATIONAL CHEMISTRY, 32, 1456 (2011). 
 Effect of the damping function in dispersion corrected density functional theory.
 http://dx.doi.org/10.1002/jcc.21759


 Grimme, S; Antony, J; Ehrlich, S; Krieg, H. 
 JOURNAL OF CHEMICAL PHYSICS, 132 (15), 154104 (2010). 
 A consistent and accurate ab initio parametrization of density
 functional dispersion correction (DFT-D) for the 94 elements H-Pu.
 http://dx.doi.org/10.1063/1.3382344


 VandeVondele, J; Hutter, J. 
 JOURNAL OF CHEMICAL PHYSICS, 127 (11), 114105 (2007). 
 Gaussian basis sets for accurate calculations on molecular systems in
 gas and condensed phases.
 http://dx.doi.org/10.1063/1.2770708


 Krack, M. 
 THEORETICAL CHEMISTRY ACCOUNTS, 114 (1-3), 145-152 (2005). 
 Pseudopotentials for H to Kr optimized for gradient-corrected
 exchange-correlation functionals.
 http://dx.doi.org/10.1007/s00214-005-0655-y


 VandeVondele, J; Krack, M; Mohamed, F; Parrinello, M; Chassaing, T;
 Hutter, J. COMPUTER PHYSICS COMMUNICATIONS, 167 (2), 103-128 (2005). 
 QUICKSTEP: Fast and accurate density functional calculations using a
 mixed Gaussian and plane waves approach.
 http://dx.doi.org/10.1016/j.cpc.2004.12.014


 Frigo, M; Johnson, SG. 
 PROCEEDINGS OF THE IEEE, 93 (2), 216-231 (2005). 
 The design and implementation of FFTW3.
 http://dx.doi.org/10.1109/JPROC.2004.840301


 Kolafa, J. 
 JOURNAL OF COMPUTATIONAL CHEMISTRY, 25 (3), 335-342 (2004). 
 Time-reversible always stable predictor-corrector method for molecular dynamics of polarizable molecules.
 http://dx.doi.org/10.1002/jcc.10385


 VandeVondele, J; Hutter, J. 
 JOURNAL OF CHEMICAL PHYSICS, 118 (10), 4365-4369 (2003). 
 An efficient orbital transformation method for electronic structure
 calculations.
 http://dx.doi.org/10.1063/1.1543154


 Hartwigsen, C; Goedecker, S; Hutter, J. 
 PHYSICAL REVIEW B, 58 (7), 3641-3662 (1998). 
 Relativistic separable dual-space Gaussian pseudopotentials from H to Rn.
 http://dx.doi.org/10.1103/PhysRevB.58.3641


 Lippert, G; Hutter, J; Parrinello, M. 
 MOLECULAR PHYSICS, 92 (3), 477-487 (1997). 
 A hybrid Gaussian and plane wave density functional scheme.
 http://dx.doi.org/10.1080/002689797170220


 Perdew, JP; Burke, K; Ernzerhof, M. 
 PHYSICAL REVIEW LETTERS, 77 (18), 3865-3868 (1996). 
 Generalized gradient approximation made simple.
 http://dx.doi.org/10.1103/PhysRevLett.77.3865


 Goedecker, S; Teter, M; Hutter, J. 
 PHYSICAL REVIEW B, 54 (3), 1703-1710 (1996). 
 Separable dual-space Gaussian pseudopotentials.
 http://dx.doi.org/10.1103/PhysRevB.54.1703


 -------------------------------------------------------------------------------
 -                                                                             -
 -                                T I M I N G                                  -
 -                                                                             -
 -------------------------------------------------------------------------------
 SUBROUTINE                       CALLS  ASD         SELF TIME        TOTAL TIME
                                MAXIMUM       AVERAGE  MAXIMUM  AVERAGE  MAXIMUM
 CP2K                                 1  1.0     0.20     0.27 15522.38 15522.44
 cp_geo_opt                           1  2.0     0.06     0.07 15521.05 15521.06
 geoopt_bfgs                          1  3.0     0.08     0.20 15520.99 15521.02
 cp_eval_at                          88  4.0     0.04     0.10 15482.73 15482.78
 qs_forces                           87  5.0     0.03     0.07 15392.23 15392.26
 qs_energies                         88  6.0     0.04     0.09 14777.86 14777.97
 scf_env_do_scf                      88  7.0     0.02     0.11 14319.95 14320.01
 scf_env_do_scf_inner_loop         3625  8.0     0.19     0.39 13581.87 13581.93
 rebuild_ks_matrix                 3712  9.9     0.01     0.03  6253.32  6254.77
 qs_ks_build_kohn_sham_matrix      3712 10.9     0.77     1.95  6253.30  6254.76
 qs_rho_update_rho                 3713  9.0     0.02     0.04  6211.83  6218.97
 calculate_rho_elec                3713 10.0  3493.51  3761.73  6211.80  6218.93
 qs_ks_update_qs_env               3719  9.0     0.03     0.04  5721.39  5723.25
 sum_up_and_integrate              1943 11.9     6.63     8.25  3665.87  3666.62
 integrate_v_rspace                1943 12.9  2216.31  2378.88  3659.24  3660.96
 pw_transfer                      60356 13.4     6.43     7.46  2837.95  2844.97
 fft_wrap_pw1pw2                  52932 14.4     0.63     0.73  2811.82  2819.27
 rs_pw_transfer                   28631 13.0     0.34     0.39  2496.74  2570.16
 fft_wrap_pw1pw2_600              30308 15.7   164.30   194.68  2544.87  2551.09
 density_rs2pw                     3713 11.0     0.27     0.31  2463.09  2549.96
 fft3d_ps                         52932 16.4   566.98   651.82  2428.89  2466.04
 qs_vxc_create                     3712 11.9     0.06     0.09  2069.77  2077.76
 qs_scf_new_mos                    3625  9.0     0.03     0.05  2058.82  2060.46
 qs_scf_loop_do_ot                 3625 10.0     0.19     0.41  2058.79  2060.43
 dbcsr_multiply_generic           52997 13.8     3.17     4.66  2045.37  2049.55
 ot_scf_mini                       3625 11.0     0.23     0.38  1886.07  1887.77
 mp_alltoall_z22v                 52932 18.4  1621.73  1768.55  1621.73  1768.55
 mp_waitall_1                   ******* 16.8  1662.35  1741.07  1662.35  1741.07
 mp_waitany                     1188924 14.9  1565.77  1689.32  1565.77  1689.32
 multiply_cannon                  52997 14.8    16.08    16.90  1474.86  1502.48
 xc_vxc_pw_create                  1943 12.9    60.64    75.10  1468.20  1476.02
 rs_pw_transfer_RS2PW_600          3889 12.9   215.38   250.61  1222.95  1303.95
 xc_rho_set_and_dset_create        3712 13.9    11.00    12.45  1130.14  1159.22
 x_to_yz                          20678 18.0    86.40   109.94   986.98  1020.02
 potential_pw2rs                   1943 13.9     0.85     1.11   992.23   993.97
 multiply_cannon_metrocomm3     1059940 15.8     2.78     2.94   851.92   955.08
 ot_mini                           3625 12.0     0.02     0.04   930.02   931.12
 yz_to_x                          15286 17.1    59.18    75.12   772.91   851.61
 init_scf_loop                       94  8.0     0.01     0.02   736.52   736.57
 mp_alltoall_d11v                 44984 15.7   560.43   604.82   560.43   604.82
 xc_exc_calc                       1769 13.0     4.08     4.93   601.51   601.72
 qs_ot_get_derivative              1856 13.0     0.02     0.04   588.44   589.66
 rs_distribute_matrix              5743 12.0     3.23     7.16   535.98   578.30
 qs_ks_update_qs_env_forces          87  6.0     0.00     0.00   552.49   552.67
 multiply_cannon_metrocomm1     1059940 15.8     3.06     3.25   370.79   536.69
 rs_pw_transfer_PW2RS_600          2118 15.5   178.82   200.40   493.18   495.91
 qs_ot_get_p                       3719 11.9     0.04     0.11   465.90   469.23
 prepare_preconditioner              94  9.0     0.00     0.00   457.45   457.64
 cp_fm_syevd                       2313 14.3     0.01     0.03   429.94   450.87
 cp_fm_redistribute_end            2313 15.3   245.59   422.75   250.19   429.76
 make_preconditioner                 94 10.0     0.01     0.02   428.54   428.66
 mp_sum_d                         64291 14.5   342.67   417.46   342.67   417.46
 make_full_all                       94 11.0     0.03     0.05   404.14   404.32
 cp_fm_syevd_base                  2313 15.1   159.76   381.50   159.76   381.50
 mp_sum_l                        252072 14.9   322.16   332.64   322.16   332.64
 ot_new_cg_direction               1856 13.0     0.03     0.06   332.21   332.33
 apply_preconditioner_dbcsr        1950 14.0     0.00     0.01   324.85   325.96
 apply_all                         1950 15.0     0.14     0.23   324.85   325.96
 -------------------------------------------------------------------------------

 The number of warnings for this run is : 2
 
 -------------------------------------------------------------------------------
  **** **** ******  **  PROGRAM ENDED AT                 2019-05-27 10:27:07.936
 ***** ** ***  *** **   PROGRAM RAN ON            blg9141.int.ets1.calculquebec.
 **    ****   ******    PROGRAM RAN BY                                       rzk
 ***** **    ** ** **   PROGRAM PROCESS ID                                418662
  **** **  *******  **  PROGRAM STOPPED IN /lustre03/project/6004141/rzk/GaN-car
                                           bene/06-Formaldehyde/01-H2OC-Nsur
