     156
 i =        1, E =     -6136.6444716672
 Ga        -0.0031983666       -0.0157626183       -0.5347558624
  N        -0.0002860971        1.8585551160        0.6064428402
 Ga        -0.0003421877        1.8278818941        2.6380593495
  N        -0.0034137540       -0.0156282922        3.2695449577
 Ga        -0.0021886310       -0.0150498322        5.2603256487
  N         0.0008094902        1.8596015360        5.8483134080
 Ga         0.0022441451        1.8581495732        7.8482135703
  N         0.0008051455       -0.0150616707        8.4504049086
 Ga         0.0039012368       -0.0153907687       10.4496694966
  N         0.0042054578        1.8599606442       11.0437654810
 Ga         0.0095770057        1.8626630394       13.0352689396
  N         0.0158369085       -0.0099359608       13.6293900347
 Ga         0.0293221430       -0.0104753571       15.6199484264
  N         0.0150877780        1.8567600407       16.2233382924
 Ga         0.0449831898        1.8443818080       18.2883028880
  N         0.0510821099       -0.0318484221       18.7063364630
 Ga        -1.6231774256        2.7900830626        0.3241936383
  N        -1.6247207501        4.6597970095        0.6068581144
 Ga        -1.5957323933        4.6757328596        2.6367270084
  N        -1.6229626650        2.7899310513        3.2282611365
 Ga        -1.6217393865        2.7906151881        5.2398780265
  N        -1.6212879696        4.6609164020        5.8465735266
 Ga        -1.6191359219        4.6614328070        7.8452154864
  N        -1.6203616840        2.7918087880        8.4509161045
 Ga        -1.6190517876        2.7952701564       10.4469980841
  N        -1.6173957521        4.6668587575       11.0553673935
 Ga        -1.6179314335        4.6716029839       13.0525825989
  N        -1.6087926726        2.8006893800       13.6547135721
 Ga        -1.5962288997        2.8152886881       15.6580022997
  N        -1.5866041533        4.6828315314       16.3078549793
 Ga        -1.5128195579        4.6781399655       18.3847347041
  N        -1.4619673632        2.8263416018       19.0172612122
 Ga        -3.2436230968        5.5953433813        0.3241209952
  N        -3.2373333125        7.4661140155        0.6066677969
 Ga        -3.2643420226        7.4807977083        2.6381738686
  N        -3.2426870661        5.5952431147        3.2285918545
 Ga        -3.2419017533        5.5960224957        5.2400703596
  N        -3.2358314489        7.4662979266        5.8470406812
 Ga        -3.2358991237        7.4670683562        7.8461285254
  N        -3.2398907532        5.5961694840        8.4492516736
 Ga        -3.2387300759        5.5972732952       10.4446357390
  N        -3.2307939620        7.4657767765       11.0556523521
 Ga        -3.2220373226        7.4629534914       13.0536863141
  N        -3.2337390535        5.5986498833       13.6945842636
 Ga        -3.2223304394        5.5931060731       15.7306039123
  N        -3.2128699330        7.4790956463       16.2633379620
 Ga        -3.1825424365        7.4503316480       18.3213623131
  N        -3.1596706501        5.5884307122       18.8540031124
 Ga         3.2427778167       -0.0154213185        0.3244747737
  N         3.2411936559        1.8546663373        0.6063650821
 Ga         3.2695546395        1.8704251436        2.6371131227
  N         3.2426363507       -0.0154163837        3.2282463664
 Ga         3.2439812660       -0.0146503458        5.2399408513
  N         3.2446048337        1.8555032120        5.8475441603
 Ga         3.2469969139        1.8562405431        7.8469253876
  N         3.2449062834       -0.0147423200        8.4495852073
 Ga         3.2477282315       -0.0140912570       10.4450800123
  N         3.2513053739        1.8568270133       11.0512130929
 Ga         3.2576329166        1.8536747077       13.0483801530
  N         3.2569267648       -0.0168926473       13.6605337156
 Ga         3.2727202445       -0.0179068742       15.6659089104
  N         3.2815400985        1.8591510130       16.2227291486
 Ga         3.3176889671        1.8604566781       18.2480644933
  N         3.3111294099       -0.0280980473       18.7056754043
 Ga         1.6222321307        2.7907845308        0.3240930377
  N         1.6292046749        4.6604340189        0.6071511990
 Ga         1.6011622673        4.6758632133        2.6370592244
  N         1.6227389374        2.7900698704        3.2289980610
 Ga         1.6242237375        2.7909407217        5.2408928272
  N         1.6297115516        4.6611590190        5.8484703739
 Ga         1.6301014837        4.6614921112        7.8482788295
  N         1.6260386403        2.7902790174        8.4493793004
 Ga         1.6292859780        2.7917316422       10.4448633081
  N         1.6276493573        4.6623284087       11.0489006602
 Ga         1.6289524473        4.6635602963       13.0437939790
  N         1.6322769508        2.7877954646       13.6462676899
 Ga         1.6475701478        2.7804755682       15.6405321453
  N         1.6320674357        4.6648818482       16.1831794006
 Ga         1.6769308028        4.6404587566       18.1818514900
  N         1.6843557497        2.7777250542       18.6444526612
 Ga         0.0031082298        5.5957683466       -0.5471274009
  N         0.0059465309        7.4706644655        0.6068339965
 Ga         0.0060561097        7.4383193805        2.6368156644
  N         0.0030007290        5.5951903670        3.2695530109
 Ga         0.0046723677        5.5961947512        5.2597673206
  N         0.0074539286        7.4707070839        5.8477829075
 Ga         0.0088375677        7.4693069708        7.8472417708
  N         0.0049395632        5.5957229681        8.4471351984
 Ga         0.0065388277        5.5971718866       10.4442570166
  N         0.0116493986        7.4692502973       11.0458489605
 Ga         0.0141503948        7.4711240154       13.0382763153
  N         0.0065201225        5.6020858714       13.6470121742
 Ga         0.0049904637        5.6020983327       15.6422374817
  N         0.0347257060        7.4622226040       16.2739709776
 Ga         0.0802858046        7.4297359070       18.3594716096
  N         0.1408095948        5.5778752563       18.9082350826
 Ga         6.4870655597       -0.0149861900        0.3236969733
  N         6.4935896385        1.8551122394        0.6060187866
 Ga         6.4661386510        1.8702570285        2.6369006366
  N         6.4881908723       -0.0153511263        3.2288358714
 Ga         6.4897579151       -0.0146701610        5.2407927430
  N         6.4945326613        1.8558731252        5.8479758480
 Ga         6.4945021725        1.8569076293        7.8474922310
  N         6.4909631641       -0.0136329297        8.4511117338
 Ga         6.4943963352       -0.0113725643       10.4476043473
  N         6.4966773015        1.8610044348       11.0528371314
 Ga         6.5003744775        1.8658114128       13.0499890707
  N         6.4899087826       -0.0078159381       13.6391516545
 Ga         6.5057619297        0.0002788717       15.6416585623
  N         6.5208229169        1.8765547169       16.2359883474
 Ga         6.6569898766        1.9246728747       18.2980970239
  N         6.5623599204       -0.0017599859       18.6503566001
 Ga         4.8675686583        2.7916266656       -0.5413678508
  N         4.8709707188        4.6646829052        0.6068992058
 Ga         4.8708134162        4.6333323547        2.6373713993
  N         4.8682885809        2.7899274775        3.2692192837
 Ga         4.8695629718        2.7911325411        5.2595073795
  N         4.8721788177        4.6652088503        5.8481548518
 Ga         4.8728034698        4.6639867113        7.8477625539
  N         4.8709103406        2.7914100497        8.4502509591
 Ga         4.8736697507        2.7953982406       10.4496319504
  N         4.8797145695        4.6661427026       11.0585653480
 Ga         4.8825918018        4.6703560551       13.0611384209
  N         4.8749245005        2.7955190848       13.6519949675
 Ga         4.8843555932        2.8012092580       15.6651483938
  N         4.8648943235        4.6734683497       16.1726844199
 Ga         4.9300963620        4.6591511743       19.0951647878
  N         4.9556021505        2.7714355200       18.7376417147
 Ga         3.2487650386        5.5948399807        0.3236554453
  N         3.2479668072        7.4655113483        0.6061442922
 Ga         3.2755995235        7.4806610195        2.6377151087
  N         3.2486095390        5.5954840453        3.2290087880
 Ga         3.2499968892        5.5963681879        5.2406666224
  N         3.2504725725        7.4661752613        5.8494283152
 Ga         3.2531741849        7.4666628654        7.8497172007
  N         3.2514379667        5.5959800300        8.4548102282
 Ga         3.2548767369        5.5975157520       10.4537782482
  N         3.2566913628        7.4713485912       11.0514560103
 Ga         3.2583971628        7.4720747522       13.0486185983
  N         3.2487863002        5.5967934039       13.6315540961
 Ga         3.2590191831        5.6059514871       15.6373874483
  N         3.2811059888        7.4884243887       16.1558833039
 Ga         3.3260075777        7.4955048107       18.1709770529
  N         3.3587248323        5.5723635299       18.4683480761
  O         1.5523208134        5.0326214185       21.2555520781
  H         0.9930997597        5.3930893765       20.4870799732
  C         0.7589004999        3.9388982166       21.7944584150
  H         0.0307485711        3.5229914571       21.0046150188
  H         1.5319176067        3.2345269907       22.1793565948
  H         0.3370288033        4.3631574826       22.7389407496
  O         4.2312455126        4.7165572381       21.0756502664
  H         3.2214002192        4.8670133253       21.0757175955
  C         4.5516155082        3.5970279679       21.9427320525
  H         4.1179997302        2.6626222115       21.5598857196
  H         5.6436851614        3.5042607079       21.9648993245
  H         4.1787327615        3.8119551831       22.9522704163
     156
 i =        2, E =     -6136.6546755467
 Ga        -0.0031935896       -0.0158178358       -0.5383597917
  N        -0.0002603293        1.8585451475        0.6072342298
 Ga        -0.0003018657        1.8279477300        2.6382935748
  N        -0.0033667058       -0.0156033740        3.2698179803
 Ga        -0.0021483553       -0.0150497422        5.2603240903
  N         0.0008533675        1.8597009489        5.8483699733
 Ga         0.0022617082        1.8582312998        7.8482830823
  N         0.0009026552       -0.0150577610        8.4507937092
 Ga         0.0038727135       -0.0155371675       10.4501426781
  N         0.0042397721        1.8601026531       11.0428305971
 Ga         0.0101125537        1.8620059279       13.0336580471
  N         0.0157558036       -0.0090639157       13.6317011879
 Ga         0.0301427060       -0.0166832566       15.6238439104
  N         0.0191792471        1.8574484632       16.2308322224
 Ga         0.0455381208        1.8548903740       18.3015689462
  N         0.0468061205       -0.0265434946       18.6928855738
 Ga        -1.6229178691        2.7898918044        0.3236098744
  N        -1.6248545102        4.6596935536        0.6068401889
 Ga        -1.5957621154        4.6756911220        2.6367799595
  N        -1.6230732773        2.7898661463        3.2283521998
 Ga        -1.6217767797        2.7906285106        5.2397950995
  N        -1.6212631168        4.6608938561        5.8464813932
 Ga        -1.6191180377        4.6615811491        7.8451266933
  N        -1.6204161168        2.7919360813        8.4515626839
 Ga        -1.6193015745        2.7954763548       10.4475903694
  N        -1.6175987232        4.6669545415       11.0554222367
 Ga        -1.6176257951        4.6711474710       13.0526276917
  N        -1.6077807926        2.7995396279       13.6548676819
 Ga        -1.5959480107        2.8173760092       15.6566165665
  N        -1.5876671889        4.6803927097       16.3155411405
 Ga        -1.5083642683        4.6694562999       18.3935428272
  N        -1.4792833766        2.8143244834       18.9990364968
 Ga        -3.2436371574        5.5956363854        0.3235558755
  N        -3.2372879261        7.4661118990        0.6075006778
 Ga        -3.2642385849        7.4807301070        2.6384743052
  N        -3.2427617660        5.5950909968        3.2287284430
 Ga        -3.2419208073        5.5960088243        5.2400688821
  N        -3.2357392439        7.4663327409        5.8469461721
 Ga        -3.2357865289        7.4670146807        7.8459984044
  N        -3.2398732176        5.5961817434        8.4496459544
 Ga        -3.2387784253        5.5971585072       10.4449508073
  N        -3.2308265691        7.4655412869       11.0555076221
 Ga        -3.2220041629        7.4632260419       13.0542243950
  N        -3.2356332702        5.5966290897       13.6908107319
 Ga        -3.2207507169        5.5922549692       15.7279887012
  N        -3.2091865413        7.4742036273       16.2709171960
 Ga        -3.1848255805        7.4471500946       18.3270887187
  N        -3.1582365372        5.5828474945       18.8456992612
 Ga         3.2425406623       -0.0155421109        0.3239201887
  N         3.2414410255        1.8547969533        0.6063688619
 Ga         3.2696675535        1.8704534416        2.6372587830
  N         3.2427262623       -0.0152519662        3.2283396565
 Ga         3.2440396221       -0.0145693082        5.2398731576
  N         3.2446707760        1.8555520230        5.8474487951
 Ga         3.2472362751        1.8563077874        7.8467189418
  N         3.2448745361       -0.0146031916        8.4501544026
 Ga         3.2477895980       -0.0141690566       10.4458200661
  N         3.2520262486        1.8571292378       11.0512563907
 Ga         3.2587875506        1.8538707660       13.0486144375
  N         3.2572579100       -0.0163843997       13.6599192136
 Ga         3.2701340957       -0.0200162471       15.6663742007
  N         3.2812411891        1.8546720759       16.2308616868
 Ga         3.3329022843        1.8572781666       18.2558069232
  N         3.3048616802       -0.0251070831       18.7179498352
 Ga         1.6220246555        2.7906032046        0.3235468906
  N         1.6293977733        4.6603266092        0.6071617220
 Ga         1.6012784694        4.6758083385        2.6371190373
  N         1.6229397525        2.7899937007        3.2290863007
 Ga         1.6243411757        2.7909445845        5.2407942232
  N         1.6297830388        4.6611474495        5.8483370737
 Ga         1.6302561519        4.6617158728        7.8482091703
  N         1.6262458444        2.7903604545        8.4499717604
 Ga         1.6295522077        2.7921135184       10.4456044936
  N         1.6276089385        4.6626601036       11.0489445168
 Ga         1.6292016629        4.6647181917       13.0447618656
  N         1.6323009527        2.7875502154       13.6450593380
 Ga         1.6512170782        2.7854214368       15.6394836485
  N         1.6277875724        4.6642139813       16.1852748608
 Ga         1.6780778890        4.6427894628       18.1826912086
  N         1.6961521529        2.7789105157       18.6265530770
 Ga         0.0031683060        5.5957630281       -0.5465732977
  N         0.0059708685        7.4708287926        0.6068557635
 Ga         0.0060971262        7.4383901641        2.6368912430
  N         0.0030505708        5.5951785650        3.2695349421
 Ga         0.0047004105        5.5962272347        5.2597077284
  N         0.0074744227        7.4707595605        5.8477602693
 Ga         0.0089379188        7.4693627630        7.8473213322
  N         0.0049606058        5.5956727551        8.4476367093
 Ga         0.0064240647        5.5972012205       10.4449397066
  N         0.0118671529        7.4693375585       11.0450987482
 Ga         0.0150745800        7.4717798832       13.0375691611
  N         0.0053528233        5.6027162902       13.6442583414
 Ga         0.0047086283        5.6003428046       15.6410230097
  N         0.0392563946        7.4645688319       16.2698827387
 Ga         0.0755348229        7.4420685962       18.3564793524
  N         0.1416643250        5.5891744138       18.8979813373
 Ga         6.4873552988       -0.0151140073        0.3231520833
  N         6.4933908417        1.8552343769        0.6060334005
 Ga         6.4661006944        1.8702834914        2.6370567025
  N         6.4881679202       -0.0151801285        3.2290005239
 Ga         6.4898037942       -0.0145676951        5.2408372059
  N         6.4945892155        1.8559534728        5.8479797782
 Ga         6.4944440638        1.8569117438        7.8474210606
  N         6.4910164597       -0.0134779377        8.4515309176
 Ga         6.4944482430       -0.0110651106       10.4480567197
  N         6.4964120686        1.8612816789       11.0524787545
 Ga         6.5010726218        1.8653344601       13.0491294557
  N         6.4901808603       -0.0059014295       13.6397139956
 Ga         6.5087127676        0.0042198446       15.6426419775
  N         6.5269753192        1.8789992117       16.2490321670
 Ga         6.6420493514        1.9155577768       18.3090467130
  N         6.5664012999       -0.0052460345       18.6561882994
 Ga         4.8676100793        2.7915749717       -0.5397239336
  N         4.8710077894        4.6643933706        0.6069123428
 Ga         4.8708472490        4.6332442520        2.6375496466
  N         4.8683214378        2.7899063526        3.2693040557
 Ga         4.8696420924        2.7911850437        5.2595004660
  N         4.8722595019        4.6651869998        5.8481176792
 Ga         4.8728225326        4.6640394807        7.8476558579
  N         4.8709880983        2.7915084127        8.4503967391
 Ga         4.8740133779        2.7956207244       10.4493328589
  N         4.8798692327        4.6657839666       11.0580646607
 Ga         4.8800883223        4.6699958687       13.0604422402
  N         4.8770810153        2.7959671717       13.6576451914
 Ga         4.8875884049        2.7987103840       15.6744513368
  N         4.8631975433        4.6743572790       16.1650765577
 Ga         4.9327398914        4.6613482996       19.1001753902
  N         4.9586495943        2.7834963193       18.7363414162
 Ga         3.2488333414        5.5951116265        0.3231160726
  N         3.2479712189        7.4654886496        0.6070308420
 Ga         3.2755622489        7.4805929378        2.6380630138
  N         3.2487509860        5.5953241905        3.2291537219
 Ga         3.2501554700        5.5963524080        5.2406754205
  N         3.2505054890        7.4661822507        5.8493983567
 Ga         3.2530942439        7.4666106266        7.8497403921
  N         3.2515961017        5.5959747927        8.4554839543
 Ga         3.2549761105        5.5977136123       10.4547965637
  N         3.2564847133        7.4717297891       11.0505611366
 Ga         3.2577487472        7.4731513337       13.0481179877
  N         3.2490050912        5.5990842108       13.6295525623
 Ga         3.2550414007        5.6070742948       15.6357707839
  N         3.2799962708        7.4874817006       16.1569723377
 Ga         3.3244224789        7.4917132403       18.1691755904
  N         3.3650391959        5.5694783922       18.4660540806
  O         1.5652854078        5.0494283642       21.2205012682
  H         0.9854617098        5.4083472974       20.4744315946
  C         0.8043844382        3.9680544926       21.8142735916
  H         0.0655407854        3.5346582439       21.0624951378
  H         1.4983608157        3.1832043342       22.1440379098
  H         0.2716155298        4.3345048457       22.7076555617
  O         4.2276981169        4.7169860919       21.0729925769
  H         3.2188298446        4.8614976467       21.0794792231
  C         4.5507184807        3.5994343866       21.9415600171
  H         4.1182289166        2.6640429301       21.5606689350
  H         5.6423589834        3.5043307511       21.9649403498
  H         4.1788137917        3.8106816073       22.9519289510
     156
 i =        3, E =     -6136.6560764893
 Ga        -0.0031883040       -0.0158654738       -0.5417448699
  N        -0.0002302772        1.8586405663        0.6074978858
 Ga        -0.0002552551        1.8277972246        2.6380364559
  N        -0.0033223661       -0.0156153216        3.2702233542
 Ga        -0.0021025775       -0.0149940060        5.2605172675
  N         0.0009143611        1.8597852482        5.8489201478
 Ga         0.0024567034        1.8583521284        7.8487391145
  N         0.0010027823       -0.0149688430        8.4503864540
 Ga         0.0040479056       -0.0154075560       10.4493665382
  N         0.0044276356        1.8601111784       11.0439099109
 Ga         0.0116965122        1.8615331929       13.0348041918
  N         0.0165951443       -0.0084997344       13.6359080319
 Ga         0.0318075974       -0.0193508637       15.6289349659
  N         0.0206930417        1.8587305260       16.2371801281
 Ga         0.0458512829        1.8627301385       18.3114917624
  N         0.0458260827       -0.0238106877       18.6815245885
 Ga        -1.6226140621        2.7897927742        0.3234972472
  N        -1.6248226206        4.6596780457        0.6065185999
 Ga        -1.5958098262        4.6756302950        2.6365984420
  N        -1.6230433968        2.7898092444        3.2284447324
 Ga        -1.6217027604        2.7906800648        5.2399060956
  N        -1.6211632757        4.6609419510        5.8468754957
 Ga        -1.6190108603        4.6617215747        7.8454856047
  N        -1.6203155908        2.7920246229        8.4513653456
 Ga        -1.6190981537        2.7954748102       10.4469697634
  N        -1.6176392151        4.6667476260       11.0551793156
 Ga        -1.6178066563        4.6705272658       13.0521665726
  N        -1.6066701824        2.7984857816       13.6574592033
 Ga        -1.5953750836        2.8175085087       15.6573978974
  N        -1.5878352050        4.6764892784       16.3189614994
 Ga        -1.5052885891        4.6652617489       18.3978794354
  N        -1.4871212449        2.8096920163       18.9889383876
 Ga        -3.2435348015        5.5959122223        0.3234597057
  N        -3.2371415228        7.4660492737        0.6077855676
 Ga        -3.2643012550        7.4807748816        2.6382457194
  N        -3.2427619187        5.5950770880        3.2287951246
 Ga        -3.2418436046        5.5960203622        5.2401494340
  N        -3.2356500273        7.4663652607        5.8473638148
 Ga        -3.2356491957        7.4670982158        7.8463679474
  N        -3.2397756208        5.5962729681        8.4497943161
 Ga        -3.2389866856        5.5971267322       10.4450923270
  N        -3.2309392434        7.4656874641       11.0553009705
 Ga        -3.2222598651        7.4633903463       13.0541463669
  N        -3.2361965381        5.5958600319       13.6904333292
 Ga        -3.2189936773        5.5906473189       15.7287305409
  N        -3.2060816278        7.4696656393       16.2741987519
 Ga        -3.1835358894        7.4453531194       18.3284703066
  N        -3.1574258928        5.5802699486       18.8429379308
 Ga         3.2423745357       -0.0157406398        0.3238279164
  N         3.2416951548        1.8549187902        0.6059119044
 Ga         3.2696598174        1.8704067822        2.6371954346
  N         3.2427578889       -0.0152339138        3.2284160638
 Ga         3.2441425319       -0.0145386284        5.2399633070
  N         3.2447274283        1.8555884949        5.8478595760
 Ga         3.2472202432        1.8563222859        7.8470447860
  N         3.2449114524       -0.0144935834        8.4502641934
 Ga         3.2478293004       -0.0139846870       10.4458415825
  N         3.2524576553        1.8574199940       11.0520073129
 Ga         3.2600069760        1.8537228637       13.0493915358
  N         3.2562328161       -0.0160707902       13.6607450149
 Ga         3.2679728185       -0.0211677080       15.6675670953
  N         3.2841692444        1.8514838917       16.2370386800
 Ga         3.3427909955        1.8561326673       18.2623983573
  N         3.3021500050       -0.0212456710       18.7321898495
 Ga         1.6217863326        2.7905082070        0.3234581413
  N         1.6294444926        4.6603089019        0.6068727171
 Ga         1.6014326169        4.6757415710        2.6369572691
  N         1.6230027442        2.7899323428        3.2291940090
 Ga         1.6243948561        2.7910085448        5.2409238413
  N         1.6298350459        4.6612018635        5.8487920644
 Ga         1.6303134869        4.6617885917        7.8486621362
  N         1.6264024813        2.7904724786        8.4500446029
 Ga         1.6298196244        2.7921853718       10.4454260455
  N         1.6275854983        4.6627215192       11.0480009394
 Ga         1.6281475007        4.6651962116       13.0438717566
  N         1.6338075335        2.7880461297       13.6479545546
 Ga         1.6537168246        2.7860394454       15.6430980389
  N         1.6259362165        4.6635851766       16.1820823401
 Ga         1.6799683362        4.6458924608       18.1798289383
  N         1.7032180075        2.7819489927       18.6156624597
 Ga         0.0032269862        5.5957478975       -0.5456283480
  N         0.0060071561        7.4708237087        0.6065769340
 Ga         0.0061575844        7.4384954857        2.6367402644
  N         0.0031006617        5.5951742420        3.2693833456
 Ga         0.0047855111        5.5962645341        5.2597019648
  N         0.0075351009        7.4707626659        5.8482196951
 Ga         0.0089107888        7.4693929955        7.8477834868
  N         0.0050236388        5.5957132067        8.4476065001
 Ga         0.0063996333        5.5973609834       10.4448393360
  N         0.0120083096        7.4695748979       11.0455035282
 Ga         0.0155270629        7.4728223509       13.0386532031
  N         0.0039612554        5.6027976844       13.6441330908
 Ga         0.0041186246        5.6008820153       15.6424973502
  N         0.0418237117        7.4681411525       16.2663920112
 Ga         0.0698623196        7.4497402652       18.3509865986
  N         0.1433426548        5.5960665454       18.8911216792
 Ga         6.4876015549       -0.0153225628        0.3230803946
  N         6.4932076507        1.8553433660        0.6055699235
 Ga         6.4662091829        1.8702225373        2.6369684873
  N         6.4882306581       -0.0151410830        3.2291170173
 Ga         6.4898394772       -0.0145533251        5.2409571596
  N         6.4946819229        1.8559761507        5.8483363643
 Ga         6.4945430824        1.8569736702        7.8476717130
  N         6.4910357574       -0.0133729006        8.4511734661
 Ga         6.4944631235       -0.0107527789       10.4475532654
  N         6.4965149039        1.8617312052       11.0528550734
 Ga         6.5009712099        1.8662281218       13.0493058299
  N         6.4910436842       -0.0033335748       13.6411134080
 Ga         6.5103538568        0.0074180604       15.6448157210
  N         6.5338682021        1.8806022992       16.2616452935
 Ga         6.6379102847        1.9101915578       18.3217106074
  N         6.5659935923       -0.0078779306       18.6598423443
 Ga         4.8676656249        2.7915186631       -0.5371603878
  N         4.8710532772        4.6641194656        0.6064478989
 Ga         4.8708919701        4.6332992611        2.6374758009
  N         4.8683846716        2.7898948135        3.2691981098
 Ga         4.8697189685        2.7912189011        5.2595791588
  N         4.8723220635        4.6652370296        5.8485007793
 Ga         4.8728538816        4.6641897328        7.8480148361
  N         4.8710468057        2.7915271450        8.4500414936
 Ga         4.8740953217        2.7956706464       10.4485847176
  N         4.8795099478        4.6654448177       11.0584493211
 Ga         4.8791866431        4.6692099533       13.0613255250
  N         4.8777876743        2.7959014248       13.6642850879
 Ga         4.8930880664        2.7957366447       15.6837500641
  N         4.8608750830        4.6745837189       16.1581359883
 Ga         4.9346214938        4.6610373218       19.1043526431
  N         4.9632563079        2.7884232946       18.7379324621
 Ga         3.2488094430        5.5953758154        0.3230474036
  N         3.2478981214        7.4654117814        0.6073801395
 Ga         3.2756969644        7.4806383287        2.6378807498
  N         3.2488499406        5.5953115646        3.2292476320
 Ga         3.2501991549        5.5963710326        5.2407757126
  N         3.2505413709        7.4661950955        5.8498253114
 Ga         3.2531569290        7.4666493968        7.8501250435
  N         3.2516134064        5.5960693847        8.4553189343
 Ga         3.2549054810        5.5980459070       10.4546408484
  N         3.2566128797        7.4723498147       11.0503465276
 Ga         3.2579114834        7.4745001433       13.0484845086
  N         3.2479029535        5.6001552542       13.6273418598
 Ga         3.2529973651        5.6101875461       15.6335498920
  N         3.2805242589        7.4883948611       16.1554014186
 Ga         3.3218675464        7.4927439008       18.1651329762
  N         3.3720397057        5.5691277118       18.4582858906
  O         1.5615250674        5.0445683982       21.2239803685
  H         0.9886989067        5.4119406131       20.4736566855
  C         0.7928164049        3.9605524956       21.8000511980