 DBCSR| Multiplication driver                                               BLAS
 DBCSR| Multrec recursion limit                                              512
 DBCSR| Multiplication stack size                                           1000
 DBCSR| Maximum elements for images                                    UNLIMITED
 DBCSR| Multiplicative factor virtual images                                   1
 DBCSR| Multiplication size stacks                                             3
 DBCSR| Number of 3D layers                                               SINGLE
 DBCSR| Use MPI memory allocation                                              T
 DBCSR| Use RMA algorithm                                                      F
 DBCSR| Use Communication thread                                               T
 DBCSR| Communication thread load                                             87


  **** **** ******  **  PROGRAM STARTED AT               2019-06-29 04:03:16.632
 ***** ** ***  *** **   PROGRAM STARTED ON        blg9234.int.ets1.calculquebec.
 **    ****   ******    PROGRAM STARTED BY                                   rzk
 ***** **    ** ** **   PROGRAM PROCESS ID                                157365
  **** **  *******  **  PROGRAM STARTED IN /scratch/rzk/rzk/GaN-carbene/443-adat
                                           oms-both-2x2/07-CH3O-H2O-H3C/01-UseUn
                                           optimized-0501

 CP2K| version string:                    CP2K version 7.0 (Development Version)
 CP2K| source code revision number:                                    svn:18619
 CP2K| cp2kflags: libint fftw3 libxc parallel mpi3 scalapack mkl                
 CP2K| is freely available from                            https://www.cp2k.org/
 CP2K| Program compiled at                          Sun Apr  7 00:48:11 EDT 2019
 CP2K| Program compiled on                      beluga2.int.ets1.calculquebec.ca
 CP2K| Program compiled for                    Beluga-Linux-x86-64-intel-openmpi
 CP2K| Data directory path    /home/rzk/projects/def-rzk/group/cp2k/cp2k-mcgill/
 CP2K| Input file name                                                 start.inp
 
 GLOBAL| Force Environment number                                              1
 GLOBAL| Basis set file name                                        BASIS_MOLOPT
 GLOBAL| Potential file name                                      GTH_POTENTIALS
 GLOBAL| MM Potential file name                                     MM_POTENTIAL
 GLOBAL| Coordinate file name                                      __STD_INPUT__
 GLOBAL| Method name                                                        CP2K
 GLOBAL| Project name                                                       TEST
 GLOBAL| Preferred FFT library                                             FFTW3
 GLOBAL| Preferred diagonalization lib.                                       SL
 GLOBAL| Run type                                                        GEO_OPT
 GLOBAL| All-to-all communication in single precision                          F
 GLOBAL| FFTs using library dependent lengths                                  F
 GLOBAL| Global print level                                               MEDIUM
 GLOBAL| MPI I/O enabled                                                       T
 GLOBAL| Total number of message passing processes                            80
 GLOBAL| Number of threads for this process                                    1
 GLOBAL| This output is from process                                           0
 GLOBAL| CPU model name :  Intel(R) Xeon(R) Gold 6148 CPU @ 2.40GHz

 MEMORY| system memory details [Kb]
 MEMORY|                        rank 0           min           max       average
 MEMORY| MemTotal            196614300     196614300     196614300     196614300
 MEMORY| MemFree             182254268     182254268     182377012     182297426
 MEMORY| Buffers                    76            76            76            76
 MEMORY| Cached                1234692       1230068       2600584       1916347
 MEMORY| Slab                  1687932       1309152       1687932       1498509
 MEMORY| SReclaimable           159464        159176        173504        166395
 MEMORY| MemLikelyFree       183648500     183648500     185151176     184380246


 *** Fundamental physical constants (SI units) ***

 *** Literature: B. J. Mohr and B. N. Taylor,
 ***             CODATA recommended values of the fundamental physical
 ***             constants: 2006, Web Version 5.1
 ***             http://physics.nist.gov/constants

 Speed of light in vacuum [m/s]                             2.99792458000000E+08
 Magnetic constant or permeability of vacuum [N/A**2]       1.25663706143592E-06
 Electric constant or permittivity of vacuum [F/m]          8.85418781762039E-12
 Planck constant (h) [J*s]                                  6.62606896000000E-34
 Planck constant (h-bar) [J*s]                              1.05457162825177E-34
 Elementary charge [C]                                      1.60217648700000E-19
 Electron mass [kg]                                         9.10938215000000E-31
 Electron g factor [ ]                                     -2.00231930436220E+00
 Proton mass [kg]                                           1.67262163700000E-27
 Fine-structure constant                                    7.29735253760000E-03
 Rydberg constant [1/m]                                     1.09737315685270E+07
 Avogadro constant [1/mol]                                  6.02214179000000E+23
 Boltzmann constant [J/K]                                   1.38065040000000E-23
 Atomic mass unit [kg]                                      1.66053878200000E-27
 Bohr radius [m]                                            5.29177208590000E-11

 *** Conversion factors ***

 [u] -> [a.u.]                                              1.82288848426455E+03
 [Angstrom] -> [Bohr] = [a.u.]                              1.88972613288564E+00
 [a.u.] = [Bohr] -> [Angstrom]                              5.29177208590000E-01
 [a.u.] -> [s]                                              2.41888432650478E-17
 [a.u.] -> [fs]                                             2.41888432650478E-02
 [a.u.] -> [J]                                              4.35974393937059E-18
 [a.u.] -> [N]                                              8.23872205491840E-08
 [a.u.] -> [K]                                              3.15774647902944E+05
 [a.u.] -> [kJ/mol]                                         2.62549961709828E+03
 [a.u.] -> [kcal/mol]                                       6.27509468713739E+02
 [a.u.] -> [Pa]                                             2.94210107994716E+13
 [a.u.] -> [bar]                                            2.94210107994716E+08
 [a.u.] -> [atm]                                            2.90362800883016E+08
 [a.u.] -> [eV]                                             2.72113838565563E+01
 [a.u.] -> [Hz]                                             6.57968392072181E+15
 [a.u.] -> [1/cm] (wave numbers)                            2.19474631370540E+05
 [a.u./Bohr**2] -> [1/cm]                                   5.14048714338585E+03
 

 CELL_TOP| Volume [angstrom^3]:                                         4586.323
 CELL_TOP| Vector a [angstrom    12.864     0.000     0.000    |a| =      12.864
 CELL_TOP| Vector b [angstrom    -6.432    11.141     0.000    |b| =      12.864
 CELL_TOP| Vector c [angstrom     0.000     0.000    32.000    |c| =      32.000
 CELL_TOP| Angle (b,c), alpha [degree]:                                   90.000
 CELL_TOP| Angle (a,c), beta  [degree]:                                   90.000
 CELL_TOP| Angle (a,b), gamma [degree]:                                  120.000
 CELL_TOP| Numerically orthorhombic:                                          NO
 
 GENERATE|  Preliminary Number of Bonds generated:                             0
 GENERATE|  Achieved consistency in connectivity generation.

 CELL| Volume [angstrom^3]:                                             4586.323
 CELL| Vector a [angstrom]:      12.864     0.000     0.000    |a| =      12.864
 CELL| Vector b [angstrom]:      -6.432    11.141     0.000    |b| =      12.864
 CELL| Vector c [angstrom]:       0.000     0.000    32.000    |c| =      32.000
 CELL| Angle (b,c), alpha [degree]:                                       90.000
 CELL| Angle (a,c), beta  [degree]:                                       90.000
 CELL| Angle (a,b), gamma [degree]:                                      120.000
 CELL| Numerically orthorhombic:                                              NO

 CELL_REF| Volume [angstrom^3]:                                         4670.759
 CELL_REF| Vector a [angstrom    12.982     0.000     0.000    |a| =      12.982
 CELL_REF| Vector b [angstrom    -6.491    11.243     0.000    |b| =      12.982
 CELL_REF| Vector c [angstrom     0.000     0.000    32.000    |c| =      32.000
 CELL_REF| Angle (b,c), alpha [degree]:                                   90.000
 CELL_REF| Angle (a,c), beta  [degree]:                                   90.000
 CELL_REF| Angle (a,b), gamma [degree]:                                  120.000
 CELL_REF| Numerically orthorhombic:                                          NO

 *******************************************************************************
 *******************************************************************************
 **                                                                           **
 **     #####                         ##              ##                      **
 **    ##   ##            ##          ##              ##                      **
 **   ##     ##                       ##            ######                    **
 **   ##     ##  ##   ##  ##   #####  ##  ##   ####   ##    #####    #####    **
 **   ##     ##  ##   ##  ##  ##      ## ##   ##      ##   ##   ##  ##   ##   **
 **   ##  ## ##  ##   ##  ##  ##      ####     ###    ##   ######   ######    **
 **    ##  ###   ##   ##  ##  ##      ## ##      ##   ##   ##       ##        **
 **     #######   #####   ##   #####  ##  ##  ####    ##    #####   ##        **
 **           ##                                                    ##        **
 **                                                                           **
 **                                                ... make the atoms dance   **
 **                                                                           **
 **            Copyright (C) by CP2K developers group (2000 - 2018)           **
 **                                                                           **
 *******************************************************************************

 DFT| Spin unrestricted (spin-polarized) Kohn-Sham calculation               UKS
 DFT| Multiplicity                                                             1
 DFT| Number of spin states                                                    2
 DFT| Charge                                                                   0
 DFT| Self-interaction correction (SIC)                                       NO
 DFT| Cutoffs: density                                              1.000000E-10
 DFT|          gradient                                             1.000000E-10
 DFT|          tau                                                  1.000000E-10
 DFT|          cutoff_smoothing_range                               0.000000E+00
 DFT| XC density smoothing                                                  NONE
 DFT| XC derivatives                                                          PW
 FUNCTIONAL| ROUTINE=NEW
 FUNCTIONAL| PBE:
 FUNCTIONAL| J.P.Perdew, K.Burke, M.Ernzerhof, Phys. Rev. Letter, vol. 77, n 18,
 FUNCTIONAL|  pp. 3865-3868, (1996){spin polarized}                             
 vdW POTENTIAL|                                                   Pair Potential
 vdW POTENTIAL|          DFT-D3 (Version 3.1)
 vdW POTENTIAL|          Potential Form: S. Grimme et al, JCP 132: 154104 (2010)
 vdW POTENTIAL|          Zero Damping
 vdW POTENTIAL|          Cutoff Radius [Bohr]:                             18.90
 vdW POTENTIAL|          s6 Scaling Factor:                               1.0000
 vdW POTENTIAL|          sr6 Scaling Factor:                              1.2170
 vdW POTENTIAL|          s8 Scaling Factor:                               0.7220
 vdW POTENTIAL|          Cutoff for CN calculation:                   0.1000E-05

 QS| Method:                                                                 GPW
 QS| Density plane wave grid type                        NON-SPHERICAL FULLSPACE
 QS| Number of grid levels:                                                    5
 QS| Density cutoff [a.u.]:                                                600.0
 QS| Multi grid cutoff [a.u.]: 1) grid level                               600.0
 QS|                           2) grid level                               200.0
 QS|                           3) grid level                                66.7
 QS|                           4) grid level                                22.2
 QS|                           5) grid level                                 7.4
 QS| Grid level progression factor:                                          3.0
 QS| Relative density cutoff [a.u.]:                                        20.0
 QS| Consistent realspace mapping and integration 
 QS| Interaction thresholds: eps_pgf_orb:                                1.0E-07
 QS|                         eps_filter_matrix:                          0.0E+00
 QS|                         eps_core_charge:                            1.0E-16
 QS|                         eps_rho_gspace:                             1.0E-14
 QS|                         eps_rho_rspace:                             1.0E-14
 QS|                         eps_gvg_rspace:                             1.0E-07
 QS|                         eps_ppl:                                    1.0E-02
 QS|                         eps_ppnl:                                   1.0E-09


 ATOMIC KIND INFORMATION

  1. Atomic kind: N                                     Number of atoms:     100

     Orbital Basis Set                                        DZVP-MOLOPT-SR-GTH

       Number of orbital shell sets:                                           1
       Number of orbital shells:                                               5
       Number of primitive Cartesian functions:                                5
       Number of Cartesian basis functions:                                   14
       Number of spherical basis functions:                                   13
       Norm type:                                                              2

       Normalised Cartesian orbitals:

                        Set   Shell   Orbital            Exponent    Coefficient

                          1       1    2s                7.341988       0.360561
                                                         2.542637       0.139177
                                                         0.888575      -0.289383
                                                         0.333802      -0.182244
                                                         0.112012      -0.019197

                          1       2    3s                7.341988       0.282000
                                                         2.542637       0.177875
                                                         0.888575      -0.278381
                                                         0.333802       0.008577
                                                         0.112012       0.154176

                          1       3    3px               7.341988      -1.188719
                                                         2.542637      -0.973969
                                                         0.888575      -0.501079
                                                         0.333802      -0.144894
                                                         0.112012      -0.013986
                          1       3    3py               7.341988      -1.188719
                                                         2.542637      -0.973969
                                                         0.888575      -0.501079
                                                         0.333802      -0.144894
                                                         0.112012      -0.013986
                          1       3    3pz               7.341988      -1.188719
                                                         2.542637      -0.973969
                                                         0.888575      -0.501079
                                                         0.333802      -0.144894
                                                         0.112012      -0.013986

                          1       4    4px               7.341988      -0.094798
                                                         2.542637       0.050069
                                                         0.888575      -0.114797
                                                         0.333802       0.144793
                                                         0.112012       0.066710
                          1       4    4py               7.341988      -0.094798
                                                         2.542637       0.050069
                                                         0.888575      -0.114797
                                                         0.333802       0.144793
                                                         0.112012       0.066710
                          1       4    4pz               7.341988      -0.094798
                                                         2.542637       0.050069
                                                         0.888575      -0.114797
                                                         0.333802       0.144793
                                                         0.112012       0.066710

                          1       5    4dx2              7.341988       1.354688
                                                         2.542637       0.690378
                                                         0.888575       0.855359
                                                         0.333802       0.091746
                                                         0.112012       0.001253
                          1       5    4dxy              7.341988       2.346389
                                                         2.542637       1.195770
                                                         0.888575       1.481524
                                                         0.333802       0.158910
                                                         0.112012       0.002169
                          1       5    4dxz              7.341988       2.346389
                                                         2.542637       1.195770
                                                         0.888575       1.481524
                                                         0.333802       0.158910
                                                         0.112012       0.002169
                          1       5    4dy2              7.341988       1.354688
                                                         2.542637       0.690378
                                                         0.888575       0.855359
                                                         0.333802       0.091746
                                                         0.112012       0.001253
                          1       5    4dyz              7.341988       2.346389
                                                         2.542637       1.195770
                                                         0.888575       1.481524
                                                         0.333802       0.158910
                                                         0.112012       0.002169
                          1       5    4dz2              7.341988       1.354688
                                                         2.542637       0.690378
                                                         0.888575       0.855359
                                                         0.333802       0.091746
                                                         0.112012       0.001253

     GTH Potential information for                                    GTH-PBE-q5

       Description:                       Goedecker-Teter-Hutter pseudopotential
                                           Goedecker et al., PRB 54, 1703 (1996)
                                          Hartwigsen et al., PRB 58, 3641 (1998)
                                                      Krack, TCA 114, 145 (2005)

       Gaussian exponent of the core charge distribution:               6.208322
       Electronic configuration (s p d ...):                               2   3

       Parameters of the local part of the GTH pseudopotential:

                          rloc        C1          C2          C3          C4
                        0.283791  -12.415226    1.868096

       Parameters of the non-local part of the GTH pseudopotential:

                   l      r(l)      h(i,j,l)

                   0    0.255405   13.630263
                   1    0.245495

  2. Atomic kind: Ga                                    Number of atoms:     100

     Orbital Basis Set                                        DZVP-MOLOPT-SR-GTH

       Number of orbital shell sets:                                           1
       Number of orbital shells:                                               7
       Number of primitive Cartesian functions:                                6
       Number of Cartesian basis functions:                                   30
       Number of spherical basis functions:                                   25
       Norm type:                                                              2

       Normalised Cartesian orbitals:

                        Set   Shell   Orbital            Exponent    Coefficient

                          1       1    2s                7.066654       0.013136
                                                         3.428369      -0.094392
                                                         1.430064       0.265435
                                                         0.571611       0.056465
                                                         0.232197      -0.192187
                                                         0.076562      -0.044987

                          1       2    3s                7.066654      -0.098564
                                                         3.428369       0.010390
                                                         1.430064       0.351249
                                                         0.571611       0.182615
                                                         0.232197      -0.425358
                                                         0.076562       0.190349

                          1       3    3px               7.066654       0.002364
                                                         3.428369       0.019222
                                                         1.430064       0.250132
                                                         0.571611      -0.058486
                                                         0.232197      -0.159451
                                                         0.076562      -0.020696
                          1       3    3py               7.066654       0.002364
                                                         3.428369       0.019222
                                                         1.430064       0.250132
                                                         0.571611      -0.058486
                                                         0.232197      -0.159451
                                                         0.076562      -0.020696
                          1       3    3pz               7.066654       0.002364
                                                         3.428369       0.019222
                                                         1.430064       0.250132
                                                         0.571611      -0.058486
                                                         0.232197      -0.159451
                                                         0.076562      -0.020696

                          1       4    4px               7.066654       0.492448
                                                         3.428369      -0.614736
                                                         1.430064      -0.191654
                                                         0.571611       0.037801
                                                         0.232197       0.302315
                                                         0.076562      -0.071336
                          1       4    4py               7.066654       0.492448
                                                         3.428369      -0.614736
                                                         1.430064      -0.191654
                                                         0.571611       0.037801
                                                         0.232197       0.302315
                                                         0.076562      -0.071336
                          1       4    4pz               7.066654       0.492448
                                                         3.428369      -0.614736
                                                         1.430064      -0.191654
                                                         0.571611       0.037801
                                                         0.232197       0.302315
                                                         0.076562      -0.071336

                          1       5    4dx2              7.066654     -15.264855
                                                         3.428369      -5.345726
                                                         1.430064      -1.022732
                                                         0.571611      -0.123148
                                                         0.232197      -0.006983
                                                         0.076562      -0.000022
                          1       5    4dxy              7.066654     -26.439504
                                                         3.428369      -9.259069
                                                         1.430064      -1.771423
                                                         0.571611      -0.213299
                                                         0.232197      -0.012094
                                                         0.076562      -0.000037
                          1       5    4dxz              7.066654     -26.439504
                                                         3.428369      -9.259069
                                                         1.430064      -1.771423
                                                         0.571611      -0.213299
                                                         0.232197      -0.012094
                                                         0.076562      -0.000037
                          1       5    4dy2              7.066654     -15.264855
                                                         3.428369      -5.345726
                                                         1.430064      -1.022732
                                                         0.571611      -0.123148
                                                         0.232197      -0.006983
                                                         0.076562      -0.000022
                          1       5    4dyz              7.066654     -26.439504
                                                         3.428369      -9.259069
                                                         1.430064      -1.771423
                                                         0.571611      -0.213299
                                                         0.232197      -0.012094
                                                         0.076562      -0.000037
                          1       5    4dz2              7.066654     -15.264855
                                                         3.428369      -5.345726
                                                         1.430064      -1.022732
                                                         0.571611      -0.123148
                                                         0.232197      -0.006983
                                                         0.076562      -0.000022

                          1       6    5dx2              7.066654      -5.739265
                                                         3.428369      -2.129289
                                                         1.430064      -0.700423
                                                         0.571611       0.161606
                                                         0.232197       0.043513
                                                         0.076562       0.011205
                          1       6    5dxy              7.066654      -9.940698
                                                         3.428369      -3.688037
                                                         1.430064      -1.213168
                                                         0.571611       0.279909
                                                         0.232197       0.075368
                                                         0.076562       0.019407
                          1       6    5dxz              7.066654      -9.940698
                                                         3.428369      -3.688037
                                                         1.430064      -1.213168
                                                         0.571611       0.279909
                                                         0.232197       0.075368
                                                         0.076562       0.019407
                          1       6    5dy2              7.066654      -5.739265
                                                         3.428369      -2.129289
                                                         1.430064      -0.700423
                                                         0.571611       0.161606
                                                         0.232197       0.043513
                                                         0.076562       0.011205
                          1       6    5dyz              7.066654      -9.940698
                                                         3.428369      -3.688037
                                                         1.430064      -1.213168
                                                         0.571611       0.279909
                                                         0.232197       0.075368
                                                         0.076562       0.019407
                          1       6    5dz2              7.066654      -5.739265
                                                         3.428369      -2.129289
                                                         1.430064      -0.700423
                                                         0.571611       0.161606
                                                         0.232197       0.043513
                                                         0.076562       0.011205

                          1       7    5fx3              7.066654       0.705879
                                                         3.428369      -0.273976
                                                         1.430064       0.113667
                                                         0.571611       0.132480
                                                         0.232197       0.012437
                                                         0.076562       0.003241
                          1       7    5fx2y             7.066654       1.578393
                                                         3.428369      -0.612629
                                                         1.430064       0.254167
                                                         0.571611       0.296234
                                                         0.232197       0.027811
                                                         0.076562       0.007246
                          1       7    5fx2z             7.066654       1.578393
                                                         3.428369      -0.612629
                                                         1.430064       0.254167
                                                         0.571611       0.296234
                                                         0.232197       0.027811
                                                         0.076562       0.007246
                          1       7    5fxy2             7.066654       1.578393
                                                         3.428369      -0.612629
                                                         1.430064       0.254167
                                                         0.571611       0.296234
                                                         0.232197       0.027811
                                                         0.076562       0.007246
                          1       7    5fxyz             7.066654       2.733856
                                                         3.428369      -1.061105
                                                         1.430064       0.440230
                                                         0.571611       0.513092
                                                         0.232197       0.048170
                                                         0.076562       0.012551
                          1       7    5fxz2             7.066654       1.578393
                                                         3.428369      -0.612629
                                                         1.430064       0.254167
                                                         0.571611       0.296234
                                                         0.232197       0.027811
                                                         0.076562       0.007246
                          1       7    5fy3              7.066654       0.705879
                                                         3.428369      -0.273976
                                                         1.430064       0.113667
                                                         0.571611       0.132480
                                                         0.232197       0.012437
                                                         0.076562       0.003241
                          1       7    5fy2z             7.066654       1.578393
                                                         3.428369      -0.612629
                                                         1.430064       0.254167
                                                         0.571611       0.296234
                                                         0.232197       0.027811
                                                         0.076562       0.007246
                          1       7    5fyz2             7.066654       1.578393
                                                         3.428369      -0.612629
                                                         1.430064       0.254167
                                                         0.571611       0.296234
                                                         0.232197       0.027811
                                                         0.076562       0.007246
                          1       7    5fz3              7.066654       0.705879
                                                         3.428369      -0.273976
                                                         1.430064       0.113667
                                                         0.571611       0.132480
                                                         0.232197       0.012437
                                                         0.076562       0.003241

     GTH Potential information for                                   GTH-PBE-q13

       Description:                       Goedecker-Teter-Hutter pseudopotential
                                           Goedecker et al., PRB 54, 1703 (1996)
                                          Hartwigsen et al., PRB 58, 3641 (1998)
                                                      Krack, TCA 114, 145 (2005)

       Gaussian exponent of the core charge distribution:               2.082466
       Electronic configuration (s p d ...):                           2   1  10

       Parameters of the local part of the GTH pseudopotential:

                          rloc        C1          C2          C3          C4
                        0.490000

       Parameters of the non-local part of the GTH pseudopotential:

                   l      r(l)      h(i,j,l)

                   0    0.416777   10.475690   -4.921768    0.870706
                                   -4.921768    7.770178   -2.248152
                                    0.870706   -2.248152    1.784415
                   1    0.569627    1.777985    0.195860
                                    0.195860   -0.231744
                   2    0.238126  -16.248680

  3. Atomic kind: O                                     Number of atoms:       2

     Orbital Basis Set                                     DZVP-MOLOPT-SR-GTH-q6

       Number of orbital shell sets:                                           1
       Number of orbital shells:                                               5
       Number of primitive Cartesian functions:                                5
       Number of Cartesian basis functions:                                   14
       Number of spherical basis functions:                                   13
       Norm type:                                                              2

       Normalised Cartesian orbitals:

                        Set   Shell   Orbital            Exponent    Coefficient

                          1       1    2s               10.389228       0.396646
                                                         3.849621       0.208811
                                                         1.388401      -0.301641
                                                         0.496955      -0.274061
                                                         0.162492      -0.033677

                          1       2    3s               10.389228       0.303673
                                                         3.849621       0.240943
                                                         1.388401      -0.313066
                                                         0.496955      -0.043055
                                                         0.162492       0.213991

                          1       3    3px              10.389228      -1.530415
                                                         3.849621      -1.371928
                                                         1.388401      -0.761951
                                                         0.496955      -0.253695
                                                         0.162492      -0.035541
                          1       3    3py              10.389228      -1.530415
                                                         3.849621      -1.371928
                                                         1.388401      -0.761951
                                                         0.496955      -0.253695
                                                         0.162492      -0.035541
                          1       3    3pz              10.389228      -1.530415
                                                         3.849621      -1.371928
                                                         1.388401      -0.761951
                                                         0.496955      -0.253695
                                                         0.162492      -0.035541

                          1       4    4px              10.389228      -0.565392
                                                         3.849621      -0.038231
                                                         1.388401      -0.382373
                                                         0.496955       0.179070
                                                         0.162492       0.122714
                          1       4    4py              10.389228      -0.565392
                                                         3.849621      -0.038231
                                                         1.388401      -0.382373
                                                         0.496955       0.179070
                                                         0.162492       0.122714
                          1       4    4pz              10.389228      -0.565392
                                                         3.849621      -0.038231
                                                         1.388401      -0.382373
                                                         0.496955       0.179070
                                                         0.162492       0.122714

                          1       5    4dx2             10.389228       1.867377
                                                         3.849621       0.670994
                                                         1.388401       1.353441
                                                         0.496955       0.273538
                                                         0.162492       0.006620
                          1       5    4dxy             10.389228       3.234392
                                                         3.849621       1.162195
                                                         1.388401       2.344229
                                                         0.496955       0.473781
                                                         0.162492       0.011466
                          1       5    4dxz             10.389228       3.234392
                                                         3.849621       1.162195
                                                         1.388401       2.344229
                                                         0.496955       0.473781
                                                         0.162492       0.011466
                          1       5    4dy2             10.389228       1.867377
                                                         3.849621       0.670994
                                                         1.388401       1.353441
                                                         0.496955       0.273538
                                                         0.162492       0.006620
                          1       5    4dyz             10.389228       3.234392
                                                         3.849621       1.162195
                                                         1.388401       2.344229
                                                         0.496955       0.473781
                                                         0.162492       0.011466
                          1       5    4dz2             10.389228       1.867377
                                                         3.849621       0.670994
                                                         1.388401       1.353441
                                                         0.496955       0.273538
                                                         0.162492       0.006620

     GTH Potential information for                                    GTH-PBE-q6

       Description:                       Goedecker-Teter-Hutter pseudopotential
                                           Goedecker et al., PRB 54, 1703 (1996)
                                          Hartwigsen et al., PRB 58, 3641 (1998)
                                                      Krack, TCA 114, 145 (2005)

       Gaussian exponent of the core charge distribution:               8.360253
       Electronic configuration (s p d ...):                               2   4

       Parameters of the local part of the GTH pseudopotential:

                          rloc        C1          C2          C3          C4
                        0.244554  -16.667215    2.487311

       Parameters of the non-local part of the GTH pseudopotential:

                   l      r(l)      h(i,j,l)

                   0    0.220956   18.337458
                   1    0.211332

  4. Atomic kind: H                                     Number of atoms:       8

     Orbital Basis Set                                     DZVP-MOLOPT-SR-GTH-q1

       Number of orbital shell sets:                                           1
       Number of orbital shells:                                               3
       Number of primitive Cartesian functions:                                5
       Number of Cartesian basis functions:                                    5
       Number of spherical basis functions:                                    5
       Norm type:                                                              2

       Normalised Cartesian orbitals:

                        Set   Shell   Orbital            Exponent    Coefficient

                          1       1    2s               10.068468      -0.133023
                                                         2.680223      -0.177618
                                                         0.791502      -0.258419
                                                         0.239116      -0.107525
                                                         0.082193      -0.014019

                          1       2    3s               10.068468       0.344673
                                                         2.680223       1.819821
                                                         0.791502      -0.999069
                                                         0.239116       0.017430
                                                         0.082193       0.082660

                          1       3    3px              10.068468       0.155326
                                                         2.680223       0.367157
                                                         0.791502       0.311480
                                                         0.239116       0.080105
                                                         0.082193       0.033440
                          1       3    3py              10.068468       0.155326
                                                         2.680223       0.367157
                                                         0.791502       0.311480
                                                         0.239116       0.080105
                                                         0.082193       0.033440
                          1       3    3pz              10.068468       0.155326
                                                         2.680223       0.367157
                                                         0.791502       0.311480
                                                         0.239116       0.080105
                                                         0.082193       0.033440

     GTH Potential information for                                    GTH-PBE-q1

       Description:                       Goedecker-Teter-Hutter pseudopotential
                                           Goedecker et al., PRB 54, 1703 (1996)
                                          Hartwigsen et al., PRB 58, 3641 (1998)
                                                      Krack, TCA 114, 145 (2005)

       Gaussian exponent of the core charge distribution:              12.500000
       Electronic configuration (s p d ...):                                   1

       Parameters of the local part of the GTH pseudopotential:

                          rloc        C1          C2          C3          C4
                        0.200000   -4.178900    0.724463

  5. Atomic kind: C                                     Number of atoms:       2

     Orbital Basis Set                                     DZVP-MOLOPT-SR-GTH-q4

       Number of orbital shell sets:                                           1
       Number of orbital shells:                                               5
       Number of primitive Cartesian functions:                                5
       Number of Cartesian basis functions:                                   14
       Number of spherical basis functions:                                   13
       Norm type:                                                              2

       Normalised Cartesian orbitals:

                        Set   Shell   Orbital            Exponent    Coefficient

                          1       1    2s                5.605331       0.322515
                                                         2.113016       0.213043
                                                         0.769911      -0.209686
                                                         0.348157      -0.219794
                                                         0.128212      -0.022789

                          1       2    3s                5.605331       0.552234
                                                         2.113016       0.082072
                                                         0.769911       0.007843
                                                         0.348157       0.136893
                                                         0.128212       0.074283

                          1       3    3px               5.605331      -0.703879
                                                         2.113016      -0.642521
                                                         0.769911      -0.374851
                                                         0.348157      -0.139743
                                                         0.128212      -0.027849
                          1       3    3py               5.605331      -0.703879
                                                         2.113016      -0.642521
                                                         0.769911      -0.374851
                                                         0.348157      -0.139743
                                                         0.128212      -0.027849
                          1       3    3pz               5.605331      -0.703879
                                                         2.113016      -0.642521
                                                         0.769911      -0.374851
                                                         0.348157      -0.139743
                                                         0.128212      -0.027849

                          1       4    4px               5.605331      -0.480376
                                                         2.113016      -0.552894
                                                         0.769911      -0.316145
                                                         0.348157       0.210505
                                                         0.128212       0.076095
                          1       4    4py               5.605331      -0.480376
                                                         2.113016      -0.552894
                                                         0.769911      -0.316145
                                                         0.348157       0.210505
                                                         0.128212       0.076095
                          1       4    4pz               5.605331      -0.480376
                                                         2.113016      -0.552894
                                                         0.769911      -0.316145
                                                         0.348157       0.210505
                                                         0.128212       0.076095

                          1       5    4dx2              5.605331       0.640026
                                                         2.113016       0.274300
                                                         0.769911       0.446711
                                                         0.348157       0.028674
                                                         0.128212       0.029790
                          1       5    4dxy              5.605331       1.108557
                                                         2.113016       0.475102
                                                         0.769911       0.773726
                                                         0.348157       0.049666
                                                         0.128212       0.051599
                          1       5    4dxz              5.605331       1.108557
                                                         2.113016       0.475102
                                                         0.769911       0.773726
                                                         0.348157       0.049666
                                                         0.128212       0.051599
                          1       5    4dy2              5.605331       0.640026
                                                         2.113016       0.274300
                                                         0.769911       0.446711
                                                         0.348157       0.028674
                                                         0.128212       0.029790
                          1       5    4dyz              5.605331       1.108557
                                                         2.113016       0.475102
                                                         0.769911       0.773726
                                                         0.348157       0.049666
                                                         0.128212       0.051599
                          1       5    4dz2              5.605331       0.640026
                                                         2.113016       0.274300
                                                         0.769911       0.446711
                                                         0.348157       0.028674
                                                         0.128212       0.029790

     GTH Potential information for                                    GTH-PBE-q4

       Description:                       Goedecker-Teter-Hutter pseudopotential
                                           Goedecker et al., PRB 54, 1703 (1996)
                                          Hartwigsen et al., PRB 58, 3641 (1998)
                                                      Krack, TCA 114, 145 (2005)

       Gaussian exponent of the core charge distribution:               4.364419
       Electronic configuration (s p d ...):                               2   2

       Parameters of the local part of the GTH pseudopotential:

                          rloc        C1          C2          C3          C4
                        0.338471   -8.803674    1.339211

       Parameters of the non-local part of the GTH pseudopotential:

                   l      r(l)      h(i,j,l)

                   0    0.302576    9.622487
                   1    0.291507


 MOLECULE KIND INFORMATION


 All atoms are their own molecule, skipping detailed information


 TOTAL NUMBERS AND MAXIMUM NUMBERS

  Total number of            - Atomic kinds:                                   5
                             - Atoms:                                        212
                             - Shell sets:                                   212
                             - Shells:                                      1244
                             - Primitive Cartesian functions:               1160
                             - Cartesian basis functions:                   4496
                             - Spherical basis functions:                   3892

  Maximum angular momentum of- Orbital basis functions:                        3
                             - Local part of the GTH pseudopotential:          2
                             - Non-local part of the GTH pseudopotential:      4


 MODULE QUICKSTEP:  ATOMIC COORDINATES IN angstrom

  Atom  Kind  Element       X           Y           Z          Z(eff)       Mass

       1     1 N    7   -0.008025    2.045542    2.505423      5.00      14.0067
       2     2 Ga  31   -0.005930    0.096369    2.848604     13.00      69.7230
       3     1 N    7   -0.004069    0.051730    5.012313      5.00      14.0067
       4     2 Ga  31    0.000742    1.885280    5.792800     13.00      69.7230
       5     1 N    7   -0.001436    1.893512    7.790456      5.00      14.0067
       6     2 Ga  31    0.000641    0.049874    8.441221     13.00      69.7230
       7     1 N    7   -0.001003    0.046939   10.412822      5.00      14.0067
       8     2 Ga  31   -0.001173    1.886316   11.069874     13.00      69.7230
       9     1 N    7   -0.001573    1.866307   13.060333      5.00      14.0067
      10     2 Ga  31   -0.000973    0.047242   13.874930     13.00      69.7230
      11     1 N    7   -0.002505    0.045740   16.064192      5.00      14.0067
      12     2 Ga  31   -0.002168    2.094522   16.483204     13.00      69.7230
      13     2 Ga  31   -0.044945    3.717777    1.314004     13.00      69.7230
      14     1 N    7   -1.485156    4.628133    2.485253      5.00      14.0067
      15     2 Ga  31   -1.678845    2.791189    3.273570     13.00      69.7230
      16     1 N    7   -1.613980    2.837260    5.248946      5.00      14.0067
      17     2 Ga  31   -1.635918    4.702984    5.802959     13.00      69.7230
      18     1 N    7   -1.618917    4.698808    7.793812      5.00      14.0067
      19     2 Ga  31   -1.597653    2.838791    8.436492     13.00      69.7230
      20     1 N    7   -1.598732    2.839128   10.427370      5.00      14.0067
      21     2 Ga  31   -1.626336    4.697341   11.072578     13.00      69.7230
      22     1 N    7   -1.642654    4.707578   13.061900      5.00      14.0067
      23     2 Ga  31   -1.599108    2.837950   13.620754     13.00      69.7230
      24     1 N    7   -1.630416    2.820059   15.577819      5.00      14.0067
      25     2 Ga  31   -1.444467    4.592371   16.484150     13.00      69.7230
      26     1 N    7   -0.007793    3.756050   17.612318      5.00      14.0067
      27     1 N    7   -3.213385    7.598278    2.500878      5.00      14.0067
      28     2 Ga  31   -3.192508    5.594586    2.846071     13.00      69.7230
      29     1 N    7   -3.216011    5.619302    5.008740      5.00      14.0067
      30     2 Ga  31   -3.226105    7.441218    5.796697     13.00      69.7230
      31     1 N    7   -3.217259    7.465888    7.785483      5.00      14.0067
      32     2 Ga  31   -3.217636    5.619093    8.444544     13.00      69.7230
      33     1 N    7   -3.218147    5.618381   10.414180      5.00      14.0067
      34     2 Ga  31   -3.219882    7.456475   11.072477     13.00      69.7230
      35     1 N    7   -3.218098    7.436810   13.061257      5.00      14.0067
      36     2 Ga  31   -3.217894    5.616910   13.876350     13.00      69.7230
      37     1 N    7   -3.219677    5.616959   16.065201      5.00      14.0067
      38     2 Ga  31   -3.219189    7.665261   16.483996     13.00      69.7230
      39     2 Ga  31   -3.248175    9.354839    1.443396     13.00      69.7230
      40     1 N    7   -4.727588   10.204827    2.509756      5.00      14.0067
      41     2 Ga  31   -4.934375    8.348543    3.263978     13.00      69.7230
      42     1 N    7   -4.827571    8.403287    5.228388      5.00      14.0067
      43     2 Ga  31   -4.853213   10.278369    5.787150     13.00      69.7230
      44     1 N    7   -4.834752   10.265503    7.782764      5.00      14.0067
      45     2 Ga  31   -4.817219    8.411212    8.434309     13.00      69.7230
      46     1 N    7   -4.814920    8.409171   10.424029      5.00      14.0067
      47     2 Ga  31   -4.841031   10.268504   11.069500     13.00      69.7230
      48     1 N    7   -4.857690   10.277941   13.059249      5.00      14.0067
      49     2 Ga  31   -4.815158    8.409128   13.621089     13.00      69.7230
      50     1 N    7   -4.846452    8.390998   15.577488      5.00      14.0067
      51     2 Ga  31   -4.661855   10.163836   16.483309     13.00      69.7230
      52     1 N    7   -3.225478    9.327824   17.612089      5.00      14.0067
      53     1 N    7    3.199096    1.924159    2.589307      5.00      14.0067
      54     2 Ga  31    3.203233    0.179705    3.266714     13.00      69.7230
      55     1 N    7    3.215613    0.052224    5.231323      5.00      14.0067
      56     2 Ga  31    3.205198    1.913627    5.866727     13.00      69.7230
      57     1 N    7    3.214368    1.904663    7.839862      5.00      14.0067
      58     2 Ga  31    3.211735    0.038899    8.432981     13.00      69.7230
      59     1 N    7    3.213776    0.033808   10.422646      5.00      14.0067
      60     2 Ga  31    3.213652    1.903685   11.023930     13.00      69.7230
      61     1 N    7    3.214976    1.903548   12.990986      5.00      14.0067
      62     2 Ga  31    3.214456    0.035120   13.620391     13.00      69.7230
      63     1 N    7    3.215453    0.068596   15.576713      5.00      14.0067
      64     2 Ga  31    3.215612    1.904411   15.861099     13.00      69.7230
      65     1 N    7    1.467435    4.617110    2.463214      5.00      14.0067
      66     2 Ga  31    1.668285    2.803029    3.260208     13.00      69.7230
      67     1 N    7    1.606714    2.839698    5.238013      5.00      14.0067
      68     2 Ga  31    1.651417    4.709963    5.798240     13.00      69.7230
      69     1 N    7    1.612411    4.696129    7.797524      5.00      14.0067
      70     2 Ga  31    1.595963    2.839193    8.434955     13.00      69.7230
      71     1 N    7    1.595063    2.838321   10.425932      5.00      14.0067
      72     2 Ga  31    1.622411    4.696699   11.071212     13.00      69.7230
      73     1 N    7    1.638736    4.707465   13.060773      5.00      14.0067
      74     2 Ga  31    1.596136    2.838213   13.619850     13.00      69.7230
      75     1 N    7    1.625998    2.821999   15.576832      5.00      14.0067
      76     2 Ga  31    1.433732    4.588837   16.485496     13.00      69.7230
      77     1 N    7    0.003291    7.468467    2.688103      5.00      14.0067
      78     2 Ga  31    0.008114    5.601845    3.309781     13.00      69.7230
      79     1 N    7   -0.000877    5.634342    5.245963      5.00      14.0067
      80     2 Ga  31   -0.000749    7.467620    5.905715     13.00      69.7230
      81     1 N    7   -0.002106    7.476002    7.859159      5.00      14.0067
      82     2 Ga  31   -0.000290    5.601975    8.447523     13.00      69.7230
      83     1 N    7   -0.002638    5.604668   10.432700      5.00      14.0067
      84     2 Ga  31   -0.003598    7.474161   11.029741     13.00      69.7230
      85     1 N    7   -0.002268    7.474877   12.994990      5.00      14.0067
      86     2 Ga  31   -0.001517    5.604465   13.621244     13.00      69.7230
      87     1 N    7   -0.000703    5.639090   15.577931      5.00      14.0067
      88     2 Ga  31   -0.000834    7.474853   15.861635     13.00      69.7230
      89     1 N    7   -1.713137   10.197395    2.507401      5.00      14.0067
      90     2 Ga  31   -1.591579    8.389596    3.318856     13.00      69.7230
      91     1 N    7   -1.596588    8.398498    5.245201      5.00      14.0067
      92     2 Ga  31   -1.588126   10.285113    5.801715     13.00      69.7230
      93     1 N    7   -1.601160   10.264512    7.788455      5.00      14.0067
      94     2 Ga  31   -1.623252    8.410675    8.443927     13.00      69.7230
      95     1 N    7   -1.622955    8.409596   10.428525      5.00      14.0067
      96     2 Ga  31   -1.597103   10.269352   11.071621     13.00      69.7230
      97     1 N    7   -1.577889   10.278176   13.060355      5.00      14.0067
      98     2 Ga  31   -1.621075    8.409403   13.621823     13.00      69.7230
      99     1 N    7   -1.590660    8.392954   15.578167      5.00      14.0067
     100     2 Ga  31   -1.783015   10.160059   16.485738     13.00      69.7230
     101     1 N    7    6.428243    2.032416    2.538986      5.00      14.0067
     102     2 Ga  31    6.427819    0.062518    2.878871     13.00      69.7230
     103     1 N    7    6.430279    0.050944    5.019188      5.00      14.0067
     104     2 Ga  31    6.424448    1.886475    5.801336     13.00      69.7230
     105     1 N    7    6.429167    1.893131    7.792022      5.00      14.0067
     106     2 Ga  31    6.427876    0.049916    8.447410     13.00      69.7230
     107     1 N    7    6.429097    0.047022   10.415794      5.00      14.0067
     108     2 Ga  31    6.429540    1.887853   11.069802     13.00      69.7230
     109     1 N    7    6.430459    1.867113   13.060116      5.00      14.0067
     110     2 Ga  31    6.429974    0.047331   13.872889     13.00      69.7230
     111     1 N    7    6.428346    0.046084   16.066206      5.00      14.0067
     112     2 Ga  31    6.429685    2.086839   16.481376     13.00      69.7230
     113     2 Ga  31    6.455538    3.745439    1.515805     13.00      69.7230
     114     1 N    7    4.934738    4.628738    2.484491      5.00      14.0067
     115     2 Ga  31    4.700564    2.794517    3.289349     13.00      69.7230
     116     1 N    7    4.818368    2.840074    5.245297      5.00      14.0067
     117     2 Ga  31    4.779660    4.717634    5.799648     13.00      69.7230
     118     1 N    7    4.816470    4.695460    7.798596      5.00      14.0067
     119     2 Ga  31    4.830350    2.839758    8.436704     13.00      69.7230
     120     1 N    7    4.833098    2.838169   10.426601      5.00      14.0067
     121     2 Ga  31    4.808024    4.697800   11.068466     13.00      69.7230
     122     1 N    7    4.791279    4.706967   13.059329      5.00      14.0067
     123     2 Ga  31    4.833106    2.838305   13.619369     13.00      69.7230
     124     1 N    7    4.808385    2.824142   15.579896      5.00      14.0067
     125     2 Ga  31    4.979647    4.597614   16.481262     13.00      69.7230
     126     1 N    7    6.423164    3.757034   17.625436      5.00      14.0067
     127     1 N    7    3.207721    7.624299    2.497369      5.00      14.0067
     128     1 N    7    3.213753    5.625868    5.041662      5.00      14.0067
     129     2 Ga  31    3.221772    7.424460    5.810926     13.00      69.7230
     130     1 N    7    3.214078    7.470517    7.803239      5.00      14.0067
     131     2 Ga  31    3.214236    5.617389    8.444917     13.00      69.7230
     132     1 N    7    3.214596    5.618093   10.416657      5.00      14.0067
     133     2 Ga  31    3.215886    7.456144   11.072975     13.00      69.7230
     134     1 N    7    3.214510    7.437851   13.062276      5.00      14.0067
     135     2 Ga  31    3.214524    5.616569   13.871580     13.00      69.7230
     136     1 N    7    3.212976    5.616291   16.066149      5.00      14.0067
     137     2 Ga  31    3.214330    7.657115   16.482148     13.00      69.7230
     138     2 Ga  31    3.234790    9.384315    1.462770     13.00      69.7230
     139     1 N    7    1.703403   10.200658    2.524877      5.00      14.0067
     140     2 Ga  31    1.590168    8.387809    3.337364     13.00      69.7230
     141     1 N    7    1.595489    8.400193    5.258681      5.00      14.0067
     142     2 Ga  31    1.579718   10.282875    5.814827     13.00      69.7230
     143     1 N    7    1.595056   10.265761    7.798905      5.00      14.0067
     144     2 Ga  31    1.618893    8.410630    8.451970     13.00      69.7230
     145     1 N    7    1.616721    8.410039   10.435211      5.00      14.0067
     146     2 Ga  31    1.590594   10.270103   11.073752     13.00      69.7230
     147     1 N    7    1.574157   10.278525   13.062451      5.00      14.0067
     148     2 Ga  31    1.617139    8.409240   13.621592     13.00      69.7230
     149     1 N    7    1.592038    8.394603   15.581574      5.00      14.0067
     150     2 Ga  31    1.765197   10.167490   16.482375     13.00      69.7230
     151     1 N    7    3.208466    9.327487   17.625672      5.00      14.0067
     152     1 N    7    9.654792    1.914175    2.614599      5.00      14.0067
     153     2 Ga  31    9.651842    0.177223    3.297402     13.00      69.7230
     154     1 N    7    9.643193    0.049724    5.254193      5.00      14.0067
     155     2 Ga  31    9.653363    1.911150    5.880619     13.00      69.7230
     156     1 N    7    9.646624    1.904907    7.849497      5.00      14.0067
     157     2 Ga  31    9.648771    0.038159    8.441749     13.00      69.7230
     158     1 N    7    9.646568    0.033895   10.429307      5.00      14.0067
     159     2 Ga  31    9.645854    1.905022   11.025126     13.00      69.7230
     160     1 N    7    9.645021    1.903499   12.993628      5.00      14.0067
     161     2 Ga  31    9.647152    0.034569   13.621131     13.00      69.7230
     162     1 N    7    9.646729    0.063220   15.580571      5.00      14.0067
     163     2 Ga  31    9.644389    1.902784   15.858890     13.00      69.7230
     164     1 N    7    7.932062    4.631959    2.529881      5.00      14.0067
     165     2 Ga  31    8.150500    2.777390    3.304179     13.00      69.7230
     166     1 N    7    8.040065    2.834219    5.257376      5.00      14.0067
     167     2 Ga  31    8.060595    4.709388    5.797388     13.00      69.7230
     168     1 N    7    8.049386    4.698476    7.789817      5.00      14.0067
     169     2 Ga  31    8.028417    2.840308    8.435618     13.00      69.7230
     170     1 N    7    8.026331    2.839665   10.425394      5.00      14.0067
     171     2 Ga  31    8.053372    4.698355   11.070403     13.00      69.7230
     172     1 N    7    8.070487    4.707296   13.060516      5.00      14.0067
     173     2 Ga  31    8.027075    2.839096   13.620460     13.00      69.7230
     174     1 N    7    8.052260    2.824257   15.580484      5.00      14.0067
     175     2 Ga  31    7.874947    4.594960   16.481557     13.00      69.7230
     176     1 N    7    6.416281    7.474327    2.582440      5.00      14.0067
     177     2 Ga  31    6.415769    5.736958    3.289148     13.00      69.7230
     178     1 N    7    6.426723    5.621907    5.244396      5.00      14.0067
     179     2 Ga  31    6.428063    7.478067    5.870973     13.00      69.7230
     180     1 N    7    6.430862    7.477029    7.841046      5.00      14.0067
     181     2 Ga  31    6.430875    5.607795    8.437265     13.00      69.7230
     182     1 N    7    6.431773    5.606039   10.427098      5.00      14.0067
     183     2 Ga  31    6.431071    7.474246   11.026900     13.00      69.7230
     184     1 N    7    6.429838    7.473657   12.994504      5.00      14.0067
     185     2 Ga  31    6.430865    5.603765   13.620528     13.00      69.7230
     186     1 N    7    6.430362    5.633384   15.580121      5.00      14.0067
     187     2 Ga  31    6.428654    7.472931   15.858498     13.00      69.7230
     188     1 N    7    4.718052   10.210299    2.526423      5.00      14.0067
     189     2 Ga  31    4.915929    8.351435    3.286080     13.00      69.7230
     190     1 N    7    4.817840    8.406757    5.244169      5.00      14.0067
     191     2 Ga  31    4.850712   10.277792    5.801939     13.00      69.7230
     192     1 N    7    4.832783   10.266861    7.793544      5.00      14.0067
     193     2 Ga  31    4.814491    8.411492    8.442151     13.00      69.7230
     194     1 N    7    4.812676    8.410207   10.430109      5.00      14.0067
     195     2 Ga  31    4.839290   10.269412   11.072067     13.00      69.7230
     196     1 N    7    4.854665   10.278333   13.061574      5.00      14.0067
     197     2 Ga  31    4.811470    8.409850   13.621356     13.00      69.7230
     198     1 N    7    4.836864    8.394560   15.580802      5.00      14.0067
     199     2 Ga  31    4.659379   10.165044   16.481820     13.00      69.7230
     200     3 O    8    0.040480    3.713056   -0.507985      6.00      15.9994
     201     4 H    1    2.299752    6.246904    0.280396      1.00       1.0079
     202     5 C    6    0.648343    2.568517   -1.121549      4.00      12.0107
     203     4 H    1    1.710777    2.450974   -0.841365      1.00       1.0079
     204     4 H    1    0.133912    1.625747   -0.867545      1.00       1.0079
     205     4 H    1    0.591079    2.709722   -2.212108      1.00       1.0079
     206     2 Ga  31    3.172713    5.614690    2.557505     13.00      69.7230
     207     3 O    8    3.080211    5.647381    0.457754      6.00      15.9994
     208     4 H    1    2.988462    4.720486    0.163962      1.00       1.0079
     209     5 C    6    6.422246    7.452175    0.968803      4.00      12.0107
     210     4 H    1    5.552650    7.914553    0.478933      1.00       1.0079
     211     4 H    1    7.337865    7.916900    0.569845      1.00       1.0079
     212     4 H    1    6.414472    6.375617    0.766045      1.00       1.0079




 SCF PARAMETERS         Density guess:                                    ATOMIC
                        --------------------------------------------------------
                        max_scf:                                              80
                        max_scf_history:                                       0
                        max_diis:                                              4
                        --------------------------------------------------------
                        eps_scf:                                        5.00E-06
                        eps_scf_history:                                0.00E+00
                        eps_diis:                                       1.00E-01
                        eps_eigval:                                     1.00E-05
                        --------------------------------------------------------
                        level_shift [a.u.]:                                 0.00
                        --------------------------------------------------------
                        Outer loop SCF in use 
                        No variables optimised in outer loop
                        eps_scf                                         5.00E-06
                        max_scf                                                4
                        No outer loop optimization
                        step_size                                       5.00E-01

 PW_GRID| Information for grid number                                          1
 PW_GRID| Grid distributed over                                    80 processors
 PW_GRID| Real space group dimensions                                    80    1
 PW_GRID| the grid is blocked:                                                NO
 PW_GRID| Cutoff [a.u.]                                                    600.0
 PW_GRID| spherical cutoff:                                                   NO
 PW_GRID|   Bounds   1           -144     143                Points:         288
 PW_GRID|   Bounds   2           -144     143                Points:         288
 PW_GRID|   Bounds   3           -337     337                Points:         675
 PW_GRID| Volume element (a.u.^3)  0.5630E-03     Volume (a.u.^3)     31519.8467
 PW_GRID| Grid span                                                    FULLSPACE
 PW_GRID|   Distribution                         Average         Max         Min
 PW_GRID|   G-Vectors                           699840.0      699840      699840
 PW_GRID|   G-Rays                                2430.0        2430        2430
 PW_GRID|   Real Space Points                   699840.0      777600      583200

 PW_GRID| Information for grid number                                          2
 PW_GRID| Grid distributed over                                    80 processors
 PW_GRID| Real space group dimensions                                    80    1
 PW_GRID| the grid is blocked:                                                NO
 PW_GRID| Cutoff [a.u.]                                                    200.0
 PW_GRID| spherical cutoff:                                                   NO
 PW_GRID|   Bounds   1            -80      79                Points:         160
 PW_GRID|   Bounds   2            -80      79                Points:         160
 PW_GRID|   Bounds   3           -200     199                Points:         400
 PW_GRID| Volume element (a.u.^3)  0.3078E-02     Volume (a.u.^3)     31519.8467
 PW_GRID| Grid span                                                    FULLSPACE
 PW_GRID|   Distribution                         Average         Max         Min
 PW_GRID|   G-Vectors                           128000.0      128160      127840
 PW_GRID|   G-Rays                                 800.0         801         799
 PW_GRID|   Real Space Points                   128000.0      128000      128000

 PW_GRID| Information for grid number                                          3
 PW_GRID| Grid distributed over                                    80 processors
 PW_GRID| Real space group dimensions                                    80    1
 PW_GRID| the grid is blocked:                                                NO
 PW_GRID| Cutoff [a.u.]                                                     66.7
 PW_GRID| spherical cutoff:                                                   NO
 PW_GRID|   Bounds   1            -48      47                Points:          96
 PW_GRID|   Bounds   2            -48      47                Points:          96
 PW_GRID|   Bounds   3           -112     112                Points:         225
 PW_GRID| Volume element (a.u.^3)  0.1520E-01     Volume (a.u.^3)     31519.8467
 PW_GRID| Grid span                                                    FULLSPACE
 PW_GRID|   Distribution                         Average         Max         Min
 PW_GRID|   G-Vectors                            25920.0       26688       24864
 PW_GRID|   G-Rays                                 270.0         278         259
 PW_GRID|   Real Space Points                    25920.0       43200       21600

 PW_GRID| Information for grid number                                          4
[...]
 flops   991 x    50 x    64         450361139200     100.0%      0.0%      0.0%
 flops   991 x    64 x    50         450361139200     100.0%      0.0%      0.0%
 flops    13 x    25 x    50         463475870000     100.0%      0.0%      0.0%
 flops    25 x    13 x    50         464184240000     100.0%      0.0%      0.0%
 flops   242 x    32 x    32         582004346880     100.0%      0.0%      0.0%
 flops   242 x    64 x   178         582426116096     100.0%      0.0%      0.0%
 flops   242 x    64 x   183         598786400256     100.0%      0.0%      0.0%
 flops   973 x    32 x    50         607998899200     100.0%      0.0%      0.0%
 flops   973 x    50 x    32         607998899200     100.0%      0.0%      0.0%
 flops   242 x    64 x   195         638051082240     100.0%      0.0%      0.0%
 flops    25 x    18 x    13         693608619600     100.0%      0.0%      0.0%
 flops    13 x    18 x    25         693608619600     100.0%      0.0%      0.0%
 flops   955 x    32 x   178         719952527360     100.0%      0.0%      0.0%
 flops   955 x    32 x   183         740175912960     100.0%      0.0%      0.0%
 flops   991 x    32 x   178         747092099072     100.0%      0.0%      0.0%
 flops   991 x    32 x   183         768077832192     100.0%      0.0%      0.0%
 flops   955 x    32 x   195         788712038400     100.0%      0.0%      0.0%
 flops   991 x    32 x   195         818443591680     100.0%      0.0%      0.0%
 flops   242 x    64 x    32         846551777280     100.0%      0.0%      0.0%
 flops   242 x    32 x    64         846551777280     100.0%      0.0%      0.0%
 flops   973 x    64 x    50         884362035200     100.0%      0.0%      0.0%
 flops   973 x    50 x    64         884362035200     100.0%      0.0%      0.0%
 flops    25 x    25 x    50         890062500000     100.0%      0.0%      0.0%
 flops     5 x    32 x    25         934583552000     100.0%      0.0%      0.0%
 flops    25 x    32 x     5         934583552000     100.0%      0.0%      0.0%
 flops   955 x    64 x   178        1047203676160     100.0%      0.0%      0.0%
 flops   955 x    64 x   183        1076619509760     100.0%      0.0%      0.0%
 flops   991 x    64 x   178        1086679416832     100.0%      0.0%      0.0%
 flops   224 x    32 x   178        1111904403456     100.0%      0.0%      0.0%
 flops   991 x    64 x   183        1117204119552     100.0%      0.0%      0.0%
 flops   224 x    32 x   183        1143137673216     100.0%      0.0%      0.0%
 flops   955 x    64 x   195        1147217510400     100.0%      0.0%      0.0%
 flops   991 x    64 x   195        1190463406080     100.0%      0.0%      0.0%
 flops   224 x    32 x   195        1218097520640     100.0%      0.0%      0.0%
 flops   242 x    64 x    64        1231348039680     100.0%      0.0%      0.0%
 flops    25 x    18 x    25        1317825000000     100.0%      0.0%      0.0%
 flops   973 x    32 x   178        1467044626432     100.0%      0.0%      0.0%
 flops   973 x    32 x   183        1508253745152     100.0%      0.0%      0.0%
 flops   973 x    32 x   195        1607155630080     100.0%      0.0%      0.0%
 flops   224 x    32 x    32        1616144302080     100.0%      0.0%      0.0%
 flops   224 x    64 x   178        1617315495936     100.0%      0.0%      0.0%
 flops    13 x    13 x    32        1650934295296     100.0%      0.0%      0.0%
 flops   224 x    64 x   183        1662745706496     100.0%      0.0%      0.0%
 flops   224 x    64 x   195        1771778211840     100.0%      0.0%      0.0%
 flops   955 x    32 x    32        2100564336640     100.0%      0.0%      0.0%
 flops   973 x    64 x   178        2133883092992     100.0%      0.0%      0.0%
 flops   991 x    32 x    32        2179747913728     100.0%      0.0%      0.0%
 flops   973 x    64 x   183        2193823629312     100.0%      0.0%      0.0%
 flops   973 x    64 x   195        2337680916480     100.0%      0.0%      0.0%
 flops   224 x    32 x    64        2350755348480     100.0%      0.0%      0.0%
 flops   224 x    64 x    32        2350755348480     100.0%      0.0%      0.0%
 flops    13 x    13 x    64        2401358974976     100.0%      0.0%      0.0%
 flops   955 x    32 x    64        3055366307840     100.0%      0.0%      0.0%
 flops   955 x    64 x    32        3055366307840     100.0%      0.0%      0.0%
 flops   991 x    32 x    64        3170542419968     100.0%      0.0%      0.0%
 flops   991 x    64 x    32        3170542419968     100.0%      0.0%      0.0%
 flops    13 x    25 x    32        3262870124800     100.0%      0.0%      0.0%
 flops    25 x    13 x    32        3267857049600     100.0%      0.0%      0.0%
 flops   224 x    64 x    64        3419280506880     100.0%      0.0%      0.0%
 flops   973 x    32 x    32        4280312250368     100.0%      0.0%      0.0%
 flops   955 x    64 x    64        4444169175040     100.0%      0.0%      0.0%
 flops   991 x    64 x    64        4611698065408     100.0%      0.0%      0.0%
 flops    13 x    25 x    64        4745992908800     100.0%      0.0%      0.0%
 flops    25 x    13 x    64        4753246617600     100.0%      0.0%      0.0%
 flops   973 x    64 x    32        6225908727808     100.0%      0.0%      0.0%
 flops   973 x    32 x    64        6225908727808     100.0%      0.0%      0.0%
 flops    25 x    25 x    32        6266040000000     100.0%      0.0%      0.0%
 flops   973 x    64 x    64        9055867240448     100.0%      0.0%      0.0%
 flops    25 x    25 x    64        9114240000000     100.0%      0.0%      0.0%
 flops    13 x    32 x    13       17271778194944     100.0%      0.0%      0.0%
 flops    25 x    32 x    13       34526295731200     100.0%      0.0%      0.0%
 flops    13 x    32 x    25       34526295731200     100.0%      0.0%      0.0%
 flops    25 x    32 x    25       65598400000000     100.0%      0.0%      0.0%
 flops inhomo. stacks             108514840009632     100.0%      0.0%      0.0%
 flops total                       413.057371E+12     100.0%      0.0%      0.0%
 flops max/rank                      7.166417E+12     100.0%      0.0%      0.0%
 matmuls inhomo. stacks                  10763200     100.0%      0.0%      0.0%
 matmuls total                         8499724030     100.0%      0.0%      0.0%
 number of processed stacks             147877440     100.0%      0.0%      0.0%
 average stack size                                    57.5       0.0       0.0
 marketing flops                   441.350336E+12
 -------------------------------------------------------------------------------
 # multiplications                          37236
 max memory usage/rank               1.554719E+09
 # max total images/rank                        5
 # max 3D layers                                1
 # MPI messages exchanged               339592320
 MPI messages size (bytes):
  total size                        43.525987E+12
  min size                           0.000000E+00
  max size                           1.894792E+06
  average size                     128.171297E+03
 MPI breakdown and total messages size (bytes):
             size <=      128             3006560                        0
       128 < size <=     8192            42756175             350258585600
      8192 < size <=    32768            98529345            2009971322080
     32768 < size <=   131072           153732800           11120265863072
    131072 < size <=  4194304            41567440           30033870770640
   4194304 < size <= 16777216                   0                        0
  16777216 < size                               0                        0
 -------------------------------------------------------------------------------

 *** WARNING in dbcsr/mm/dbcsr_mm.F:268 :: Using a non-square number of ***
 *** MPI ranks might lead to poor performance.                          ***
 *** Used ranks: 80                                                     ***
 *** Suggested: 81 169                                                  ***

 -------------------------------------------------------------------------------
 
 MEMORY| Estimated peak process memory [MiB]                                1507

 -------------------------------------------------------------------------------
 ----                             MULTIGRID INFO                            ----
 -------------------------------------------------------------------------------
 count for grid        1:        1257052          cutoff [a.u.]          600.00
 count for grid        2:       10328852          cutoff [a.u.]          200.00
 count for grid        3:        9517171          cutoff [a.u.]           66.67
 count for grid        4:       14393155          cutoff [a.u.]           22.22
 count for grid        5:       13245994          cutoff [a.u.]            7.41
 total gridlevel count  :       48742224

 -------------------------------------------------------------------------------
 -                                                                             -
 -                         MESSAGE PASSING PERFORMANCE                         -
 -                                                                             -
 -------------------------------------------------------------------------------

 ROUTINE             CALLS      AVE VOLUME [Bytes]
 MP_Group             3838
 MP_Bcast            23592                  41326.
 MP_Allreduce       262826                    211.
 MP_Sync              1298
 MP_Alltoall        214556                5369892.
 MP_SendRecv         28440                   5959.
 MP_ISendRecv       981180                 133520.
 MP_Wait           8346978
 MP_comm_split        1293
 MP_ISend          9564720                 121142.
 MP_IRecv          9567728                 121060.
 MP_Recv              1691                 162816.
 MP_Memory         4127748
 -------------------------------------------------------------------------------


 -------------------------------------------------------------------------------
 -                                                                             -
 -                           R E F E R E N C E S                               -
 -                                                                             -
 -------------------------------------------------------------------------------
 
 CP2K version 7.0 (Development Version), the CP2K developers group (2018).
 CP2K is freely available from https://www.cp2k.org/ .

 Schuett, Ole; Messmer, Peter; Hutter, Juerg; VandeVondele, Joost. 
 Electronic Structure Calculations on Graphics Processing Units, John Wiley & Sons, Ltd, 173-190 (2016). 
 GPU-Accelerated Sparse Matrix-Matrix Multiplication for Linear Scaling Density Functional Theory.
 http://dx.doi.org/10.1002/9781118670712.ch8


 Borstnik, U; VandeVondele, J; Weber, V; Hutter, J. 
 PARALLEL COMPUTING, 40 (5-6), 47-58 (2014). 
 Sparse matrix multiplication: The distributed block-compressed sparse
 row library.
 http://dx.doi.org/10.1016/j.parco.2014.03.012


 Hutter, J; Iannuzzi, M; Schiffmann, F; VandeVondele, J. 
 WILEY INTERDISCIPLINARY REVIEWS-COMPUTATIONAL MOLECULAR SCIENCE, 4 (1), 15-25 (2014). 
 CP2K: atomistic simulations of condensed matter systems.
 http://dx.doi.org/10.1002/wcms.1159


 Grimme, S; Ehrlich, S; Goerigk, L. 
 JOURNAL OF COMPUTATIONAL CHEMISTRY, 32, 1456 (2011). 
 Effect of the damping function in dispersion corrected density functional theory.
 http://dx.doi.org/10.1002/jcc.21759


 Grimme, S; Antony, J; Ehrlich, S; Krieg, H. 
 JOURNAL OF CHEMICAL PHYSICS, 132 (15), 154104 (2010). 
 A consistent and accurate ab initio parametrization of density
 functional dispersion correction (DFT-D) for the 94 elements H-Pu.
 http://dx.doi.org/10.1063/1.3382344


 VandeVondele, J; Hutter, J. 
 JOURNAL OF CHEMICAL PHYSICS, 127 (11), 114105 (2007). 
 Gaussian basis sets for accurate calculations on molecular systems in
 gas and condensed phases.
 http://dx.doi.org/10.1063/1.2770708


 Krack, M. 
 THEORETICAL CHEMISTRY ACCOUNTS, 114 (1-3), 145-152 (2005). 
 Pseudopotentials for H to Kr optimized for gradient-corrected
 exchange-correlation functionals.
 http://dx.doi.org/10.1007/s00214-005-0655-y


 VandeVondele, J; Krack, M; Mohamed, F; Parrinello, M; Chassaing, T;
 Hutter, J. COMPUTER PHYSICS COMMUNICATIONS, 167 (2), 103-128 (2005). 
 QUICKSTEP: Fast and accurate density functional calculations using a
 mixed Gaussian and plane waves approach.
 http://dx.doi.org/10.1016/j.cpc.2004.12.014


 Frigo, M; Johnson, SG. 
 PROCEEDINGS OF THE IEEE, 93 (2), 216-231 (2005). 
 The design and implementation of FFTW3.
 http://dx.doi.org/10.1109/JPROC.2004.840301


 Kolafa, J. 
 JOURNAL OF COMPUTATIONAL CHEMISTRY, 25 (3), 335-342 (2004). 
 Time-reversible always stable predictor-corrector method for molecular dynamics of polarizable molecules.
 http://dx.doi.org/10.1002/jcc.10385


 VandeVondele, J; Hutter, J. 
 JOURNAL OF CHEMICAL PHYSICS, 118 (10), 4365-4369 (2003). 
 An efficient orbital transformation method for electronic structure
 calculations.
 http://dx.doi.org/10.1063/1.1543154


 Hartwigsen, C; Goedecker, S; Hutter, J. 
 PHYSICAL REVIEW B, 58 (7), 3641-3662 (1998). 
 Relativistic separable dual-space Gaussian pseudopotentials from H to Rn.
 http://dx.doi.org/10.1103/PhysRevB.58.3641


 Lippert, G; Hutter, J; Parrinello, M. 
 MOLECULAR PHYSICS, 92 (3), 477-487 (1997). 
 A hybrid Gaussian and plane wave density functional scheme.
 http://dx.doi.org/10.1080/002689797170220


 Perdew, JP; Burke, K; Ernzerhof, M. 
 PHYSICAL REVIEW LETTERS, 77 (18), 3865-3868 (1996). 
 Generalized gradient approximation made simple.
 http://dx.doi.org/10.1103/PhysRevLett.77.3865


 Goedecker, S; Teter, M; Hutter, J. 
 PHYSICAL REVIEW B, 54 (3), 1703-1710 (1996). 
 Separable dual-space Gaussian pseudopotentials.
 http://dx.doi.org/10.1103/PhysRevB.54.1703


 -------------------------------------------------------------------------------
 -                                                                             -
 -                                T I M I N G                                  -
 -                                                                             -
 -------------------------------------------------------------------------------
 SUBROUTINE                       CALLS  ASD         SELF TIME        TOTAL TIME
                                MAXIMUM       AVERAGE  MAXIMUM  AVERAGE  MAXIMUM
 CP2K                                 1  1.0     0.18     0.23 19861.18 19861.22
 cp_geo_opt                           1  2.0     0.01     0.01 19859.57 19859.58
 geoopt_bfgs                          1  3.0     0.11     0.22 19859.57 19859.58
 cp_eval_at                          91  4.0     0.07     0.09 19821.43 19821.45
 qs_forces                           90  5.0     0.05     0.07 19738.84 19738.86
 qs_energies                         91  6.0     0.17     0.25 17974.45 17974.58
 scf_env_do_scf                      91  7.0     0.04     0.11 16785.87 16785.93
 scf_env_do_scf_inner_loop         1229  8.0     0.11     0.21 14793.01 14793.13
 rebuild_ks_matrix                 1319  9.8     0.01     0.01  8690.40  8691.95
 qs_ks_build_kohn_sham_matrix      1319 10.8     0.50     0.89  8690.40  8691.94
 qs_ks_update_qs_env               1321  9.0     0.01     0.02  7048.78  7050.17
 qs_rho_update_rho                 1320  9.1     0.03     0.07  6837.35  6840.75
 calculate_rho_elec                2640 10.1  3426.41  3480.88  6837.32  6840.69
 sum_up_and_integrate               750 11.6    11.23    12.63  4831.39  4833.83
 integrate_v_rspace                1500 12.6  2742.93  2853.30  4820.15  4824.15
 pw_transfer                      42052 13.3     4.55     5.48  4259.37  4276.45
 fft_wrap_pw1pw2                  39414 14.4     0.46     0.55  4238.48  4255.29
 fft_wrap_pw1pw2_600              22854 15.6   254.44   287.70  3935.48  3949.75
 fft3d_ps                         39414 16.4  1176.04  1304.55  3644.25  3678.25
 rs_pw_transfer                   21154 12.9     0.29     0.32  3427.62  3474.71
 density_rs2pw                     2640 11.1     0.20     0.25  3055.72  3123.13
 qs_vxc_create                     1319 11.8     0.04     0.07  2994.71  2995.30
 dbcsr_multiply_generic           37236 13.7     2.50     3.39  2686.71  2691.42
 mp_waitall_1                   7578386 16.6  2384.19  2466.73  2384.19  2466.73
 mp_alltoall_z22v                 39414 18.4  2135.40  2373.42  2135.40  2373.42
 xc_vxc_pw_create                   750 12.6   153.12   172.93  2260.64  2261.01
 qs_scf_new_mos                    1229  9.0     0.01     0.01  2237.42  2239.55
 qs_scf_loop_do_ot                 1229 10.0     0.05     0.14  2237.41  2239.54
 multiply_cannon                  37236 14.7    11.91    12.66  2090.39  2135.83
 ot_scf_mini                       1229 11.0     0.20     0.45  2049.73  2051.05
 init_scf_loop                       92  8.0     0.03     0.09  1989.53  1989.57
 qs_ks_update_qs_env_forces          90  6.0     0.00     0.00  1654.49  1654.66
 xc_rho_set_and_dset_create        1319 13.8    23.10    24.74  1606.95  1632.89
 potential_pw2rs                   1500 13.6     1.18     1.32  1625.61  1629.55
 mp_waitany                      768592 14.9  1513.31  1628.99  1513.31  1628.99
 rs_pw_transfer_RS2PW_600          2822 13.0   556.44   616.54  1420.11  1470.61
 x_to_yz                          17123 18.0   185.22   215.67  1386.48  1469.01
 multiply_cannon_metrocomm3      744720 15.7     2.00     2.14  1228.98  1383.29
 yz_to_x                          14011 16.8   116.59   122.99  1048.80  1169.99
 ot_mini                           1229 12.0     0.02     0.05  1103.32  1104.79
 prepare_preconditioner              92  9.0     0.00     0.00  1090.41  1090.68
 rs_pw_transfer_PW2RS_600          1772 15.0   395.93   432.59   997.59  1025.95
 make_preconditioner                184 10.0     0.02     0.05  1007.68  1007.82
 make_full_all                      184 11.0     0.08     0.26   919.75   920.13
 init_scf_run                        91  7.0     0.00     0.02   741.96   741.98
 scf_env_initial_rho_setup           91  8.0     0.00     0.01   741.96   741.98
 xc_exc_calc                        569 13.0     2.77     3.13   734.02   734.30
 wfi_extrapolate                     91  9.0     0.07     0.15   732.11   732.15
 qs_ot_get_derivative              1320 13.0     0.02     0.03   698.46   699.79
 mp_alltoall_d11v                 44776 14.8   578.17   681.89   578.17   681.89
 multiply_cannon_metrocomm1      744720 15.7     2.32     2.54   492.42   649.05
 cp_fm_syevd                       1293 13.1     0.01     0.02   634.68   636.00
 rs_distribute_matrix              4320 12.0     5.32    10.90   534.17   635.93
 cp_fm_redistribute_end            1293 14.1   171.85   617.04   175.52   619.61
 cp_fm_syevd_base                  1293 13.8   441.06   598.58   441.06   598.58
 apply_preconditioner_dbcsr        1504 14.0     0.00     0.01   445.74   446.51
 apply_all                         1504 15.0     0.18     0.26   445.73   446.51
 mp_sum_d                         36876 14.1   319.67   414.59   319.67   414.59
 -------------------------------------------------------------------------------

 The number of warnings for this run is : 1
 
 -------------------------------------------------------------------------------
  **** **** ******  **  PROGRAM ENDED AT                 2019-06-29 09:34:54.514
 ***** ** ***  *** **   PROGRAM RAN ON            blg9234.int.ets1.calculquebec.
 **    ****   ******    PROGRAM RAN BY                                       rzk
 ***** **    ** ** **   PROGRAM PROCESS ID                                157365
  **** **  *******  **  PROGRAM STOPPED IN /scratch/rzk/rzk/GaN-carbene/443-adat
                                           oms-both-2x2/07-CH3O-H2O-H3C/01-UseUn
                                           optimized-0501
