     212
 i =        1, E =     -8504.7066856910
  N        -0.0092589506        2.0482617616        2.5016536240
 Ga        -0.0064104155        0.1106651125        2.8572825206
  N        -0.0037529492        0.0485969972        5.0152413828
 Ga         0.0007034698        1.8875959142        5.7919181921
  N        -0.0014799292        1.8918724978        7.7897924562
 Ga         0.0003208762        0.0491530922        8.4408697134
  N        -0.0009397293        0.0459677420       10.4118565181
 Ga        -0.0012118818        1.8857159071       11.0703652557
  N        -0.0015450416        1.8662416064       13.0613463352
 Ga        -0.0007213968        0.0460132233       13.8746292012
  N        -0.0021285682        0.0438782298       16.0651408929
 Ga        -0.0034875005        2.0885240328       16.4791015752
 Ga        -0.0483973310        3.7301259335        1.3169639451
  N        -1.4767834782        4.6152930583        2.4987301721
 Ga        -1.6789132670        2.7907572675        3.2751591742
  N        -1.6153224083        2.8348635457        5.2500026777
 Ga        -1.6341659637        4.7024646729        5.8014531966
  N        -1.6224466036        4.6972745889        7.7949834425
 Ga        -1.5974659505        2.8385896364        8.4369696323
  N        -1.5989138034        2.8384147748       10.4278984380
 Ga        -1.6269787148        4.6973889695       11.0727041081
  N        -1.6428940224        4.7076467589       13.0630624120
 Ga        -1.5991961196        2.8378965347       13.6212562022
  N        -1.6298725928        2.8202922577       15.5797720931
 Ga        -1.4503731754        4.5942919703       16.4798459181
  N        -0.0056911426        3.7573527651       17.6001301560
  N        -3.2264554617        7.5999155281        2.5026591089
 Ga        -3.1642954759        5.5931254961        2.8475694917
  N        -3.2217638692        5.6200213356        5.0092230709
 Ga        -3.2230027947        7.4404971894        5.7975653658
  N        -3.2236415758        7.4659851625        7.7861641979
 Ga        -3.2186464629        5.6190218109        8.4453060963
  N        -3.2196589440        5.6186565059       10.4146217220
 Ga        -3.2206437443        7.4568137597       11.0727458109
  N        -3.2184978238        7.4374054243       13.0607379853
 Ga        -3.2192097597        5.6179161134       13.8757713908
  N        -3.2212629532        5.6181740039       16.0657677062
 Ga        -3.2224615402        7.6685014384       16.4838525296
 Ga        -3.2186090373        9.3608280324        1.4440815282
  N        -4.7385574942       10.2020596905        2.4937741813
 Ga        -4.8934156806        8.3749154714        3.2847373583
  N        -4.8455325170        8.3936093735        5.2301901955
 Ga        -4.8527744873       10.2800298791        5.7872815182
  N        -4.8355933453       10.2623500339        7.7802319016
 Ga        -4.8159086509        8.4125373050        8.4408958840
  N        -4.8164201616        8.4092722310       10.4259741517
 Ga        -4.8412645409       10.2682330264       11.0705287821
  N        -4.8574192991       10.2775848433       13.0589570466
 Ga        -4.8158599514        8.4088220361       13.6197610997
  N        -4.8468210896        8.3908266259       15.5733057118
 Ga        -4.6604922670       10.1592725582       16.4832352443
  N        -3.2203740477        9.3307019483       17.6216332990
  N         3.2001422839        1.9243642165        2.5905134493
 Ga         3.2022320744        0.1790606265        3.2664947784
  N         3.2139504183        0.0512877405        5.2305778332
 Ga         3.2048599894        1.9130491368        5.8667828642
  N         3.2146637465        1.9045690336        7.8395363335
 Ga         3.2108658702        0.0388075225        8.4340405069
  N         3.2124244318        0.0339501890       10.4231290893
 Ga         3.2143403850        1.9037227872       11.0247711397
  N         3.2146301347        1.9038129845       12.9916683909
 Ga         3.2141219955        0.0351231639       13.6206970243
  N         3.2120851564        0.0676166969       15.5769091592
 Ga         3.2161346872        1.9038164761       15.8595148621
  N         1.4464538535        4.6039773662        2.4943252493
 Ga         1.6662332678        2.7979200049        3.2641923854
  N         1.6086089841        2.8371998544        5.2408924367
 Ga         1.6489614392        4.7097363482        5.7965191909
  N         1.6161500574        4.6951215637        7.7989593645
 Ga         1.5955683548        2.8391056990        8.4352021527
  N         1.5954172566        2.8374744830       10.4266642302
 Ga         1.6231400914        4.6967630671       11.0712226281
  N         1.6388827627        4.7073476420       13.0619930766
 Ga         1.5961525125        2.8380260229       13.6213166150
  N         1.6243278748        2.8216504550       15.5806987760
 Ga         1.4409339202        4.5930416820       16.4807165569
  N         0.0069080269        7.4651050406        2.6539586736
 Ga        -0.0005065583        5.6621999859        3.2978140516
  N        -0.0008541173        5.6173403228        5.2517253254
 Ga        -0.0014234852        7.4692864146        5.8680311814
  N        -0.0020484970        7.4762935854        7.8385848677
 Ga        -0.0004622450        5.6040674127        8.4419368047
  N        -0.0026114654        5.6042987706       10.4316304637
 Ga        -0.0032950016        7.4748490462       11.0291916850
  N        -0.0022123277        7.4743796938       12.9956122394
 Ga        -0.0015889313        5.6043154455       13.6225928836
  N        -0.0017472040        5.6379688848       15.5818234151
 Ga        -0.0011570272        7.4756381302       15.8600799222
  N        -1.7209927202       10.1987958929        2.5264431450
 Ga        -1.5399281548        8.3585782768        3.2981929664
  N        -1.6169476955        8.4090513231        5.2437458076
 Ga        -1.5865597483       10.2844561802        5.8024404376
  N        -1.6020903793       10.2678762313        7.7911177810
 Ga        -1.6216393543        8.4094583841        8.4387657178
  N        -1.6242170882        8.4097435495       10.4269923979
 Ga        -1.5972798921       10.2697359298       11.0713450883
  N        -1.5783485581       10.2781823228       13.0600375615
 Ga        -1.6214101158        8.4093236973       13.6220093924
  N        -1.5932727277        8.3906535087       15.5782882505
 Ga        -1.7816354980       10.1608980936       16.4844364290
  N         6.4290248397        2.0232621493        2.5443010742
 Ga         6.4284829160        0.0456038454        2.8726181137
  N         6.4296752405        0.0538686527        5.0148960849
 Ga         6.4247846067        1.8831815558        5.8025423548
  N         6.4291187010        1.8952231540        7.7927177416
 Ga         6.4283226204        0.0505819259        8.4485195743
  N         6.4292046750        0.0479816041       10.4169245999
 Ga         6.4295258941        1.8883347344       11.0705732757
  N         6.4304638005        1.8671143997       13.0599914530
 Ga         6.4294147163        0.0474261238       13.8734149956
  N         6.4294703694        0.0469085153       16.0653582629
 Ga         6.4282033153        2.0892903761       16.4818502429
 Ga         6.4564975123        3.7249111350        1.5064157019
  N         4.9375466490        4.6376197871        2.4786656596
 Ga         4.7035213564        2.7929173393        3.2885970507
  N         4.8202800093        2.8410228021        5.2445583771
 Ga         4.7778150488        4.7168328899        5.8003096315
  N         4.8199312070        4.6968106259        7.7967388868
 Ga         4.8299912700        2.8401587912        8.4376472610
  N         4.8332973106        2.8391881147       10.4265329022
 Ga         4.8083114707        4.6980515942       11.0698752827
  N         4.7914064519        4.7072048072       13.0592338326
 Ga         4.8332215367        2.8386778924       13.6191094395
  N         4.8062898057        2.8254484369       15.5776373942
 Ga         4.9843491470        4.5954739881       16.4822123268
  N         6.4258063734        3.7552721108       17.6294656943
  N         3.2099735975        7.6259990973        2.4975135568
  N         3.2189796508        5.6261112035        5.0451207305
 Ga         3.2185347613        7.4246238674        5.8107081874
  N         3.2197934330        7.4705395105        7.8030200483
 Ga         3.2154116280        5.6177786220        8.4452531895
  N         3.2160479155        5.6183120994       10.4168230325
 Ga         3.2165797247        7.4563278114       11.0733547699
  N         3.2149665191        7.4377168783       13.0620043785
 Ga         3.2156227025        5.6170643363       13.8719286648
  N         3.2160710104        5.6179232503       16.0664898796
 Ga         3.2148472801        7.6615549736       16.4829270967
 Ga         3.2096725065        9.3924062025        1.4607351086
  N         1.7129414788       10.2034811951        2.5419192944
 Ga         1.5375734951        8.3630737860        3.3214006199
  N         1.6147915703        8.4105979409        5.2600590897
 Ga         1.5781960805       10.2830607142        5.8144925933
  N         1.5962175303       10.2688142217        7.8004927704
 Ga         1.6173398839        8.4095412530        8.4459858670
  N         1.6182534350        8.4102551626       10.4329455404
 Ga         1.5909292013       10.2703646927       11.0737268598
  N         1.5739570853       10.2788195784       13.0624535264
 Ga         1.6176058400        8.4092226942       13.6212034237
  N         1.5923264229        8.3921325158       15.5795645413
 Ga         1.7660687546       10.1652448105       16.4825615771
  N         3.2081497908        9.3305545881       17.6294558711
  N         9.6538292521        1.9142539269        2.6161568415
 Ga         9.6536915644        0.1770324135        3.2967490544
  N         9.6448434136        0.0491108793        5.2532496003
 Ga         9.6536004071        1.9109713589        5.8803929300
  N         9.6461237651        1.9048844179        7.8491976736
 Ga         9.6494544153        0.0379571645        8.4421308008
  N         9.6477836185        0.0340045195       10.4292893754
 Ga         9.6455414372        1.9049579512       11.0257925761
  N         9.6453188172        1.9038262015       12.9938876637
 Ga         9.6471890782        0.0344182186       13.6214889721
  N         9.6476940091        0.0636006133       15.5804512482
 Ga         9.6438078811        1.9025153170       15.8592057605
  N         7.9342143784        4.6484838736        2.5182944053
 Ga         8.1493223489        2.7797319874        3.3015298385
  N         8.0379007093        2.8362266948        5.2556098457
 Ga         8.0632508781        4.7093897011        5.7984163520
  N         8.0451990990        4.6998448560        7.7885035902
 Ga         8.0286198178        2.8405532220        8.4370040815
  N         8.0262612545        2.8405245516       10.4258136717
 Ga         8.0527914114        4.6986479492       11.0714564890
  N         8.0701712935        4.7073911102       13.0601549177
 Ga         8.0268139566        2.8392861015       13.6209299888
  N         8.0531206312        2.8247433613       15.5800661283
 Ga         7.8710961674        4.5949259094       16.4821731459
  N         6.4136706153        7.4981422583        2.5712888954
 Ga         6.4153640403        5.7082460352        3.2977723740
  N         6.4271601817        5.6417626033        5.2381551626
 Ga         6.4279221231        7.4785119314        5.9085487701
  N         6.4308165739        7.4770176303        7.8594684706
 Ga         6.4304237999        5.6065281187        8.4437930587
  N         6.4314944422        5.6071199623       10.4289448855
 Ga         6.4312186210        7.4744115390       11.0285768774
  N         6.4298533159        7.4734659546       12.9942232067
 Ga         6.4306667801        5.6041151576       13.6200714083
  N         6.4291188008        5.6346579371       15.5771912609
 Ga         6.4288494312        7.4730298943       15.8560927002
  N         4.7281641348       10.2082294976        2.5102419734
 Ga         4.8706771476        8.3783905236        3.3015245974
  N         4.8362587306        8.3966159304        5.2424603603
 Ga         4.8499204850       10.2790636269        5.8010989770
  N         4.8334173244       10.2635844714        7.7904120188
 Ga         4.8129035890        8.4124922931        8.4477354991
  N         4.8141662259        8.4099570894       10.4316334577
 Ga         4.8394101933       10.2690616338       11.0727638864
  N         4.8547197731       10.2781306500       13.0612162517
 Ga         4.8119294799        8.4094410546       13.6208257458
  N         4.8371172623        8.3929612047       15.5779961509
 Ga         4.6578762410       10.1618880541       16.4822984043
  O         0.0470543804        3.7157172085       -0.5070281602
  H         2.2970183768        6.1447593930        0.2557633553
  C         0.6493776754        2.5691101230       -1.1207427689
  H         1.7116156856        2.4489230387       -0.8414544284
  H         0.1323303955        1.6276105557       -0.8662242138
  H         0.5921013604        2.7085627269       -2.2115620212
 Ga         3.1514278882        5.6052348606        2.5803629346
  O         3.1727408730        5.6962239062        0.4271911057
  H         2.9052620157        4.7823852398        0.1511358466
  C         6.4300494002        7.4214171277        1.0004750163
  H         5.5571580470        7.9127507737        0.5377950244
  H         7.3306050042        7.9043626633        0.5909009031
  H         6.4215865254        6.3675497106        0.7004462357
     212
 i =        2, E =     -8504.7152964484
  N        -0.0103395805        2.0415685328        2.5018022801
 Ga        -0.0068967039        0.1102221500        2.8553968882
  N        -0.0035400734        0.0490489331        5.0132641505
 Ga         0.0005161361        1.8903035663        5.7938433734
  N        -0.0016443069        1.8919865215        7.7918356849
 Ga        -0.0001429715        0.0496968737        8.4407593673
  N        -0.0011761285        0.0460813851       10.4110673899
 Ga        -0.0012114282        1.8859673961       11.0707854591
  N        -0.0017615209        1.8654692005       13.0619940316
 Ga        -0.0008688964        0.0448595493       13.8752219796
  N        -0.0028125261        0.0430435586       16.0647060019
 Ga        -0.0037568773        2.0839898451       16.4754976861
 Ga        -0.0521222907        3.7430712637        1.3318919986
  N        -1.4838577684        4.6150701126        2.5068125098
 Ga        -1.6767035882        2.7952700918        3.2760004758
  N        -1.6169931880        2.8316702984        5.2517343985
 Ga        -1.6272953732        4.7011049900        5.8010694140
  N        -1.6243595797        4.6963046519        7.7970627188
 Ga        -1.5982364824        2.8391396575        8.4374530168
  N        -1.5986583248        2.8385025373       10.4281650899
 Ga        -1.6254762021        4.6980721018       11.0720392255
  N        -1.6434310417        4.7078834472       13.0632366101
 Ga        -1.5993135958        2.8379498851       13.6210439858
  N        -1.6301306975        2.8200742953       15.5809580386
 Ga        -1.4544371475        4.5964152103       16.4758906131
  N        -0.0042860530        3.7583484914       17.5907575734
  N        -3.2373905992        7.6014403806        2.5078862329
 Ga        -3.1586913663        5.5946299144        2.8457736134
  N        -3.2199721380        5.6198702595        5.0098176197
 Ga        -3.2186145920        7.4415545577        5.7961813211
  N        -3.2260214945        7.4659513453        7.7859231769
 Ga        -3.2185912084        5.6187105762        8.4457361110
  N        -3.2197816756        5.6186806186       10.4148616942
 Ga        -3.2180360153        7.4570418260       11.0725467472
  N        -3.2186867479        7.4374553252       13.0594975350
 Ga        -3.2200260129        5.6188933676       13.8760248021
  N        -3.2222694482        5.6180868599       16.0653028851
 Ga        -3.2228983386        7.6696136008       16.4854563694
 Ga        -3.1884639022        9.3612164082        1.4513518998
  N        -4.7367391856       10.1973562055        2.4902016220
 Ga        -4.8682411176        8.3893583498        3.2980090588
  N        -4.8551271194        8.3908914253        5.2273776062
 Ga        -4.8545223975       10.2832540674        5.7904179829
  N        -4.8355577628       10.2610974348        7.7812152059
 Ga        -4.8131886379        8.4132176419        8.4472404927
  N        -4.8156036647        8.4101924846       10.4298008221
 Ga        -4.8413821815       10.2700938547       11.0716716051
  N        -4.8579611321       10.2776974974       13.0584884523
 Ga        -4.8155620380        8.4090437748       13.6199382435
  N        -4.8453033562        8.3917902275       15.5724017116
 Ga        -4.6596446431       10.1582324702       16.4850418668
  N        -3.2171908370        9.3324211495       17.6305591494
  N         3.1975759138        1.9268555297        2.5942721456
 Ga         3.2067703942        0.1805491053        3.2686314700
  N         3.2097024492        0.0513842045        5.2317905858
 Ga         3.2058981375        1.9128483395        5.8674282984
  N         3.2148476973        1.9046023255        7.8399602805
 Ga         3.2128619668        0.0390202381        8.4342805437
  N         3.2123374340        0.0340438993       10.4229941356
 Ga         3.2137536353        1.9038951588       11.0249806586
  N         3.2140525470        1.9038052222       12.9917218119
 Ga         3.2137528681        0.0347366384       13.6207830436
  N         3.2100431856        0.0656600293       15.5765778683
 Ga         3.2168527074        1.9024127108       15.8593833898
  N         1.4512185487        4.6068404123        2.4989697966
 Ga         1.6610471526        2.8040701616        3.2641879369
  N         1.6109017568        2.8328067186        5.2424642429
 Ga         1.6399095835        4.7085096102        5.7938457061
  N         1.6180026725        4.6946517920        7.8000704640
 Ga         1.5959446982        2.8398544280        8.4352829764
  N         1.5952175463        2.8376001776       10.4269830499
 Ga         1.6216924739        4.6974695317       11.0706187559
  N         1.6393719397        4.7076746343       13.0624996026
 Ga         1.5957306108        2.8380826836       13.6213582982
  N         1.6240284577        2.8208906360       15.5823000182
 Ga         1.4462108867        4.5961514919       16.4763816720
  N         0.0077173574        7.4603500685        2.6274219961
 Ga        -0.0010555402        5.7029934422        3.2790123765
  N        -0.0024247001        5.6123583394        5.2513822136
 Ga        -0.0016502951        7.4696736024        5.8506408147
  N        -0.0022213726        7.4772855455        7.8315425486
 Ga        -0.0006304460        5.6071940471        8.4345896826
  N        -0.0025861136        5.6053459439       10.4273785340
 Ga        -0.0029227156        7.4746937654       11.0276214576
  N        -0.0022471436        7.4740154297       12.9944286334
 Ga        -0.0017565610        5.6044548934       13.6222794133
  N        -0.0024628280        5.6381804547       15.5832569896
 Ga        -0.0020689547        7.4770256576       15.8595630584
  N        -1.7210627901       10.2036775140        2.5353012492
 Ga        -1.4974867380        8.3346844573        3.2767808916
  N        -1.6256781370        8.4118631371        5.2396171889
 Ga        -1.5896759058       10.2796947306        5.7992425239
  N        -1.6015891841       10.2696993969        7.7905068146
 Ga        -1.6187395743        8.4092527352        8.4329207532
  N        -1.6231626121        8.4095377479       10.4231602031
 Ga        -1.5970432544       10.2686930693       11.0704276933
  N        -1.5785636685       10.2781282198       13.0590330588
 Ga        -1.6214788226        8.4090313103       13.6217332338
  N        -1.5960532534        8.3899923210       15.5776297538
 Ga        -1.7798507259       10.1618599678       16.4855211752
  N         6.4306696634        2.0227003741        2.5444277239
 Ga         6.4286069734        0.0416803862        2.8729421305
  N         6.4293633930        0.0524385097        5.0180095296
 Ga         6.4250236051        1.8814592338        5.8014879259
  N         6.4292377795        1.8952636439        7.7918410011
 Ga         6.4285256395        0.0505493375        8.4494907747
  N         6.4293547307        0.0481507724       10.4176409419
 Ga         6.4297255842        1.8882132915       11.0710470383
  N         6.4303788226        1.8671159780       13.0596310059
 Ga         6.4294669699        0.0471781003       13.8739351639
  N         6.4297995933        0.0470561625       16.0632391527
 Ga         6.4279281479        2.0916090173       16.4844483959
 Ga         6.4528065717        3.7125507797        1.4964591033
  N         4.9453870728        4.6367603252        2.4876393280
 Ga         4.7055131816        2.7876387798        3.2895282382
  N         4.8218834935        2.8426144532        5.2439618693
 Ga         4.7755498260        4.7161789794        5.8001163658
  N         4.8212122030        4.6975952763        7.7948666911
 Ga         4.8304494185        2.8395130466        8.4373344729
  N         4.8331882774        2.8393205135       10.4258894561
 Ga         4.8068579594        4.6976024707       11.0714374388
  N         4.7908522998        4.7075310616       13.0591522869
 Ga         4.8329831097        2.8388708031       13.6194659676
  N         4.8049579293        2.8261430799       15.5762138815
 Ga         4.9879235309        4.5935188049       16.4848299100
  N         6.4276875677        3.7544424885       17.6332876791
  N         3.2156217022        7.6290131179        2.5082439977
  N         3.2185195983        5.6250979398        5.0471796402
 Ga         3.2137012634        7.4276407372        5.8077279700
  N         3.2219439421        7.4703113742        7.8018415001
 Ga         3.2150161025        5.6178133143        8.4453139367
  N         3.2159434390        5.6184132128       10.4168325272
 Ga         3.2141577694        7.4565724647       11.0731535589
  N         3.2149175892        7.4374155208       13.0607586142
 Ga         3.2164220539        5.6180787581       13.8734037003
  N         3.2168307463        5.6183926643       16.0662518594
 Ga         3.2148521957        7.6653518110       16.4851711630
 Ga         3.1819392931        9.3906596177        1.4670724274
  N         1.7132656594       10.2099784967        2.5504722720
 Ga         1.4943146203        8.3425916435        3.3014566185
  N         1.6223431351        8.4143970868        5.2561923968
 Ga         1.5813884227       10.2791659838        5.8112465478
  N         1.5958608614       10.2707805582        7.7997417361
 Ga         1.6144529196        8.4093982932        8.4390599586
  N         1.6175752299        8.4100868586       10.4283192371
 Ga         1.5911241823       10.2692774895       11.0727458470
  N         1.5739873023       10.2787053858       13.0612039231
 Ga         1.6175492503        8.4089638667       13.6209746607
  N         1.5923087746        8.3906203516       15.5778426059
 Ga         1.7678487977       10.1638472487       16.4847026898
  N         3.2082955000        9.3323954446       17.6334779600
  N         9.6550975130        1.9166501681        2.6172204700
 Ga         9.6494325438        0.1793872939        3.2974228885
  N         9.6490377157        0.0493891156        5.2537234313
 Ga         9.6525806694        1.9113061459        5.8801870255
  N         9.6456217248        1.9049776405        7.8491390878
 Ga         9.6475390717        0.0380902251        8.4417256458
  N         9.6479979292        0.0341116172       10.4286045777
 Ga         9.6462597884        1.9049191457       11.0258752778
  N         9.6459767003        1.9039575105       12.9931506381
 Ga         9.6470469502        0.0343770509       13.6215783418
  N         9.6484831242        0.0637466336       15.5791954101
 Ga         9.6424270153        1.9017386267       15.8603823111
  N         7.9292206917        4.6525629897        2.5129975100
 Ga         8.1499575186        2.7792874973        3.3013973319
  N         8.0358391159        2.8396828559        5.2550402119
 Ga         8.0677440977        4.7108857357        5.7977789214
  N         8.0432819244        4.7005288698        7.7864370970
 Ga         8.0281120451        2.8400494801        8.4371440342
  N         8.0265976845        2.8405617453       10.4254331515
 Ga         8.0539547785        4.6979535154       11.0729570132
  N         8.0703939102        4.7076265570       13.0601370903
 Ga         8.0271177008        2.8390713096       13.6212476667
  N         8.0535673612        2.8253573798       15.5788161523
 Ga         7.8684255087        4.5937519347       16.4850116059
  N         6.4176494050        7.4908154605        2.5492406787
 Ga         6.4169511915        5.6753037941        3.3114776029
  N         6.4277110084        5.6506036824        5.2348859406
 Ga         6.4275477921        7.4786776275        5.9230267547
  N         6.4303741086        7.4767848004        7.8653813576
 Ga         6.4302656025        5.6035301059        8.4502213895
  N         6.4313462927        5.6064801867       10.4324603088
 Ga         6.4310623839        7.4750061971       11.0297434516
  N         6.4300739439        7.4738481773       12.9942795185
 Ga         6.4303503116        5.6040966383       13.6204442005
  N         6.4286470330        5.6347831812       15.5756478217
 Ga         6.4290455018        7.4731274413       15.8528351562
  N         4.7256107502       10.2033559601        2.5057929613
 Ga         4.8483249522        8.3906202436        3.3059248974
  N         4.8465747300        8.3931538393        5.2332357333
 Ga         4.8513170016       10.2811523234        5.8024215403
  N         4.8331462092       10.2621114758        7.7902480519
 Ga         4.8096127498        8.4133237334        8.4536722491
  N         4.8132517012        8.4107164463       10.4350405781
 Ga         4.8391347322       10.2705836530       11.0738420695
  N         4.8550363632       10.2783416431       13.0607611354
 Ga         4.8114104016        8.4094192767       13.6209674317
  N         4.8369288779        8.3925333717       15.5763226199
 Ga         4.6555118814       10.1602101724       16.4848740553
  O         0.0609659529        3.7219970594       -0.4958411048
  H         2.3040276491        6.1765282343        0.2529333165
  C         0.6505272033        2.5717882701       -1.1176605407
  H         1.7120177557        2.4450524138       -0.8417693587
  H         0.1300925435        1.6324041263       -0.8633895728
  H         0.5933286481        2.7076171514       -2.2089853206
 Ga         3.1557686830        5.6043450041        2.5833818837
  O         3.1313781172        5.6831519968        0.3719779980
  H         2.9230092651        4.7583718855        0.1452595649
  C         6.4323024694        7.4191454189        1.0351707014
  H         5.5526485800        7.9098055857        0.5910988169
  H         7.3303845807        7.8910920803        0.6145911998
  H         6.4270659876        6.3782102605        0.6667665009
     212
 i =        3, E =     -8504.7173318842
  N        -0.0105526134        2.0398964931        2.5055407135
 Ga        -0.0071465822        0.1060693777        2.8509148349
  N        -0.0034025880        0.0500605998        5.0109445237
 Ga         0.0004032311        1.8891422301        5.7948051439
  N        -0.0018037144        1.8929625640        7.7927850676
 Ga        -0.0003594218        0.0503991759        8.4410188651
  N        -0.0013269513        0.0465834486       10.4113679292
 Ga        -0.0012447923        1.8865955991       11.0706898658
  N        -0.0019197815        1.8654281152       13.0620710771
 Ga        -0.0012961534        0.0448788980       13.8757179826
  N        -0.0031992401        0.0438239090       16.0644276368
 Ga        -0.0034030656        2.0840088837       16.4745479275
 Ga        -0.0503461590        3.7436231527        1.3348543999
  N        -1.4915925201        4.6193573617        2.5014498296
 Ga        -1.6764411951        2.7970973314        3.2773080106
  N        -1.6159995926        2.8321673284        5.2536153715
 Ga        -1.6254987593        4.7018502446        5.8003349714
  N        -1.6228685891        4.6967890055        7.7964442733
 Ga        -1.5987351451        2.8399681581        8.4377500552
  N        -1.5986088884        2.8390517381       10.4283892561
 Ga        -1.6244321378        4.6987764307       11.0711041069
  N        -1.6432036793        4.7079632658       13.0625743215
 Ga        -1.5996896562        2.8379722878       13.6203845980
  N        -1.6307492621        2.8197845037       15.5805433709
 Ga        -1.4541850259        4.5967877247       16.4748617063
  N        -0.0042200868        3.7584303371       17.5907502725
  N        -3.2347101507        7.5975247581        2.5032530166
 Ga        -3.1695819753        5.5937993613        2.8456469277
  N        -3.2172177469        5.6198933292        5.0097168645
 Ga        -3.2161206666        7.4414049110        5.7947671118
  N        -3.2239073699        7.4664383636        7.7847844020
 Ga        -3.2172852161        5.6190464596        8.4448304847
  N        -3.2192306233        5.6187253746       10.4140576228
 Ga        -3.2160565363        7.4570085067       11.0721004746
  N        -3.2181986830        7.4371749302       13.0589512453