     230
 i =        1, E =     -8577.2819310072
  N         0.0761521588        1.9566934175        2.4516990683
 Ga         0.0765192676       -0.0211041706        2.8443453129
  N         0.0762859999       -0.0223443357        5.0118099988
 Ga         0.0799351568        1.7925328473        5.8044091195
  N         0.0793135881        1.8173874784        7.7918245073
 Ga         0.0769833351       -0.0310489282        8.4439299815
  N         0.0787381160       -0.0303413570       10.4122869581
 Ga         0.0788451460        1.8080122037       11.0781964595
  N         0.0796853483        1.7894245734       13.0646124108
 Ga         0.0794995679       -0.0309109204       13.8853638804
  N         0.0797521192       -0.0307831044       16.0676736830
 Ga         0.0795782031        2.0173328675       16.4961005270
 Ga         0.0489867402        3.7087682357        1.3572927049
  N        -1.4215468143        4.5472128057        2.5151012302
 Ga        -1.5597801673        2.7287483867        3.2930109088
  N        -1.5442701649        2.7421657925        5.2473418716
 Ga        -1.5629573908        4.6221460321        5.8130225824
  N        -1.5386220134        4.6130561867        7.7978188852
 Ga        -1.5170394938        2.7575056116        8.4472161996
  N        -1.5172640231        2.7599388981       10.4288627275
 Ga        -1.5436303717        4.6181523712       11.0755511922
  N        -1.5600596168        4.6304888476       13.0604974028
 Ga        -1.5184692851        2.7613050046       13.6273443914
  N        -1.5487829070        2.7468230023       15.5810931446
 Ga        -1.3539509563        4.5103820378       16.4969466124
  N         0.0794784593        3.6758931317       17.6304132939
  N        -3.1336638947        7.5358797332        2.5234583905
 Ga        -3.1196834663        5.5456707118        2.8597220414
  N        -3.1349617404        5.5361039836        5.0207155126
 Ga        -3.1447578680        7.3597636772        5.8023102629
  N        -3.1395043256        7.3868246063        7.7896447218
 Ga        -3.1387190997        5.5388105097        8.4494126450
  N        -3.1373220039        5.5397974184       10.4159149199
 Ga        -3.1387219922        7.3805656467       11.0759941638
  N        -3.1364008552        7.3613825346       13.0601893558
 Ga        -3.1306293803        5.5446010963       13.8702194079
  N        -3.1370571251        5.5404765995       16.0626226378
 Ga        -3.1386246475        7.6025538718       16.4991857781
 Ga        -3.1397499778        9.2506588664        1.4224897424
  N        -4.6377325012       10.1233080834        2.5057633808
 Ga        -4.8063604174        8.2997877903        3.2940037563
  N        -4.7682051833        8.3138732737        5.2430351082
 Ga        -4.7776223741       10.2009425509        5.7903105567
  N        -4.7542631910       10.1875478063        7.7821638909
 Ga        -4.7359129439        8.3343563757        8.4441151246
  N        -4.7346902511        8.3331029400       10.4270102689
 Ga        -4.7614152190       10.1916518190       11.0783743457
  N        -4.7762792273       10.2010186395       13.0641280992
 Ga        -4.7347267629        8.3311884793       13.6275303577
  N        -4.7619000438        8.3132166116       15.5791453102
 Ga        -4.5759997147       10.0845057168       16.4986064628
  N        -3.1410344453        9.2576616096       17.6479677969
  N         3.2778648446        1.8401200719        2.6546505371
 Ga         3.2900116027        0.0296874826        3.2981986604
  N         3.2942729683       -0.0072162725        5.2464292964
 Ga         3.2882750268        1.8285486677        5.9186706102
  N         3.2940879714        1.8265728477        7.8691632459
 Ga         3.2924230443       -0.0443050146        8.4469691510
  N         3.2939669625       -0.0424428604       10.4291224169
 Ga         3.2953493342        1.8268142593       11.0317761185
  N         3.2957224362        1.8273434390       12.9937918338
 Ga         3.2961966181       -0.0415462760       13.6280853513
  N         3.2972706670       -0.0085164425       15.5802019579
 Ga         3.2942328904        1.8253861129       15.8652439357
  N         1.5815848910        4.5506306337        2.5046761625
 Ga         1.7013664541        2.7476261194        3.2947157194
  N         1.7000438762        2.7452646931        5.2502041608
 Ga         1.7249161279        4.6233023332        5.8130357726
  N         1.6973251663        4.6130646729        7.7979549192
 Ga         1.6736837999        2.7590061215        8.4504659794
  N         1.6759667649        2.7598561931       10.4313701507
 Ga         1.7027433016        4.6190351470       11.0757082591
  N         1.7196555426        4.6306904999       13.0607939357
 Ga         1.6773859598        2.7617282035       13.6281150667
  N         1.7084715992        2.7467118959       15.5817342229
 Ga         1.5136904877        4.5103220126       16.4974396464
  N         0.0812090068        7.3825171859        2.6933851997
 Ga         0.0876182958        5.5401959777        3.3336318357
  N         0.0807273267        5.5461682641        5.2684919479
 Ga         0.0878692202        7.3946476444        5.9089638316
  N         0.0815605875        7.3969503617        7.8620018483
 Ga         0.0796432492        5.5237945797        8.4491228480
  N         0.0792163618        5.5259607002       10.4303833329
 Ga         0.0803033832        7.3970256189       11.0318355976
  N         0.0796976312        7.3967889840       12.9938376819
 Ga         0.0797946798        5.5279176130       13.6279133615
  N         0.0799442893        5.5605112614       15.5825796782
 Ga         0.0802462655        7.3984561752       15.8647144496
  N        -1.6431947420       10.1107520315        2.5251268375
 Ga        -1.4970995897        8.3062840405        3.3383862204
  N        -1.5156919874        8.3165016849        5.2675264281
 Ga        -1.5013800750       10.2052725250        5.8033629760
  N        -1.5217800088       10.1886223973        7.7904249188
 Ga        -1.5417753405        8.3326781405        8.4477124376
  N        -1.5408029538        8.3321587601       10.4293572613
 Ga        -1.5148097614       10.1920564631       11.0756047381
  N        -1.4968194954       10.2006964713       13.0601319401
 Ga        -1.5388125019        8.3319178229       13.6279678903
  N        -1.5124152314        8.3159199288       15.5817798475
 Ga        -1.7062813335       10.0819355244       16.4997959685
  N         6.5150572782        1.9396623981        2.5175731702
 Ga         6.5147310752       -0.0474034948        2.8687125875
  N         6.5121060342       -0.0291379983        5.0237442100
 Ga         6.5073342456        1.7929818776        5.8022024639
  N         6.5114429884        1.8184212150        7.7899946068
 Ga         6.5138198878       -0.0300599901        8.4462507819
  N         6.5123821010       -0.0298816736       10.4140128364
 Ga         6.5127406269        1.8097469586       11.0738832747
  N         6.5120673174        1.7882389552       13.0626800852
 Ga         6.5123854694       -0.0376539651       13.8706333872
  N         6.5119921446       -0.0296418472       16.0624427040
 Ga         6.5121811239        1.9888558598       16.4534995997
 Ga         6.4973737373        3.6956461843        1.4777138460
  N         4.9950647868        4.5583238978        2.5308100769
 Ga         4.8511405607        2.7297517574        3.3086675270
  N         4.8816266158        2.7435235523        5.2542448881
 Ga         4.8723858818        4.6290996050        5.7979153111
  N         4.8968386214        4.6155211794        7.7879781605
 Ga         4.9150568109        2.7612484242        8.4469565006
  N         4.9149528191        2.7616312697       10.4304808916
 Ga         4.8892734646        4.6212612928       11.0744758078
  N         4.8706596608        4.6314742422       13.0630570967
 Ga         4.9126549901        2.7603611800       13.6153541244
  N         4.8896006829        2.7488290985       15.5770844111
 Ga         5.0460368063        4.5320940874       16.4537236530
  N         6.5120952301        3.6811069177       17.6108223244
  N         3.2950165661        7.5192036533        2.4773652042
  N         3.2930124311        5.5392006354        5.0207640471
 Ga         3.2974586881        7.3610269516        5.7981981330
  N         3.2968981371        7.3887228421        7.7863635956
 Ga         3.2972345801        5.5415531894        8.4473114990
  N         3.2962223339        5.5407165100       10.4149361482
 Ga         3.2983455206        7.3814783037       11.0750738157
  N         3.2959525251        7.3614772690       13.0596239950
 Ga         3.2900756084        5.5451750731       13.8705797238
  N         3.2966370685        5.5404520071       16.0630977529
 Ga         3.2983404606        7.6029161828       16.5001692753
 Ga         3.3038160994        9.2591926524        1.3188109611
  N         1.7888176666       10.1233938086        2.4929596444
 Ga         1.6826314569        8.3186906626        3.2919053139
  N         1.6781089305        8.3169725237        5.2371840757
 Ga         1.6608172256       10.1983505751        5.7970076653
  N         1.6810637532       10.1868968486        7.7857574521
 Ga         1.7027367977        8.3340395033        8.4473785760
  N         1.7003920970        8.3329281014       10.4286935501
 Ga         1.6754739655       10.1925267283       11.0747086590
  N         1.6565279893       10.2007541811       13.0593777817
 Ga         1.6984401862        8.3319414782       13.6276663626
  N         1.6725425517        8.3160434122       15.5814686427
 Ga         1.8663334681       10.0816442020       16.5003049199
  N         3.3004515997        9.2578330430       17.6488361795
  N         9.7159323323        1.8181827253        2.6807362504
 Ga         9.7268974532       -0.0088658264        3.2905479629
  N         9.7279042339       -0.0145846165        5.2446060157
 Ga         9.7329443330        1.8188412860        5.9156818730
  N         9.7282617794        1.8241448739        7.8665042395
 Ga         9.7306483108       -0.0459632411        8.4411269643
  N         9.7293044972       -0.0427313096       10.4244925804
 Ga         9.7285460017        1.8258128390       11.0287819771
  N         9.7280783076        1.8271458372       12.9913979815
 Ga         9.7279924955       -0.0413521873       13.6274879315
  N         9.7267865560       -0.0086039234       15.5796983644
 Ga         9.7302712267        1.8251291224       15.8653273383
  N         8.0227274071        4.5476529274        2.5230567843
 Ga         8.1592803568        2.7286474034        3.3344469453
  N         8.1372360221        2.7437487318        5.2746260508
 Ga         8.1471080717        4.6307801838        5.8005820330
  N         8.1265225361        4.6155647690        7.7886740415
 Ga         8.1093980794        2.7606251671        8.4438273581
  N         8.1092222811        2.7615244207       10.4279012287
 Ga         8.1341310618        4.6199945210       11.0743346543
  N         8.1531282293        4.6312342675       13.0626528212
 Ga         8.1116880753        2.7601861128       13.6148069174
  N         8.1348104219        2.7484660076       15.5766559286
 Ga         7.9777615882        4.5317639928       16.4531004852
  N         6.4773011418        7.4026092999        2.6689770219
 Ga         6.5063544574        5.5939759581        3.3140177445
  N         6.5105536705        5.5636739083        5.2577235334
 Ga         6.5041572398        7.4016470221        5.9161409068
  N         6.5092893721        7.3980570128        7.8652041675
 Ga         6.5118473966        5.5275289349        8.4445942356
  N         6.5120555009        5.5278865048       10.4284375633
 Ga         6.5111079283        7.3982998058       11.0295185913
  N         6.5117441205        7.3971849398       12.9920320304
 Ga         6.5120432313        5.5310832966       13.6147511066
  N         6.5119453106        5.5577378319       15.5753191413
 Ga         6.5119876368        7.4008208427       15.8629011715
  N         4.8050966027       10.1297247648        2.4660918506
 Ga         4.9102873630        8.3215103097        3.2992059801
  N         4.9162199253        8.3177154978        5.2499190380
 Ga         4.9329754163       10.2000843987        5.7891232006
  N         4.9117785422       10.1871514243        7.7798379765
 Ga         4.8911057745        8.3364711657        8.4415124832
  N         4.8934804095        8.3334041565       10.4247162559
 Ga         4.9185850701       10.1912920500       11.0767360455
  N         4.9356213731       10.2010177617       13.0628868909
 Ga         4.8938634962        8.3315963329       13.6277090936
  N         4.9215046421        8.3133395314       15.5793299200
 Ga         4.7349169079       10.0844508023       16.4994505533
  O         0.0039496165        4.0764425816       -0.4405696724
  H        -0.1923092371        5.8771964053       -0.3479350185
  C         1.1298186866        3.6305191484       -1.2209419742
  H         2.0960252401        3.9450930544       -0.7928997117
  H         1.1193258288        2.5352617036       -1.3304961932
  H         1.0313526563        4.0813972370       -2.2184779948
 Ga         3.2737604321        5.5491347524        2.8595822860
  O        -0.1906915635        6.8553112649       -0.1836427336
  H         0.0289562683        7.3101177136        1.6536531799
  C         0.9324712602        7.3913965381       -0.9002222268
  H         0.9565555602        8.4741047189       -0.7329264361
  H         1.8877282607        6.9741094852       -0.5422085093
  H         0.8657843669        7.2174717065       -1.9850932068
  O        -3.2661117981        9.3563704147       -0.3847659720
  C        -3.9789461741       10.4888519564       -0.8918006142
  H        -5.0440081266       10.5100227001       -0.6030269507
  H        -3.5261240535       11.4609936289       -0.6276123926
  H        -3.9195030954       10.3791913632       -1.9843254716
  O         3.2342197924        9.3634630530       -0.4775043373
  C         3.8034196390       10.5310964559       -1.0848974306
  H         3.2789177782       11.4565464582       -0.7909540201
  H         4.8741845710       10.6325280102       -0.8474927272
  H         3.6915118216       10.4056619195       -2.1711067284
  O         6.3304604079        3.7613730581       -0.3240059165
  C         6.9709627671        2.6315190642       -0.9271752940
  H         8.0393042040        2.5584890454       -0.6542988521
  H         6.4777045926        1.6845338614       -0.6502348203
  H         6.8958439276        2.7854979426       -2.0102543267
  H         6.4019395549        7.4001145060        1.6534578349
  H         9.6631411291        1.8218101669        1.6705814308
  H         3.2447236005        1.8795005358        1.6278343602
     230
 i =        2, E =     -8577.2983414549
  N         0.0732010163        1.9646705203        2.4551040969
 Ga         0.0814428766       -0.0324812802        2.8473931747
  N         0.0749384079       -0.0235341962        5.0035315404
 Ga         0.0777724289        1.7875730960        5.8127595165
  N         0.0792547672        1.8171739571        7.7875662206
 Ga         0.0799389079       -0.0316697288        8.4490116204
  N         0.0788052253       -0.0304468922       10.4076533627
 Ga         0.0793183067        1.8060100727       11.0856368379
  N         0.0795858880        1.7876400329       13.0627584416
 Ga         0.0793954257       -0.0314415615       13.8957089906
  N         0.0796348759       -0.0294596531       16.0652852714
 Ga         0.0796133248        2.0225616980       16.4992801200
 Ga         0.0471447207        3.7228243597        1.3435835222
  N        -1.4202694495        4.5403922477        2.5157138473
 Ga        -1.5467689945        2.7418216316        3.3073696425
  N        -1.5437949720        2.7410830354        5.2390566036
 Ga        -1.5647043020        4.6255017618        5.8162697643
  N        -1.5387211707        4.6128327500        7.7912961160
 Ga        -1.5152400187        2.7602834725        8.4584439269
  N        -1.5146959706        2.7612777466       10.4287067028
 Ga        -1.5440832643        4.6206087017       11.0819694079
  N        -1.5617334426        4.6315654953       13.0592325542
 Ga        -1.5192796391        2.7608229155       13.6308890986
  N        -1.5490249241        2.7427815007       15.5783337151
 Ga        -1.3549027463        4.5086629150       16.4988127295
  N         0.0793879451        3.6794201707       17.6292926842
  N        -3.1429061464        7.5348366900        2.5265223091
 Ga        -3.1302191812        5.5481606549        2.8617353368
  N        -3.1334100752        5.5390789235        5.0163437991
 Ga        -3.1419419602        7.3605948898        5.8075180989
  N        -3.1404407410        7.3867460291        7.7858570288
 Ga        -3.1378935603        5.5406666833        8.4529114434
  N        -3.1367053548        5.5402196377       10.4103908254
 Ga        -3.1370745848        7.3801353370       11.0804034667
  N        -3.1362095909        7.3590022103       13.0572060231
 Ga        -3.1352375660        5.5422858552       13.8845698511
  N        -3.1412686974        5.5371644657       16.0574293714
 Ga        -3.1395239464        7.5998529573       16.5023386099
 Ga        -3.1268562056        9.2365109791        1.3710725036
  N        -4.6333163495       10.1204216714        2.5092256180
 Ga        -4.7743699826        8.3189831537        3.3044523581
  N        -4.7700020457        8.3135456198        5.2392402327
 Ga        -4.7782931038       10.2013156210        5.7947846217
  N        -4.7541521599       10.1874736058        7.7763111133
 Ga        -4.7329272589        8.3352278574        8.4516292421
  N        -4.7325073634        8.3345235823       10.4239858419
 Ga        -4.7620099093       10.1921869878       11.0837744176
  N        -4.7781096474       10.2020972013       13.0603997944
 Ga        -4.7348762913        8.3311544324       13.6308827981
  N        -4.7624039439        8.3166488611       15.5778258208
 Ga        -4.5737526937       10.0837992447       16.5030661850
  N        -3.1379757004        9.2558869770       17.6515971306
  N         3.2780358054        1.8346752864        2.6706653364
 Ga         3.2910184512       -0.0096450209        3.3096184225
  N         3.2936370655       -0.0043494704        5.2432957521
 Ga         3.2893538748        1.8273552298        5.9248766996
  N         3.2930891488        1.8269901245        7.8643798442
 Ga         3.2931604586       -0.0466814765        8.4532850788
  N         3.2940758357       -0.0450447263       10.4252548112
 Ga         3.2951910741        1.8261053363       11.0326268914
  N         3.2944062703        1.8266158807       12.9848723484
 Ga         3.2960281223       -0.0410695327       13.6315535283
  N         3.2943246493       -0.0097330676       15.5784513528
 Ga         3.2981126721        1.8262779346       15.8659247709
  N         1.5766483209        4.5464232624        2.5079103178
 Ga         1.6835043756        2.7583029330        3.3128112536
  N         1.6974821374        2.7445314196        5.2443172716
 Ga         1.7233925051        4.6270681317        5.8190507666
  N         1.6984511816        4.6133821313        7.7932807398
 Ga         1.6730268816        2.7610783935        8.4603671172
  N         1.6735519874        2.7616646891       10.4300525699
 Ga         1.7036296929        4.6211884388       11.0822311093
  N         1.7215043837        4.6320257918       13.0593723539
 Ga         1.6781219791        2.7613895550       13.6314596450
  N         1.7086964857        2.7427674910       15.5788972839
 Ga         1.5144949420        4.5086576805       16.4992892398
  N         0.0701689921        7.3860562386        2.6878492043
 Ga         0.0830695596        5.5530567648        3.3321412436
  N         0.0802345724        5.5439591138        5.2613761252
 Ga         0.0845490818        7.3958696570        5.9094722366
  N         0.0821308783        7.3960157904        7.8561323320
 Ga         0.0796889501        5.5245642737        8.4536659325
  N         0.0797095628        5.5253147237       10.4257865987
 Ga         0.0801567693        7.3975864806       11.0333949133
  N         0.0800172043        7.3968879262       12.9875507641
 Ga         0.0798380501        5.5286236499       13.6318006664
  N         0.0798944563        5.5628978878       15.5811999783
 Ga         0.0801910933        7.3998818685       15.8693414608
  N        -1.6475774471       10.1176019818        2.5304679092
 Ga        -1.5101441654        8.3133123172        3.3317735165
  N        -1.5169360359        8.3175196937        5.2605629755
 Ga        -1.5000732322       10.2030588997        5.8087492964
  N        -1.5220730733       10.1896814682        7.7869767610
 Ga        -1.5417004366        8.3327716239        8.4481671911
  N        -1.5408746108        8.3324740471       10.4219202899
 Ga        -1.5131954277       10.1912603984       11.0799309274
  N        -1.4949030786       10.2015688242       13.0572278602
 Ga        -1.5385571945        8.3315850056       13.6317583097
  N        -1.5129596099        8.3165110310       15.5808891743
 Ga        -1.7048105580       10.0843269441       16.5031636173
  N         6.5100684268        1.9605810343        2.5247387433
 Ga         6.5125635669       -0.0406289317        2.8669704005
  N         6.5125571770       -0.0322342148        5.0192639942
 Ga         6.5072528762        1.7854033807        5.8113291441
  N         6.5097967695        1.8169329129        7.7880474141
 Ga         6.5122527427       -0.0311598804        8.4496540978
  N         6.5125697835       -0.0306300011       10.4079290384
 Ga         6.5123308947        1.8078627661       11.0780689281
  N         6.5121702243        1.7882113327       13.0545223571
 Ga         6.5125635342       -0.0327079937       13.8839574541
  N         6.5121407236       -0.0236361930       16.0572177064
 Ga         6.5121946517        2.0102951350       16.4797036370
 Ga         6.4877226502        3.7114408659        1.4156584871
  N         5.0070300904        4.5549522815        2.5497741382
 Ga         4.8743057199        2.7440010893        3.3230438505
  N         4.8823159123        2.7427032566        5.2517249869
 Ga         4.8681501241        4.6308419448        5.8036439850
  N         4.8949846603        4.6158526165        7.7827920093
 Ga         4.9161780618        2.7628974815        8.4541370718
  N         4.9160494497        2.7626296381       10.4260629022
 Ga         4.8878141168        4.6218764984       11.0789979214
  N         4.8701911528        4.6317803069       13.0545573739
 Ga         4.9121463147        2.7603874684       13.6208936894
  N         4.8887517777        2.7478015120       15.5688225333
 Ga         5.0640624112        4.5206440642       16.4792341890
  N         6.5123904563        3.6812981729       17.6398835613
  N         3.2934808500        7.5371887944        2.4770012920
  N         3.2903486155        5.5436465948        5.0154153460
 Ga         3.2925769021        7.3606609871        5.8118429317
  N         3.2963491435        7.3871950456        7.7873990385
 Ga         3.2977106539        5.5407373399        8.4528154405
  N         3.2958229382        5.5411556776       10.4099117487
 Ga         3.2966734498        7.3802420326       11.0806551332
  N         3.2957678807        7.3592143855       13.0569379703
 Ga         3.2948523396        5.5429376174       13.8847389355
  N         3.3009352945        5.5373202439       16.0578813318
 Ga         3.2992470065        7.6003891460       16.5028616316
 Ga         3.2888388683        9.2515696307        1.3058849073
  N         1.8004874587       10.1191307494        2.5002885209
 Ga         1.6665544254        8.3148476701        3.2939074228
  N         1.6795095520        8.3181971418        5.2337977236
 Ga         1.6561926910       10.1978191634        5.8070368338
  N         1.6804800208       10.1868798700        7.7846112633
 Ga         1.7011198188        8.3333410789        8.4521076195
  N         1.7011829717        8.3331611266       10.4237840252
 Ga         1.6731735750       10.1916252621       11.0801700980
  N         1.6550629007       10.2015418985       13.0569560031
 Ga         1.6984441003        8.3317098351       13.6315683602
  N         1.6730052352        8.3166500648       15.5805574977
 Ga         1.8648734330       10.0841367599       16.5032180210
  N         3.2975303228        9.2563265660       17.6520137838
  N         9.7083940078        1.8216466959        2.6909989401
 Ga         9.7213538520       -0.0287953826        3.3080215626
  N         9.7288224042       -0.0157941740        5.2399014355
 Ga         9.7308660009        1.8201564744        5.9215774200
  N         9.7299542470        1.8240742339        7.8619078090
 Ga         9.7285933347       -0.0480153029        8.4517850961
  N         9.7290751943       -0.0457800263       10.4236138429
 Ga         9.7286773482        1.8252749027       11.0307371107
  N         9.7294215895        1.8260401672       12.9832143929
 Ga         9.7281954957       -0.0409781988       13.6313308085
  N         9.7299011691       -0.0097304900       15.5781004994
 Ga         9.7263570755        1.8261039855       15.8659747332
  N         8.0053028909        4.5450330231        2.5368206076
 Ga         8.1263411440        2.7463883243        3.3453130115
  N         8.1345588063        2.7448974928        5.2688245586
 Ga         8.1544203206        4.6338069777        5.8105087042
  N         8.1275285432        4.6172375734        7.7874968998
 Ga         8.1063926755        2.7619557058        8.4502560470
  N         8.1079708270        2.7619032394       10.4235787033
 Ga         8.1352203028        4.6208838761       11.0784349721
  N         8.1534887104        4.6313456815       13.0543162832
 Ga         8.1123316508        2.7600236829       13.6206416147
  N         8.1356967783        2.7476619814       15.5686520327
 Ga         7.9601033969        4.5206013549       16.4788660438
  N         6.4817951402        7.4042139714        2.6839591148
 Ga         6.5054704619        5.5696378958        3.3337277133
  N         6.5118527567        5.5618729673        5.2588312363
 Ga         6.5054887536        7.4019360896        5.9221840946
  N         6.5093413716        7.3985981072        7.8615703882
 Ga         6.5106658939        5.5250747702        8.4517375415
  N         6.5114316370        5.5264459652       10.4243023111
 Ga         6.5112842099        7.3990278429       11.0299901602
  N         6.5114219533        7.3988467728       12.9832836068
 Ga         6.5119610642        5.5312552296       13.6203377205
  N         6.5120710182        5.5588582895       15.5680500942
 Ga         6.5120597239        7.3978598457       15.8610544972
  N         4.7889743956       10.1236864519        2.4732766551
 Ga         4.8919495336        8.3319420514        3.3164715808
  N         4.9128736378        8.3211719205        5.2454998926
 Ga         4.9364371718       10.2044571225        5.8055755235
  N         4.9126249213       10.1878586483        7.7823507719
 Ga         4.8891207543        8.3354175906        8.4518139519
  N         4.8905436536        8.3346226236       10.4235051113
 Ga         4.9199785877       10.1918114362       11.0830236967
  N         4.9370768617       10.2020038659       13.0595619403
 Ga         4.8937693510        8.3316439188       13.6311836837
  N         4.9221190034        8.3167682655       15.5779843920
 Ga         4.7329763270       10.0837967354       16.5034586939
  O        -0.0005216271        4.0702843634       -0.4522954849
  H        -0.2022124538        5.8768938064       -0.3506861101
  C         1.1298334803        3.6273133902       -1.2282181301
  H         2.0923358405        3.9447413841       -0.7929927881
  H         1.1279934888        2.5321485792       -1.3344766403
  H         1.0365917405        4.0798628140       -2.2239352685
 Ga         3.2848475030        5.5502383284        2.8600960669
  O        -0.1848424272        6.8512841002       -0.1795458967
  H         0.0276465595        7.3114850633        1.6476509879
  C         0.9364336630        7.3943252390       -0.8978175105
  H         0.9515191286        8.4759662074       -0.7319294707
  H         1.8892426021        6.9732393252       -0.5412017569
  H         0.8540112958        7.2124535165       -1.9802553803
  O        -3.2677932452        9.3559293982       -0.4233817729
  C        -3.9786754673       10.4871686659       -0.9253765420
  H        -5.0333172976       10.5059053147       -0.5927629078
  H        -3.5238408543       11.4493758371       -0.6202039281
  H        -3.9375834731       10.4072613797       -2.0171991144
  O         3.2461624118        9.3535395989       -0.4983595834
  C         3.8086821188       10.5313230921       -1.0887128928
  H         3.2819660114       11.4556716457       -0.7925299139
  H         4.8781699489       10.6465495896       -0.8533625845
  H         3.6979069378       10.4155213712       -2.1750576096
  O         6.3219216922        3.7600969777       -0.3758052391
  C         6.9739415384        2.6262104188       -0.9550428594
  H         8.0403810105        2.5542023322       -0.6702393245
  H         6.4863757363        1.6797023425       -0.6653198183
  H         6.9102287575        2.7577324816       -2.0389844153
  H         6.4453462037        7.3931851359        1.6446938307
  H         9.6860257053        1.8269409504        1.6544024218
  H         3.2660135482        1.8616974418        1.6379359409