     156
 i =        1, E =     -6136.6603417726
 Ga        -0.0031973469       -0.0158329449       -0.5375948315
  N        -0.0002729863        1.8584782571        0.6069975298
 Ga        -0.0003340456        1.8280283043        2.6383710075
  N        -0.0033777258       -0.0156158687        3.2696830095
 Ga        -0.0021655596       -0.0150502762        5.2604018058
  N         0.0008177846        1.8596741344        5.8482843185
 Ga         0.0022948156        1.8581485251        7.8482479117
  N         0.0008326055       -0.0150038930        8.4505682332
 Ga         0.0037442660       -0.0157217798       10.4497856041
  N         0.0042799705        1.8600673432       11.0416225996
 Ga         0.0095962500        1.8622228495       13.0320971898
  N         0.0153183204       -0.0087394204       13.6325714550
 Ga         0.0303793344       -0.0177678005       15.6248252955
  N         0.0199910837        1.8574592167       16.2215446748
 Ga         0.0449434875        1.8471454486       18.2876343656
  N         0.0483550930       -0.0268027564       18.6986864711
 Ga        -1.6230536167        2.7898791745        0.3238557461
  N        -1.6248090731        4.6597399794        0.6066985749
 Ga        -1.5956868530        4.6757306864        2.6367562662
  N        -1.6231061720        2.7899847671        3.2283216212
 Ga        -1.6217673503        2.7906180792        5.2398695651
  N        -1.6212818556        4.6608902459        5.8464732881
 Ga        -1.6191121047        4.6615327158        7.8452076398
  N        -1.6203682074        2.7918355901        8.4511669730
 Ga        -1.6194674935        2.7953349551       10.4471751569
  N        -1.6174708450        4.6668700765       11.0552245876
 Ga        -1.6182112650        4.6713853944       13.0528046836
  N        -1.6072488866        2.7997939609       13.6583733145
 Ga        -1.6007114034        2.8161468457       15.6628813742
  N        -1.5865001393        4.6838019399       16.3111950653
 Ga        -1.5139553581        4.6813811325       18.3868567948
  N        -1.5542566469        2.7883600375       18.7561962048
 Ga        -3.2437384063        5.5955548741        0.3237741894
  N        -3.2373749518        7.4661484716        0.6072554454
 Ga        -3.2641817134        7.4807096474        2.6385100794
  N        -3.2426866266        5.5950413237        3.2286600431
 Ga        -3.2419168610        5.5960177101        5.2401177008
  N        -3.2357831695        7.4663011214        5.8469745374
 Ga        -3.2358785456        7.4670868337        7.8461429440
  N        -3.2398793738        5.5961826860        8.4494835961
 Ga        -3.2389636321        5.5972500075       10.4449614556
  N        -3.2308451759        7.4658310052       11.0557002801
 Ga        -3.2219462456        7.4629946491       13.0545083377
  N        -3.2356113841        5.5973034623       13.6928233055
 Ga        -3.2229038100        5.5920724412       15.7298714513
  N        -3.2086868055        7.4743649489       16.2703058517
 Ga        -3.1860128161        7.4477414488       18.3276029560
  N        -3.1598087485        5.5858776878       18.8510453320
 Ga         3.2425513215       -0.0154444663        0.3241613860
  N         3.2414640883        1.8548065974        0.6063991820
 Ga         3.2696607764        1.8704497556        2.6372696007
  N         3.2428082847       -0.0153017600        3.2283227633
 Ga         3.2440037516       -0.0146000163        5.2399954387
  N         3.2446612467        1.8555406158        5.8474767372
 Ga         3.2471208878        1.8563021180        7.8468892151
  N         3.2448895983       -0.0146518921        8.4498201862
 Ga         3.2477444989       -0.0140862788       10.4453887126
  N         3.2516243378        1.8569318506       11.0513060522
 Ga         3.2584314640        1.8540158174       13.0486696397
  N         3.2577832231       -0.0166299781       13.6599085168
 Ga         3.2696543025       -0.0186518419       15.6657282704
  N         3.2837199811        1.8547796136       16.2306674341
 Ga         3.3199014456        1.8605508634       18.2550418620
  N         3.3061924302       -0.0254840852       18.7103287032
 Ga         1.6221357326        2.7905840079        0.3237579275
  N         1.6293373638        4.6603704245        0.6070194373
 Ga         1.6011630416        4.6758754650        2.6371202195
  N         1.6229364914        2.7900956037        3.2290573713
 Ga         1.6243016097        2.7909479058        5.2409202283
  N         1.6297316537        4.6611462259        5.8483922039
 Ga         1.6302412707        4.6616170898        7.8483505984
  N         1.6261113780        2.7902905752        8.4495918830
 Ga         1.6296901840        2.7920976410       10.4450598477
  N         1.6277824082        4.6624053668       11.0491431474
 Ga         1.6292107226        4.6646638822       13.0448158762
  N         1.6312532173        2.7873388016       13.6464709154
 Ga         1.6546511932        2.7848717561       15.6410766126
  N         1.6293345031        4.6649058544       16.1842073992
 Ga         1.6786882937        4.6401650316       18.1815595457
  N         1.6849485150        2.7774946689       18.6349608895
 Ga         0.0031266886        5.5957808330       -0.5460667315
  N         0.0059631123        7.4707667567        0.6066853885
 Ga         0.0060798681        7.4382893962        2.6368367666
  N         0.0030124087        5.5951899844        3.2695712573
 Ga         0.0046925356        5.5962070969        5.2598114622
  N         0.0074733924        7.4707308969        5.8477429621
 Ga         0.0089327531        7.4693622795        7.8473694626
  N         0.0049627177        5.5956923382        8.4474634971
 Ga         0.0067291952        5.5972419964       10.4447565809
  N         0.0116955734        7.4694164795       11.0450078797
 Ga         0.0151610454        7.4714738206       13.0371175833
  N         0.0057287062        5.6027676693       13.6455242961
 Ga         0.0066038528        5.6014663304       15.6417537760
  N         0.0373079426        7.4660812825       16.2688608980
 Ga         0.0724661506        7.4318440917       18.3566765354
  N         0.1408043266        5.5806056372       18.9038852754
 Ga         6.4873192861       -0.0150112314        0.3233758431
  N         6.4933547183        1.8552431998        0.6060714096
 Ga         6.4660939721        1.8703011875        2.6370691123
  N         6.4880554379       -0.0152151858        3.2289363673
 Ga         6.4897979460       -0.0146100118        5.2408918309
  N         6.4945649263        1.8559331091        5.8479410494
 Ga         6.4944334615        1.8568652114        7.8474934083
  N         6.4910164344       -0.0135251611        8.4515540089
 Ga         6.4945851697       -0.0112801283       10.4481685792
  N         6.4964364812        1.8611462432       11.0529848222
 Ga         6.5008587352        1.8654488237       13.0501798925
  N         6.4899889797       -0.0070078486       13.6381429442
 Ga         6.5091278727       -0.0000383003       15.6389608863
  N         6.5163083832        1.8736545848       16.2289183774
 Ga         6.5722806484        1.8767019941       18.2701326700
  N         6.5611232891       -0.0214990443       18.6563668136
 Ga         4.8675978278        2.7916175074       -0.5407228121
  N         4.8709926312        4.6643844146        0.6069448190
 Ga         4.8708432576        4.6332326825        2.6375459153
  N         4.8683124100        2.7899032801        3.2693126787
 Ga         4.8696073816        2.7911731708        5.2595545117
  N         4.8722547325        4.6651825049        5.8481306401
 Ga         4.8727480577        4.6640309215        7.8478129100
  N         4.8709688220        2.7914531561        8.4504378257
 Ga         4.8737800149        2.7956328855       10.4496968478
  N         4.8796193328        4.6660256363       11.0584638228
 Ga         4.8809626983        4.6697598226       13.0609624330
  N         4.8759811842        2.7957635372       13.6539998489
 Ga         4.8829051299        2.8016575964       15.6676303545
  N         4.8619648080        4.6738680435       16.1683081122
 Ga         4.9318759340        4.6623937059       19.0962877210
  N         4.9398992104        2.7841956968       18.7401070519
 Ga         3.2489113269        5.5950409579        0.3233188574
  N         3.2480354061        7.4655300249        0.6067661665
 Ga         3.2754815652        7.4805721223        2.6380872820
  N         3.2486684454        5.5952811854        3.2291113289
 Ga         3.2500908735        5.5963528396        5.2407868342
  N         3.2504882740        7.4661955299        5.8494229696
 Ga         3.2531348512        7.4666203020        7.8498602063
  N         3.2515167845        5.5960008459        8.4551657967
 Ga         3.2549093569        5.5976587611       10.4543050882
  N         3.2566835365        7.4714427060       11.0507406520
 Ga         3.2573689545        7.4729188792       13.0479597151
  N         3.2491382268        5.5987212896       13.6295026189
 Ga         3.2565534834        5.6059501963       15.6352612256
  N         3.2800031021        7.4865001217       16.1586183838
 Ga         3.3270364556        7.4923088533       18.1718873301
  N         3.3630460674        5.5700964232       18.4642454558
  O         1.5819868018        5.0602842343       21.2408576372
  H         0.9908734751        5.3934029482       20.4851175361
  C         0.8485868920        3.9933576403       21.8769325061
  H         0.1188118972        3.5436467955       21.1866923304
  H         1.5506186758        3.2096102849       22.1879014892
  H         0.3187802241        4.3722682616       22.7638388766
  O         4.2273189748        4.7155743358       21.0721919098
  H         3.2185852292        4.8660783052       21.0777434400
  C         4.5506484354        3.5990563879       21.9414401906
  H         4.1184535819        2.6635402650       21.5604141099
  H         5.6423908365        3.5045356128       21.9648692277
  H         4.1790172400        3.8112460347       22.9518734178
     156
 i =        2, E =     -6136.6609003598
 Ga        -0.0031901069       -0.0159133488       -0.5449695079
  N        -0.0002209434        1.8588381519        0.6078125967
 Ga        -0.0002109546        1.8277858800        2.6380835109
  N        -0.0032873060       -0.0156298275        3.2703437162
 Ga        -0.0021106792       -0.0150212340        5.2605058498
  N         0.0009574302        1.8598495773        5.8486821101
 Ga         0.0026216468        1.8583175587        7.8485628364
  N         0.0010806138       -0.0150423299        8.4496773042
 Ga         0.0042399637       -0.0156609507       10.4484380978
  N         0.0044547302        1.8599468192       11.0443546269
 Ga         0.0115531916        1.8611940768       13.0352410090
  N         0.0167017926       -0.0081844972       13.6417985685
 Ga         0.0348068983       -0.0327037126       15.6358258659
  N         0.0306316641        1.8566785354       16.2153060405
 Ga         0.0489117496        1.8532962411       18.2816482883
  N         0.0401833608       -0.0174891532       18.6859578476
 Ga        -1.6225329099        2.7894801536        0.3240193569
  N        -1.6248865597        4.6596272075        0.6059708988
 Ga        -1.5957997439        4.6756431517        2.6364860061
  N        -1.6230817414        2.7899300057        3.2283621830
 Ga        -1.6217109045        2.7907530930        5.2398330535
  N        -1.6211020714        4.6610198089        5.8467886795
 Ga        -1.6189895609        4.6620520304        7.8454872928
  N        -1.6203557212        2.7920801780        8.4508882523
 Ga        -1.6193405478        2.7956830729       10.4465999753
  N        -1.6177290748        4.6666528735       11.0563455493
 Ga        -1.6191184431        4.6707548796       13.0545222765
  N        -1.6041506822        2.7987702863       13.6658777823
 Ga        -1.6051216798        2.8163602181       15.6720588764
  N        -1.5888248805        4.6818191475       16.3141226428
 Ga        -1.5120262587        4.6825266719       18.3923775847
  N        -1.5526322193        2.7853927076       18.7326306682
 Ga        -3.2437659652        5.5961206373        0.3239840312
  N        -3.2369188677        7.4659402234        0.6081001619
 Ga        -3.2642694471        7.4807531375        2.6382782666
  N        -3.2426721511        5.5949457829        3.2287152596
 Ga        -3.2418285736        5.5959960986        5.2400702057
  N        -3.2355780028        7.4663561490        5.8471049267
 Ga        -3.2355495828        7.4670539161        7.8461335100
  N        -3.2398268252        5.5963922583        8.4501605410
 Ga        -3.2392244151        5.5973693048       10.4459728233
  N        -3.2311171020        7.4662421878       11.0557665141
 Ga        -3.2225714105        7.4623345540       13.0550397347
  N        -3.2381147770        5.5960511502       13.6911299038
 Ga        -3.2250219764        5.5898432222       15.7291065914
  N        -3.2002535513        7.4615591859       16.2804833020
 Ga        -3.1949109842        7.4428995959       18.3354517095
  N        -3.1544420774        5.5841914324       18.8579148195
 Ga         3.2420939507       -0.0156404002        0.3243604363
  N         3.2418742559        1.8550077322        0.6058787138
 Ga         3.2697232144        1.8704106821        2.6372334233
  N         3.2429104929       -0.0152574001        3.2283683472
 Ga         3.2442612608       -0.0145397251        5.2399405436
  N         3.2447657820        1.8555936241        5.8476975992
 Ga         3.2473368057        1.8563163681        7.8469019094
  N         3.2448397175       -0.0144515896        8.4500111124
 Ga         3.2474905290       -0.0139275304       10.4454885497
  N         3.2521159602        1.8571441356       11.0516688231
 Ga         3.2596648360        1.8529922417       13.0488493355
  N         3.2562619916       -0.0165888521       13.6608534252
 Ga         3.2612787903       -0.0194729814       15.6668724707
  N         3.2851036639        1.8468356950       16.2423834274
 Ga         3.3263003533        1.8611954849       18.2690231495
  N         3.2959268811       -0.0219888376       18.7337631155
 Ga         1.6217464534        2.7901992381        0.3240013634
  N         1.6295457170        4.6602563279        0.6063791144
 Ga         1.6015055641        4.6757335680        2.6369001369
  N         1.6231039076        2.7900322685        3.2291156067
 Ga         1.6244892646        2.7911153378        5.2408399440
  N         1.6297838320        4.6612432992        5.8486313898
 Ga         1.6304283665        4.6619697390        7.8485211556
  N         1.6265481751        2.7905765855        8.4497046187
 Ga         1.6299928913        2.7925556396       10.4450958474
  N         1.6278829139        4.6626440405       11.0480968851
 Ga         1.6268185321        4.6663033930       13.0442081903
  N         1.6332273339        2.7883363861       13.6474729994
 Ga         1.6651173786        2.7925414459       15.6406709095
  N         1.6240558871        4.6640803094       16.1762045539
 Ga         1.6785212988        4.6428121415       18.1711669479
  N         1.6863778167        2.7831509862       18.6192744643
 Ga         0.0032646452        5.5957293290       -0.5425425207
  N         0.0060244128        7.4709140655        0.6060547099
 Ga         0.0061710372        7.4385046119        2.6366324537
  N         0.0031339348        5.5951788820        3.2690584552
 Ga         0.0048504818        5.5963022867        5.2595813037
  N         0.0075843888        7.4707087857        5.8482723951
 Ga         0.0089370660        7.4693951394        7.8479143624
  N         0.0051504592        5.5956997699        8.4477528098
 Ga         0.0066104439        5.5970311492       10.4451697867
  N         0.0116419098        7.4696512427       11.0437243879
 Ga         0.0148537342        7.4728067031       13.0355702485
  N         0.0036094445        5.6047174832       13.6435012108
 Ga         0.0084654484        5.5978719064       15.6410211702
  N         0.0410540888        7.4733201410       16.2551101292
 Ga         0.0573464309        7.4372455090       18.3473629025
  N         0.1435480188        5.5865588499       18.9037762330
 Ga         6.4879187922       -0.0152283856        0.3236171740
  N         6.4930898011        1.8554307366        0.6055626115
 Ga         6.4661786440        1.8702262835        2.6370229297
  N         6.4881068781       -0.0151630732        3.2290393921
 Ga         6.4898182020       -0.0146018504        5.2408856826
  N         6.4946906218        1.8559479746        5.8481957230
 Ga         6.4943349417        1.8568595179        7.8476053354
  N         6.4910621496       -0.0133744371        8.4513515530
 Ga         6.4947306667       -0.0106039889       10.4480449570
  N         6.4966143596        1.8619902154       11.0545477311
 Ga         6.5017744489        1.8668520896       13.0524370547
  N         6.4916159032       -0.0056608270       13.6325357259
 Ga         6.5136308122        0.0002704610       15.6313220275
  N         6.5136753014        1.8692907903       16.2366452557
 Ga         6.5696092145        1.8710085444       18.2791894682
  N         6.5555617928       -0.0268162567       18.6670794855
 Ga         4.8677047056        2.7914902358       -0.5373098518
  N         4.8710737232        4.6639374034        0.6064011013
 Ga         4.8708981962        4.6332585645        2.6375044718
  N         4.8684051619        2.7898965413        3.2691613574
 Ga         4.8697252435        2.7912798772        5.2594933844
  N         4.8723985096        4.6652509469        5.8484236768
 Ga         4.8727910199        4.6643322366        7.8480337145
  N         4.8710083826        2.7916377947        8.4503405495
 Ga         4.8739588878        2.7959019926       10.4493768679
  N         4.8790096719        4.6658220597       11.0583909800
 Ga         4.8789953537        4.6700662632       13.0615655030
  N         4.8756734817        2.7969142283       13.6586015486
 Ga         4.8808793446        2.8002069728       15.6756510996
  N         4.8531171753        4.6753089449       16.1541718348
 Ga         4.9391215610        4.6607909959       19.0962171503
  N         4.9431056523        2.7868079818       18.7443455383
 Ga         3.2490625564        5.5955712682        0.3235922814
  N         3.2477152720        7.4652848050        0.6077462884
 Ga         3.2757136204        7.4805918927        2.6379655290
  N         3.2488147466        5.5951866826        3.2292717556
 Ga         3.2502101748        5.5963394017        5.2408414740
  N         3.2505060910        7.4662197385        5.8496884413
 Ga         3.2530929221        7.4665348110        7.8500980044
  N         3.2515917242        5.5960783471        8.4550558457
 Ga         3.2547876432        5.5980663127       10.4543743753
  N         3.2572311518        7.4723708460       11.0486754202
 Ga         3.2583579298        7.4750615988       13.0459795528
  N         3.2466901445        5.6020841763       13.6217454355
 Ga         3.2525679263        5.6076991539       15.6266952581
  N         3.2777048765        7.4834730181       16.1599016812
 Ga         3.3212421749        7.4899529375       18.1722398754
  N         3.3748390268        5.5637331844       18.4458993591
  O         1.5692254451        5.0636873751       21.2454891458
  H         0.9931596506        5.3995943657       20.4798231638
  C         0.8484906702        3.9880660689       21.8805744391
  H         0.1221997529        3.5447589825       21.1816626695
  H         1.5546945801        3.2067551088       22.1884000054
  H         0.3168145202        4.3728636533       22.7638170156
  O         4.2323435995        4.7160559455       21.0735677476
  H         3.2227817765        4.8643424011       21.0781563032
  C         4.5499609734        3.5979080641       21.9426068656
  H         4.1181147934        2.6628026408       21.5603044187
  H         5.6419606060        3.5065813274       21.9637662291
  H         4.1781682772        3.8115580770       22.9525869625
     156
 i =        3, E =     -6136.6611330006
 Ga        -0.0031795929       -0.0159544366       -0.5485096588
  N        -0.0001663131        1.8592042633        0.6080180921
 Ga        -0.0001291238        1.8273979202        2.6376757340
  N        -0.0032154788       -0.0156534407        3.2707621028
 Ga        -0.0020106486       -0.0149593951        5.2605924876
  N         0.0010715374        1.8599414770        5.8486827361
 Ga         0.0027897268        1.8586086505        7.8483854338
  N         0.0013522055       -0.0148007622        8.4491817686
 Ga         0.0049355646       -0.0147361784       10.4475939895
  N         0.0045526218        1.8598180915       11.0494786238
 Ga         0.0125482393        1.8606600041       13.0422571460
  N         0.0183834106       -0.0098494421       13.6458958527
 Ga         0.0368427829       -0.0362067687       15.6402384388
  N         0.0340137727        1.8552049796       16.2145812390
 Ga         0.0509660367        1.8555335260       18.2771833114
  N         0.0359653770       -0.0142595621       18.6791752911
 Ga        -1.6221722610        2.7894801977        0.3242439313
  N        -1.6246564631        4.6597050277        0.6058768520
 Ga        -1.5958978070        4.6755380668        2.6366021804
  N        -1.6228351597        2.7898245142        3.2283947885
 Ga        -1.6215669715        2.7908676277        5.2399023125
  N        -1.6210036625        4.6611457456        5.8469216097
 Ga        -1.6189568284        4.6621454282        7.8456236862
  N        -1.6201700016        2.7921587986        8.4513894206
 Ga        -1.6187189861        2.7956352786       10.4470012143
  N        -1.6179903224        4.6662190154       11.0572066086
 Ga        -1.6199756642        4.6694760755       13.0553811083
  N        -1.6037393256        2.7986956935       13.6699667684
 Ga        -1.6037334420        2.8144969366       15.6756549121
  N        -1.5905276565        4.6774669197       16.3152997690
 Ga        -1.5121039830        4.6856545062       18.3953117668
  N        -1.5506177169        2.7854531926       18.7181519676
 Ga        -3.2435274780        5.5963647194        0.3242078604
  N        -3.2364919848        7.4657312399        0.6083099674
 Ga        -3.2645095584        7.4809179318        2.6378692058
  N        -3.2425989053        5.5951303871        3.2286504490
 Ga        -3.2416950530        5.5960441183        5.2399926456
  N        -3.2354479181        7.4663689437        5.8471146759
 Ga        -3.2353627358        7.4670219902        7.8460225321
  N        -3.2396710907        5.5965558472        8.4507319827
 Ga        -3.2392162302        5.5972322803       10.4467683071
  N        -3.2314045384        7.4663884089       11.0553044165
 Ga        -3.2230507057        7.4617066732       13.0541415993
  N        -3.2384894393        5.5960065856       13.6909096705
 Ga        -3.2250141573        5.5880101997       15.7292228229
  N        -3.1981188590        7.4553893233       16.2836254037
 Ga        -3.1990919675        7.4410130035       18.3392596429
  N        -3.1520682441        5.5847980743       18.8676064483
 Ga         3.2420363402       -0.0159087630        0.3245787879
  N         3.2419079564        1.8549807753        0.6056116709
 Ga         3.2696658554        1.8703180069        2.6373941057
  N         3.2428294801       -0.0153800784        3.2283462374
 Ga         3.2443788891       -0.0145495387        5.2399134626
  N         3.2448467377        1.8556154811        5.8477255602
 Ga         3.2473912759        1.8564107688        7.8468971348
  N         3.2447937045       -0.0143229393        8.4500747778
 Ga         3.2471970714       -0.0136990081       10.4454484493
  N         3.2525419599        1.8572083700       11.0517364067
 Ga         3.2605555884        1.8527338439       13.0485162279
  N         3.2540234926       -0.0161625341       13.6616638798
 Ga         3.2584448734       -0.0187085668       15.6683580812
  N         3.2852696923        1.8455216704       16.2469713332
 Ga         3.3273522459        1.8611907408       18.2756792914
  N         3.2924536207       -0.0213325240       18.7461929924
 Ga         1.6215039965        2.7902013208        0.3242497461
  N         1.6294388608        4.6603275720        0.6063442756
 Ga         1.6017691003        4.6756108404        2.6370534216
  N         1.6230181647        2.7899198015        3.2291060639
 Ga         1.6245487009        2.7911958511        5.2408239607
  N         1.6298416844        4.6613198149        5.8486873162
 Ga         1.6304038908        4.6620196902        7.8486127061
  N         1.6266893356        2.7906267885        8.4501938144
 Ga         1.6298076694        2.7922012251       10.4456886163
  N         1.6275220929        4.6627750461       11.0459098855
 Ga         1.6246701245        4.6665833818       13.0413620828
  N         1.6361046553        2.7897335476       13.6476366623
 Ga         1.6664966646        2.7920306975       15.6401332114
  N         1.6219066537        4.6636098679       16.1685072697
 Ga         1.6792739459        4.6458084358       18.1633859862
  N         1.6859480998        2.7876542197       18.6123636736
 Ga         0.0033591326        5.5956915582       -0.5412978211
  N         0.0060843226        7.4707148259        0.6059983896
 Ga         0.0062470628        7.4386951343        2.6367662819
  N         0.0032123416        5.5951834803        3.2687471684
 Ga         0.0049356531        5.5963536717        5.2594707706
  N         0.0076618534        7.4707140198        5.8484512357
 Ga         0.0089381189        7.4694532338        7.8481274657
  N         0.0051124816        5.5957528907        8.4478491047
 Ga         0.0059179932        5.5969644771       10.4452567579
  N         0.0115509513        7.4699397113       11.0435455594
 Ga         0.0138539133        7.4739420186       13.0356826204
  N         0.0022082029        5.6053114053       13.6421278175
 Ga         0.0065314181        5.5964154097       15.6400553244
  N         0.0417098396        7.4753878539       16.2525170496
 Ga         0.0501347233        7.4400672806       18.3442854309
  N         0.1465953002        5.5887628636       18.9030820475
 Ga         6.4881101461       -0.0155071982        0.3238702753
  N         6.4931796335        1.8553942963        0.6053013284
 Ga         6.4663826334        1.8701261816        2.6371842007
  N         6.4883204674       -0.0152793820        3.2290518797
 Ga         6.4898748471       -0.0146205790        5.2408881848
  N         6.4948073957        1.8559605557        5.8481576796
 Ga         6.4945198398        1.8570818943        7.8475065594
  N         6.4910686821       -0.0130957415        8.4513151322
 Ga         6.4947551639       -0.0095996866       10.4480874364
  N         6.4969453064        1.8629855154       11.0557955905
 Ga         6.5023170839        1.8689009277       13.0538932690
  N         6.4928253915       -0.0042656893       13.6299569126
 Ga         6.5124432257        0.0019406157       15.6282990562
  N         6.5160119628        1.8684378666       16.2404484887
 Ga         6.5685504666        1.8674548702       18.2842721921
  N         6.5531210815       -0.0302614073       18.6731297128
 Ga         4.8677841946        2.7914133216       -0.5352434276
  N         4.8711377058        4.6639505766        0.6061001184
 Ga         4.8709749357        4.6333950759        2.6376337277
  N         4.8684811717        2.7898955397        3.2690244432
 Ga         4.8698264888        2.7913525414        5.2595300254
  N         4.8725263056        4.6653579386        5.8485107146
 Ga         4.8729800451        4.6644840795        7.8481820712
  N         4.8711264612        2.7916599998        8.4504594993
 Ga         4.8741713663        2.7959823514       10.4494527199
  N         4.8786133372        4.6657252458       11.0582386457
 Ga         4.8788671058        4.6694912604       13.0620020461
  N         4.8750677461        2.7968516486       13.6616159134
 Ga         4.8813792089        2.7965296752       15.6803995413
  N         4.8487716159        4.6748708729       16.1452181267
 Ga         4.9430103772        4.6577150080       19.0989009229
  N         4.9446678875        2.7839411078       18.7524102373
 Ga         3.2489446208        5.5957985511        0.3238513694
  N         3.2474073463        7.4650524791        0.6080388849
 Ga         3.2760809197        7.4807488394        2.6376121686
  N         3.2489056339        5.5953604284        3.2292652694
 Ga         3.2502732187        5.5963961231        5.2408357195
  N         3.2505779396        7.4662698993        5.8496892121
 Ga         3.2531578844        7.4667053712        7.8500636072
  N         3.2516082663        5.5962134942        8.4547467463
 Ga         3.2547586765        5.5982666376       10.4541768229
  N         3.2579656527        7.4732925805       11.0468696002
 Ga         3.2594740506        7.4769985510       13.0438549801
  N         3.2444245892        5.6036144155       13.6161045104
 Ga         3.2519806552        5.6101333446       15.6209369074
  N         3.2753023901        7.4841560786       16.1590985442
 Ga         3.3174127619        7.4886657538       18.1717065008
  N         3.3837031763        5.5598437400       18.4325672550
  O         1.5852707797        5.0614882048       21.2418672622
  H         0.9956132534        5.3967710742       20.4858229730
  C         0.8497869967        3.9953544593       21.8758252910