     156
 i =        1, E =     -6136.3268284015
 Ga        -0.0031984751       -0.0157213382       -0.5331837618
  N        -0.0002936064        1.8585898354        0.6061782889
 Ga        -0.0003472495        1.8278018700        2.6379329474
  N        -0.0034346225       -0.0156356614        3.2694448625
 Ga        -0.0022028659       -0.0150495394        5.2602423707
  N         0.0008033007        1.8595604394        5.8482807594
 Ga         0.0021998493        1.8581585913        7.8481764339
  N         0.0007855914       -0.0150947395        8.4504111183
 Ga         0.0039380882       -0.0151750458       10.4496836757
  N         0.0041154972        1.8599267687       11.0448539297
 Ga         0.0092228905        1.8631258630       13.0369640066
  N         0.0160073419       -0.0105691775       13.6274278065
 Ga         0.0282615000       -0.0057615975       15.6174352628
  N         0.0117973965        1.8566549528       16.2260728419
 Ga         0.0442356738        1.8429311213       18.2893576058
  N         0.0527552263       -0.0340023881       18.7085945501
 Ga        -1.6232491136        2.7902013106        0.3243408689
  N        -1.6246643078        4.6598334658        0.6070118433
 Ga        -1.5957658271        4.6757303751        2.6367681225
  N        -1.6228782779        2.7898984594        3.2282082089
 Ga        -1.6217261697        2.7906122196        5.2398422041
  N        -1.6212940106        4.6609298816        5.8465845278
 Ga        -1.6191565321        4.6613597116        7.8452039438
  N        -1.6203694165        2.7917889158        8.4509160698
 Ga        -1.6189056186        2.7951806921       10.4470106525
  N        -1.6173624505        4.6668003991       11.0552881589
 Ga        -1.6178054947        4.6713316852       13.0522795207
  N        -1.6099831510        2.8010544467       13.6531171929
 Ga        -1.5938264375        2.8146235068       15.6553022953
  N        -1.5865979825        4.6816474305       16.3073361691
 Ga        -1.5132245504        4.6787278936       18.3834778738
  N        -1.4631360152        2.8270397788       19.0172612122
 Ga        -3.2435568193        5.5952206562        0.3242737022
  N        -3.2373176249        7.4660987724        0.6063840523
 Ga        -3.2644308470        7.4808462225        2.6380330784
  N        -3.2426882982        5.5953621417        3.2285339711
 Ga        -3.2418943098        5.5960235224        5.2400011063
  N        -3.2358589369        7.4662948189        5.8470269564
 Ga        -3.2359107405        7.4670515810        7.8460995162
  N        -3.2399009764        5.5961547659        8.4492273167
 Ga        -3.2386144565        5.5972163782       10.4445293250
  N        -3.2307670351        7.4657345712       11.0553146227
 Ga        -3.2221129754        7.4628899374       13.0529462923
  N        -3.2326795965        5.5992568138       13.6954822447
 Ga        -3.2216938691        5.5932320326       15.7313205650
  N        -3.2153599686        7.4818683179       16.2602719941
 Ga        -3.1805784163        7.4514972165       18.3194552007
  N        -3.1603559457        5.5892998855       18.8544979163
 Ga         3.2429093103       -0.0154080939        0.3246077665
  N         3.2410417888        1.8545879216        0.6064055462
 Ga         3.2694875428        1.8704076284        2.6370789794
  N         3.2425344509       -0.0154836025        3.2281830156
 Ga         3.2439681609       -0.0146785647        5.2398669129
  N         3.2445728336        1.8554816237        5.8475362736
 Ga         3.2469438774        1.8562151826        7.8469307289
  N         3.2449183109       -0.0147909892        8.4495480055
 Ga         3.2477593936       -0.0140548587       10.4449789904
  N         3.2511778570        1.8568044285       11.0510012366
 Ga         3.2575363495        1.8537265275       13.0480384356
  N         3.2565401862       -0.0169462196       13.6607297075
 Ga         3.2748887874       -0.0170611213       15.6663439727
  N         3.2809160150        1.8621907497       16.2194302545
 Ga         3.3155989977        1.8600418264       18.2445753799
  N         3.3139613112       -0.0292968889       18.7011284273
 Ga         1.6222878460        2.7909011960        0.3242385764
  N         1.6291216906        4.6604746206        0.6072883016
 Ga         1.6011684508        4.6758525060        2.6370812083
  N         1.6226227280        2.7900536001        3.2289443912
 Ga         1.6241788564        2.7909346645        5.2408346931
  N         1.6297016994        4.6611659287        5.8484636566
 Ga         1.6300251415        4.6614205436        7.8482175805
  N         1.6259984792        2.7902666415        8.4493574531
 Ga         1.6290574964        2.7914708159       10.4448318594
  N         1.6275868558        4.6622883933       11.0484763438
 Ga         1.6288419967        4.6629100609       13.0429530437
  N         1.6328856418        2.7879174821       13.6461045198
 Ga         1.6434033431        2.7773401326       15.6406122597
  N         1.6336268256        4.6647655068       16.1836094557
 Ga         1.6766988998        4.6405041669       18.1834028363
  N         1.6836613600        2.7770868267       18.6477767923
 Ga         0.0030982196        5.5957618957       -0.5478455295
  N         0.0059368140        7.4705976859        0.6069809257
 Ga         0.0060423186        7.4383446973        2.6368608554
  N         0.0029938151        5.5951907304        3.2695232640
 Ga         0.0046588497        5.5961876125        5.2597044036
  N         0.0074433712        7.4706956570        5.8477568022
 Ga         0.0087955592        7.4692843708        7.8471501203
  N         0.0049203548        5.5957417297        8.4470427302
 Ga         0.0063869581        5.5971429434       10.4440457024
  N         0.0116723748        7.4691816861       11.0461545839
 Ga         0.0139205563        7.4711217401       13.0387739209
  N         0.0068580283        5.6017328214       13.6477775710
 Ga         0.0035786605        5.6025232738       15.6428895052
  N         0.0339280679        7.4603070325       16.2778114147
 Ga         0.0835700020        7.4281744333       18.3616894687
  N         0.1403377987        5.5763810575       18.9086158714
 Ga         6.4869180391       -0.0149717520        0.3238345328
  N         6.4937203381        1.8550393897        0.6060484331
 Ga         6.4661702153        1.8702282380        2.6368594806
  N         6.4882711851       -0.0154305284        3.2287592675
 Ga         6.4897350948       -0.0147017760        5.2406938199
  N         6.4945140929        1.8558380678        5.8479575432
 Ga         6.4945375550        1.8569358208        7.8474833241
  N         6.4909336956       -0.0136829434        8.4509997879
 Ga         6.4942993735       -0.0113155485       10.4473901779
  N         6.4968059692        1.8609291053       11.0528367249
 Ga         6.5000518002        1.8660447608       13.0498394995
  N         6.4898917390       -0.0079691856       13.6402966381
 Ga         6.5038275080        0.0011152448       15.6434344152
  N         6.5231679393        1.8781953947       16.2346077861
 Ga         6.6565767269        1.9248908933       18.2962161523
  N         6.5633246351       -0.0011894358       18.6482366287
 Ga         4.8675517697        2.7916337728       -0.5418386186
  N         4.8709578221        4.6648488626        0.6069326183
 Ga         4.8707963028        4.6333969548        2.6373259554
  N         4.8682747554        2.7899420088        3.2691473548
 Ga         4.8695393360        2.7911086414        5.2594436197
  N         4.8721348775        4.6652239047        5.8481247365
 Ga         4.8728369976        4.6639438428        7.8477191546
  N         4.8708856442        2.7913835326        8.4503001983
 Ga         4.8736944106        2.7952283913       10.4497140883
  N         4.8797660363        4.6661535113       11.0584951367
 Ga         4.8835388283        4.6703025595       13.0610641191
  N         4.8745720477        2.7952591327       13.6513836487
 Ga         4.8856330663        2.8004116393       15.6638109233
  N         4.8666414503        4.6724373043       16.1751904429
 Ga         4.9289006836        4.6591258898       19.0947855708
  N         4.9545750521        2.7697725879       18.7383647871
 Ga         3.2486803820        5.5947230201        0.3238021834
  N         3.2479349242        7.4655049173        0.6058405425
 Ga         3.2756636494        7.4807104034        2.6375535023
  N         3.2485761338        5.5956035514        3.2289302003
 Ga         3.2499449410        5.5963771914        5.2405545123
  N         3.2504617103        7.4661632073        5.8493830032
 Ga         3.2531831075        7.4666909858        7.8496175247
  N         3.2514013460        5.5959683509        8.4547147683
 Ga         3.2549183948        5.5974477917       10.4535579489
  N         3.2566482642        7.4713062639       11.0517204658
 Ga         3.2586666287        7.4717447630       13.0488350553
  N         3.2487340902        5.5957205040       13.6326426024
 Ga         3.2606350549        5.6062434866       15.6389059692
  N         3.2811410284        7.4900025466       16.1553082687
 Ga         3.3269152280        7.4960788260       18.1708755807
  N         3.3566696475        5.5736263517       18.4710514212
  O         1.5524778367        5.0318435192       21.2543376830
  H         0.9929468926        5.3934078866       20.4866288807
  C         0.7596220315        3.9396029240       21.7963508777
  H         0.0320950366        3.5235530927       21.0072744316
  H         1.5321369859        3.2341540549       22.1792862461
  H         0.3368243749        4.3638088835       22.7399945823
  O         4.2312451590        4.7164232141       21.0756898459
  H         3.2214836233        4.8673190492       21.0753488290
  C         4.5516905185        3.5969167973       21.9428050378
  H         4.1180061067        2.6626082314       21.5597974832
  H         5.6437528705        3.5041537707       21.9649000302
  H         4.1787972418        3.8120506148       22.9522812940
     156
 i =        2, E =     -6136.5273047121
 Ga        -0.0031889332       -0.0157104527       -0.5346956452
  N        -0.0002717908        1.8586652635        0.6068337262
 Ga        -0.0003018398        1.8278385019        2.6380301503
  N        -0.0034047689       -0.0155929608        3.2695794460
 Ga        -0.0021554336       -0.0150549624        5.2600875375
  N         0.0008419772        1.8596270418        5.8484078247
 Ga         0.0021390904        1.8582248526        7.8483150074
  N         0.0008933483       -0.0151424645        8.4511613402
 Ga         0.0039822076       -0.0151866938       10.4506906390
  N         0.0041518050        1.8600939481       11.0444022653
 Ga         0.0098385855        1.8625376579       13.0360293078
  N         0.0160621762       -0.0100243154       13.6263935739
 Ga         0.0280325871       -0.0070866283       15.6168073527
  N         0.0128774732        1.8573249206       16.2385348220
 Ga         0.0603573194        1.8487589924       18.3075946070
  N         0.0499891708       -0.0357258266       18.6973815148
 Ga        -1.6230699371        2.7901586569        0.3237030957
  N        -1.6248120286        4.6597175582        0.6073096217
 Ga        -1.5958170549        4.6756920753        2.6368187661
  N        -1.6229042885        2.7897704456        3.2282574770
 Ga        -1.6217544600        2.7906101535        5.2396347395
  N        -1.6212887891        4.6608868333        5.8465238380
 Ga        -1.6191894007        4.6614440202        7.8450942298
  N        -1.6204351652        2.7919484277        8.4518501021
 Ga        -1.6188916598        2.7954587269       10.4479849581
  N        -1.6176437560        4.6671023911       11.0552889166
 Ga        -1.6166551020        4.6710976031       13.0516744019
  N        -1.6098006973        2.8003807321       13.6481962508
 Ga        -1.5882681189        2.8174669752       15.6465364978
  N        -1.5879673282        4.6779776542       16.3136925164
 Ga        -1.5032456947        4.6829622963       18.3880170497
  N        -1.3383327731        2.8838151002       19.2672612122
 Ga        -3.2434695656        5.5953523511        0.3236643612
  N        -3.2372074011        7.4660568386        0.6070695659
 Ga        -3.2643828080        7.4807960613        2.6382238321
  N        -3.2427743393        5.5953264306        3.2286704448
 Ga        -3.2419255964        5.5960266911        5.2399051177
  N        -3.2357829060        7.4663507709        5.8469848078
 Ga        -3.2358198686        7.4669634313        7.8459773843
  N        -3.2399027384        5.5961407335        8.4494789009
 Ga        -3.2384007450        5.5970983668       10.4443864910
  N        -3.2307135314        7.4651253515       11.0552363970
 Ga        -3.2221507667        7.4636095802       13.0531825317
  N        -3.2335676268        5.5972104492       13.6907577750
 Ga        -3.2176190001        5.5938530251       15.7269121212
  N        -3.2151263250        7.4807042169       16.2646540941
 Ga        -3.1781610443        7.4499461542       18.3209817182
  N        -3.1625593697        5.5843823567       18.8415080550
 Ga         3.2428544511       -0.0155086970        0.3239752337
  N         3.2410694508        1.8546094282        0.6066130311
 Ga         3.2695245589        1.8704216245        2.6371649998
  N         3.2425125714       -0.0153604459        3.2282210705
 Ga         3.2439874968       -0.0146049717        5.2396271611
  N         3.2445972574        1.8555117223        5.8474628303
 Ga         3.2471695860        1.8562641725        7.8467185004
  N         3.2448782740       -0.0146733242        8.4502847391
 Ga         3.2478570892       -0.0142623541       10.4459584441
  N         3.2519890732        1.8571732852       11.0509162206
 Ga         3.2580563982        1.8539137126       13.0481665085
  N         3.2564066936       -0.0162839479       13.6600135832
 Ga         3.2748792607       -0.0204548435       15.6670626671
  N         3.2765853334        1.8598372852       16.2230718112
 Ga         3.3402598390        1.8540273940       18.2487993554
  N         3.3103863069       -0.0275073449       18.7135640819
 Ga         1.6221485665        2.7908688504        0.3236473228
  N         1.6292990701        4.6603586141        0.6075882934
 Ga         1.6012762985        4.6757756257        2.6370973634
  N         1.6227136738        2.7899398944        3.2289982380
 Ga         1.6242598164        2.7908980546        5.2405796319
  N         1.6297849379        4.6611352859        5.8483290534
 Ga         1.6301554260        4.6616229145        7.8480981561
  N         1.6261918631        2.7903491975        8.4501794492
 Ga         1.6291149166        2.7918021518       10.4459248419
  N         1.6274105504        4.6627751443       11.0490258784
 Ga         1.6296906233        4.6635297574       13.0444075812
  N         1.6331226061        2.7877165027       13.6434065019
 Ga         1.6410452081        2.7816918801       15.6377023258
  N         1.6294406344        4.6640504511       16.1879390974
 Ga         1.6764636223        4.6447781224       18.1863216919
  N         1.7070702685        2.7803764047       18.6321136870
 Ga         0.0031653111        5.5957408061       -0.5483949220
  N         0.0059498660        7.4707768419        0.6073213646
 Ga         0.0060678686        7.4384277930        2.6369534162
  N         0.0030470386        5.5951746043        3.2695293231
 Ga         0.0046560186        5.5962143004        5.2595213327
  N         0.0074319975        7.4707680500        5.8477287225
 Ga         0.0088608626        7.4693154603        7.8471782500
  N         0.0049041669        5.5956644971        8.4475592998
 Ga         0.0061097829        5.5971421960       10.4446917196
  N         0.0119486060        7.4690777242       11.0460183992
 Ga         0.0143596890        7.4713243622       13.0391453520
  N         0.0060788468        5.6015254775       13.6448069908
 Ga         0.0018874935        5.6006169487       15.6408989859
  N         0.0377634883        7.4580827175       16.2794477183
 Ga         0.0873334756        7.4469982573       18.3627643976
  N         0.1449922694        5.5932907738       18.8983259795
 Ga         6.4870089206       -0.0150780897        0.3232200487
  N         6.4937113396        1.8550599214        0.6062482686
 Ga         6.4661646455        1.8702257094        2.6369486865
  N         6.4883386329       -0.0153218539        3.2288871636
 Ga         6.4897691381       -0.0145950263        5.2405993530
  N         6.4945690475        1.8559186177        5.8480080891
 Ga         6.4945268072        1.8569829730        7.8474545473
  N         6.4909689302       -0.0135639140        8.4513405752
 Ga         6.4941730673       -0.0111277631       10.4476915176
  N         6.4965169660        1.8611271270       11.0515877252
 Ga         6.5009125735        1.8652505397       13.0477539923
  N         6.4899961456       -0.0061054664       13.6428502543
 Ga         6.5044451012        0.0078056387       15.6494925818
  N         6.5388659354        1.8862316726       16.2679404359
 Ga         6.7558932877        1.9812727978       18.3556213540
  N         6.5726855622        0.0235609370       18.6470065762
 Ga         4.8675738370        2.7915656236       -0.5408491623
  N         4.8709838884        4.6647806678        0.6071489314
 Ga         4.8708151617        4.6333836090        2.6374588403
  N         4.8682868826        2.7899296257        3.2691918730
 Ga         4.8695970583        2.7911386661        5.2593325531
  N         4.8721791611        4.6652013934        5.8480842054
 Ga         4.8729005421        4.6639634244        7.8475369680
  N         4.8709361293        2.7914905002        8.4503329093
 Ga         4.8740623898        2.7953723031       10.4491240843
  N         4.8803297259        4.6657691547       11.0575827577
 Ga         4.8810841761        4.6705787952       13.0595810002
  N         4.8773108462        2.7958534545       13.6576889181
 Ga         4.8929978788        2.7960146379       15.6759441059
  N         4.8691920533        4.6741792905       16.1685693313
 Ga         4.9287872012        4.6580456329       19.1021457152
  N         4.9837368045        2.7733060165       18.7296124227
 Ga         3.2486325672        5.5948318463        0.3232095142
  N         3.2478564332        7.4654512521        0.6065566356
 Ga         3.2756635661        7.4806686168        2.6377660460
  N         3.2486846012        5.5955517861        3.2290301908
 Ga         3.2501001413        5.5963710352        5.2403930700
  N         3.2505027181        7.4661591873        5.8493613653
 Ga         3.2531307987        7.4666463363        7.8496046089
  N         3.2515903344        5.5959222645        8.4555809165
 Ga         3.2550471921        5.5975274624       10.4547762958
  N         3.2562470287        7.4716020306       11.0512891036
 Ga         3.2587129545        7.4721909142       13.0490550708
  N         3.2495938678        5.5971519925       13.6335819586
 Ga         3.2559247544        5.6074123723       15.6407408913
  N         3.2812344996        7.4904061134       16.1544137901
 Ga         3.3226069876        7.4934218010       18.1675841761
  N         3.3600480073        5.5719846664       18.4754578829
  O         1.5381767046        5.0217697628       21.2128069292
  H         0.9840088296        5.4177961308       20.4689236131
  C         0.7142976876        3.9149796585       21.7150795536
  H        -0.0868215532        3.4653863538       20.9475826746
  H         1.4470904951        3.1807681560       22.1066960372
  H         0.2509262757        4.3014715298       22.6495021226
  O         4.2276947252        4.7186243720       21.0749211560
  H         3.2174885559        4.8588772917       21.0798392894
  C         4.5509640168        3.5991210360       21.9418454305
  H         4.1178901838        2.6639831528       21.5605802303
  H         5.6427387464        3.5039659999       21.9649640531
  H         4.1787283587        3.8106612612       22.9520645162
     156
 i =        3, E =     -6136.6003129211
 Ga        -0.0031707812       -0.0157172879       -0.5315728554
  N        -0.0002499823        1.8590346510        0.6065013951
 Ga        -0.0002623990        1.8276124177        2.6378014250
  N        -0.0033301752       -0.0157779058        3.2699943632
 Ga        -0.0020850056       -0.0147185227        5.2601801637
  N         0.0009156625        1.8595662966        5.8493965445
 Ga         0.0024024114        1.8584439027        7.8483757512
  N         0.0008609833       -0.0145177132        8.4502029021
 Ga         0.0033869160       -0.0142705324       10.4475047747
  N         0.0045122832        1.8600234361       11.0415737378
 Ga         0.0120408793        1.8632091447       13.0292995703
  N         0.0172657280       -0.0051380198       13.6332195476
 Ga         0.0174268772       -0.0003740788       15.6268722260
  N         0.0062764448        1.8694553233       16.2552385639
 Ga         0.1019296750        1.8629150967       18.3433833009
  N         0.0517936230       -0.0327838811       18.7034171022
 Ga        -1.6234713769        2.7905731395        0.3227866228
  N        -1.6241859858        4.6600384656        0.6078738589
 Ga        -1.5957839472        4.6756603703        2.6367472762
  N        -1.6223500998        2.7899751556        3.2290568213
 Ga        -1.6213599695        2.7906130657        5.2398998425
  N        -1.6211811878        4.6610727546        5.8474615891
 Ga        -1.6183537003        4.6608297513        7.8455010912
  N        -1.6198423839        2.7916347104        8.4506047158
 Ga        -1.6176570933        2.7943003283       10.4441436294
  N        -1.6161326145        4.6642052712       11.0505259282
 Ga        -1.6160301580        4.6716404659       13.0446447003
  N        -1.6092070490        2.7978031571       13.6415969056
 Ga        -1.5839519951        2.8191506479       15.6295120855
  N        -1.5863624512        4.6614094356       16.3367702338
 Ga        -1.4826534681        4.6750718834       18.4200244488
  N        -1.2266943269        2.9163386299       19.4757287641
 Ga        -3.2432483492        5.5947121345        0.3227567019
  N        -3.2367877656        7.4657594174        0.6065557921
 Ga        -3.2644667978        7.4808682103        2.6376857145
  N        -3.2424006886        5.5957143506        3.2290357419
 Ga        -3.2414213297        5.5962853978        5.2394743712
  N        -3.2358297008        7.4663792998        5.8479473322
 Ga        -3.2359576624        7.4679553687        7.8463995542
  N        -3.2393600303        5.5964459416        8.4505959280
 Ga        -3.2377197732        5.5973824265       10.4460881597
  N        -3.2315956192        7.4676580362       11.0536274988
 Ga        -3.2232147611        7.4619577746       13.0516744477
  N        -3.2289077539        5.5957127067       13.6979437934
 Ga        -3.2141400209        5.5895760191       15.7386944386
  N        -3.2239624166        7.4876682125       16.2522512186
 Ga        -3.1697504502        7.4619308475       18.3130612318
  N        -3.1552678808        5.5875173527       18.8185207877
 Ga         3.2434940639       -0.0154006095        0.3231150980
  N         3.2409047027        1.8544222463        0.6075879089
 Ga         3.2690585037        1.8700698901        2.6374353706
  N         3.2423410901       -0.0159753163        3.2288736976
 Ga         3.2441273671       -0.0147191044        5.2396785907
  N         3.2446414862        1.8555252973        5.8482919500
 Ga         3.2463039459        1.8562865691        7.8470522917
  N         3.2453565982       -0.0147056062        8.4497843314
 Ga         3.2480900093       -0.0136921438       10.4439499053
  N         3.2507479888        1.8572911104       11.0506093940
 Ga         3.2620833775        1.8575222841       13.0469237051
  N         3.2554754846       -0.0144633663       13.6626196033
 Ga         3.2791458703       -0.0315395949       15.6720949443
  N         3.2688562868        1.8525417277       16.2237681204
 Ga         3.3773410644        1.8447545512       18.2579914398
  N         3.3231161620       -0.0263219021       18.7187900770
 Ga         1.6226390915        2.7912456627        0.3227125496
  N         1.6287933799        4.6606410022        0.6081662893
 Ga         1.6013735052        4.6757725712        2.6370400931
  N         1.6222736695        2.7901229943        3.2297964515
 Ga         1.6240114357        2.7909243376        5.2409018926
  N         1.6298136584        4.6613402275        5.8494602018
 Ga         1.6297656613        4.6610180524        7.8488211086
  N         1.6258732485        2.7901347459        8.4499016286
 Ga         1.6289221888        2.7917071748       10.4437182288
  N         1.6270419073        4.6609052298       11.0491332922
 Ga         1.6292385273        4.6636590266       13.0455290839
  N         1.6334931233        2.7845977114       13.6468362633
 Ga         1.6357366745        2.7910606228       15.6453576823
  N         1.6284692677        4.6698695388       16.1881695113
 Ga         1.6814829145        4.6472953232       18.1881119976
  N         1.7595937852        2.7917534706       18.6399294795
 Ga         0.0032188980        5.5957573353       -0.5497252898
  N         0.0060177900        7.4701185104        0.6079716062
 Ga         0.0061482743        7.4384672797        2.6369587603
  N         0.0030793611        5.5951458727        3.2697128803
 Ga         0.0047466700        5.5963160683        5.2591847871
  N         0.0075703715        7.4707153321        5.8482583210
 Ga         0.0088455596        7.4693830161        7.8468056462
  N         0.0050159111        5.5963260069        8.4479863912
 Ga         0.0070406095        5.5973593490       10.4446487302
  N         0.0116567034        7.4700085966       11.0479059533
 Ga         0.0178144898        7.4724844387       13.0429549416
  N         0.0030018054        5.6014142399       13.6469256659
 Ga         0.0001995795        5.6060412879       15.6484064954
  N         0.0464714983        7.4635467070       16.2817654499
 Ga         0.1027047565        7.4890762399       18.3513071548
  N         0.1593271796        5.6351649665       18.8590386370
 Ga         6.4864831876       -0.0149569865        0.3223547266
  N         6.4939811591        1.8548781097        0.6072023316
 Ga         6.4668045647        1.8698983697        2.6371714914
  N         6.4886049001       -0.0158496879        3.2295008795
 Ga         6.4898143860       -0.0146912150        5.2405494145
  N         6.4947536599        1.8558516856        5.8487803851
 Ga         6.4955090910        1.8569468021        7.8476719816
  N         6.4906020584       -0.0136797460        8.4511466406
 Ga         6.4945342225       -0.0110969648       10.4465874478
  N         6.4988330995        1.8614301742       11.0491099192
 Ga         6.4980699094        1.8649371773       13.0430179274
  N         6.4887630429        0.0012558041       13.6597329180
 Ga         6.5094244746        0.0251127296       15.6729925063
  N         6.5749668282        1.9015672182       16.3393226329
 Ga         6.8100101976        2.0118876481       18.4560764974
  N         6.6048466064        0.0365909561       18.6405345513
 Ga         4.8676535742        2.7915562404       -0.5464379909
  N         4.8710486105        4.6650280476        0.6080066200
 Ga         4.8709091420        4.6339473194        2.6374901699
  N         4.8684031684        2.7900094055        3.2692967725
 Ga         4.8697451455        2.7908838900        5.2590418032
  N         4.8723231528        4.6654558982        5.8485186559
 Ga         4.8728221304        4.6640318143        7.8477251333
  N         4.8710850848        2.7909739061        8.4504049913
 Ga         4.8742519993        2.7937741896       10.4488451029
  N         4.8796089559        4.6645013211       11.0612049726
 Ga         4.8812196167        4.6639494363       13.0679050303
  N         4.8816919873        2.7859797351       13.6865367285
 Ga         4.9173241601        2.7872875039       15.7162340244
  N         4.8647843821        4.6748756074       16.1868740235
 Ga         4.9304422742        4.6715155971       19.1101570147
  N         5.0146321763        2.7978726027       18.7201800496
 Ga         3.2485272236        5.5941673116        0.3223471070
  N         3.2475290878        7.4651273079        0.6061232108
 Ga         3.2758440033        7.4807724118        2.6372869819
  N         3.2485141972        5.5959642130        3.2295098246
 Ga         3.2497864527        5.5966280752        5.2401578280
  N         3.2506573453        7.4662298205        5.8503226481
 Ga         3.2534442600        7.4673883335        7.8500140529
  N         3.2513238584        5.5963252804        8.4560763289
 Ga         3.2537870202        5.5985480290       10.4556288939
  N         3.2570018195        7.4736559165       11.0536500136
 Ga         3.2555533755        7.4752087695       13.0533619892
  N         3.2497708071        5.5992982411       13.6324925716
 Ga         3.2540889646        5.6102206308       15.6410977244
  N         3.2772340893        7.4888262152       16.1549967210
 Ga         3.3349002428        7.4928787773       18.1603829658
  N         3.3662386074        5.5756452943       18.4651752182
  O         1.4706868136        4.9398273902       21.1628490991
  H         0.9706462243        5.4544142909       20.4362099378
  C         0.6121122504        3.8440370497       21.6505312059