     212
 i =       14, E =     -8504.7308639761
  N         0.0020175530        2.0533487086        2.5032209403
 Ga        -0.0020321399        0.0925790834        2.8545226421
  N        -0.0052496164        0.0592289218        5.0083490397
 Ga        -0.0033778047        1.8908162273        5.7982773761
  N        -0.0057954100        1.8999633527        7.7939620018
 Ga        -0.0042983824        0.0556567280        8.4403944390
  N        -0.0046648416        0.0550993403       10.4126039747
 Ga        -0.0047454316        1.8939404168       11.0718806797
  N        -0.0057801106        1.8754560796       13.0621708146
 Ga        -0.0044836121        0.0558740497       13.8730979543
  N        -0.0040539857        0.0559149402       16.0666683560
 Ga        -0.0059219220        2.0970221900       16.4828425979
 Ga         0.0315064951        3.7351726761        1.3686311079
  N        -1.4720694804        4.6345574411        2.4727092538
 Ga        -1.6799249624        2.7957502006        3.2637813201
  N        -1.6139680953        2.8438257452        5.2410371657
 Ga        -1.6400234692        4.7061019405        5.8106619054
  N        -1.6238476041        4.7047583254        7.7990256753
 Ga        -1.6019389623        2.8448659464        8.4399425476
  N        -1.6015704067        2.8478798147       10.4290488386
 Ga        -1.6304466019        4.7061986367       11.0750710575
  N        -1.6465365817        4.7165232685       13.0637367750
 Ga        -1.6029059610        2.8473397948       13.6218083231
  N        -1.6281287645        2.8341102709       15.5811574109
 Ga        -1.4513817297        4.6047794660       16.4826210503
  N        -0.0002463904        3.7668885162       17.6253734574
  N        -3.2115162432        7.6023086131        2.5044953051
 Ga        -3.1956629210        5.6033916451        2.8516439861
  N        -3.2154394235        5.6236695962        5.0067650998
 Ga        -3.2275921481        7.4467722106        5.7987305772
  N        -3.2192640644        7.4725596197        7.7868227879
 Ga        -3.2226680479        5.6256960757        8.4463959874
  N        -3.2216966134        5.6273914629       10.4157666521
 Ga        -3.2231703754        7.4661524524       11.0726714872
  N        -3.2221062636        7.4465488660       13.0619064811
 Ga        -3.2217255788        5.6266701375       13.8772735591
  N        -3.2220055410        5.6269513393       16.0655778327
 Ga        -3.2222231703        7.6745024546       16.4853494388
 Ga        -3.2482571181        9.3601746253        1.4368245377
  N        -4.7256413386       10.2109481112        2.5145293487
 Ga        -4.9340161420        8.3519052509        3.2658251702
  N        -4.8296810572        8.4083410920        5.2300231192
 Ga        -4.8544668991       10.2843143835        5.7878079673
  N        -4.8374285204       10.2735680663        7.7827355806
 Ga        -4.8221348123        8.4175231459        8.4305099962
  N        -4.8174040013        8.4181749482       10.4211488525
 Ga        -4.8442587859       10.2765509522       11.0688053718
  N        -4.8614681172       10.2870230836       13.0591542390
 Ga        -4.8191719959        8.4188303343       13.6229675029
  N        -4.8495756331        8.4036931212       15.5795024871
 Ga        -4.6595483607       10.1712314321       16.4867086602
  N        -3.2165450888        9.3381353020       17.6135267137
  N         3.1961478129        1.9289876929        2.5923316765
 Ga         3.2071655109        0.1832138116        3.2718646200
  N         3.2148666688        0.0593350268        5.2354813320
 Ga         3.2105076088        1.9223438186        5.8713711722
  N         3.2140026264        1.9133011982        7.8443054211
 Ga         3.2095573674        0.0469856116        8.4352175222
  N         3.2112989070        0.0418610587       10.4246745437
 Ga         3.2111657040        1.9107573889       11.0292301283
  N         3.2100137497        1.9122808158       12.9953492292
 Ga         3.2101344343        0.0439932323       13.6222582092
  N         3.2082290275        0.0781146488       15.5789512236
 Ga         3.2087220707        1.9144877071       15.8629971850
  N         1.4719874410        4.6376427526        2.5136120172
 Ga         1.6860954330        2.8119338444        3.2945849180
  N         1.6040906154        2.8458193433        5.2571779401
 Ga         1.6543116741        4.7202925048        5.8243718558
  N         1.6018844586        4.6996581062        7.8237098897
 Ga         1.5924428208        2.8439761514        8.4439271935
  N         1.5923210650        2.8443074125       10.4337164445
 Ga         1.6200264467        4.7059239622       11.0711833583
  N         1.6349139153        4.7165854550       13.0627334007
 Ga         1.5914607470        2.8476976688       13.6217121928
  N         1.6157752685        2.8338484475       15.5823160219
 Ga         1.4438389671        4.6072720904       16.4830363430
  N        -0.0041663669        7.4711726324        2.6893293331
 Ga         0.0096928949        5.6188056777        3.3403132585
  N        -0.0063554224        5.6393491737        5.2657229742
 Ga         0.0022212069        7.4781791037        5.9069077821
  N        -0.0030330044        7.4855910638        7.8608149422
 Ga        -0.0063115116        5.6112689782        8.4549713877
  N        -0.0079823761        5.6153592582       10.4398645327
 Ga        -0.0063723645        7.4839955782       11.0348211497
  N        -0.0055160130        7.4840794233       13.0006671893
 Ga        -0.0054850127        5.6127840271       13.6224999052
  N        -0.0064220816        5.6433492156       15.5820283586
 Ga        -0.0041281393        7.4831651164       15.8599680115
  N        -1.7111646617       10.2050150761        2.5108531993
 Ga        -1.5952682763        8.4005231676        3.3248620454
  N        -1.5982261462        8.4055184039        5.2496199343
 Ga        -1.5887674798       10.2921537123        5.8050649063
  N        -1.6031608975       10.2724909565        7.7909086184
 Ga        -1.6251210437        8.4187204686        8.4456566535
  N        -1.6251032951        8.4186173087       10.4307753512
 Ga        -1.5982751136       10.2788085393       11.0728128148
  N        -1.5810145720       10.2881097954       13.0619492252
 Ga        -1.6257592782        8.4193325083       13.6237111800
  N        -1.5942857636        8.4012918672       15.5811170205
 Ga        -1.7787283611       10.1747709348       16.4850894914
  N         6.4282238164        2.0367051127        2.5329683584
 Ga         6.4302532222        0.0636930619        2.8839692807
  N         6.4299338777        0.0558435152        5.0178141073
 Ga         6.4219437478        1.8945112167        5.7973774707
  N         6.4266381373        1.9005675386        7.7899803071
 Ga         6.4281130883        0.0576853489        8.4451016684
  N         6.4276072202        0.0558911467       10.4146121410
 Ga         6.4286129397        1.8953197178       11.0734319505
  N         6.4277227660        1.8754222260       13.0626614510
 Ga         6.4270545498        0.0567856459       13.8775836116
  N         6.4269332583        0.0571973776       16.0655970925
 Ga         6.4263737763        2.1049255869       16.4843581424
 Ga         6.4686682999        3.7411750191        1.4886907223
  N         4.9252044428        4.6367969707        2.4137069353
 Ga         4.6993779269        2.8128269592        3.2730268174
  N         4.8191040490        2.8496590167        5.2326024125
 Ga         4.7764470495        4.7241904636        5.8161683126
  N         4.8217783364        4.6972915352        7.8178930268
 Ga         4.8309086380        2.8454493785        8.4475185468
  N         4.8310826168        2.8445853762       10.4351216451
 Ga         4.8045684112        4.7074181823       11.0699078439
  N         4.7874503060        4.7169500099       13.0611379633
 Ga         4.8292188754        2.8477359202       13.6207683417
  N         4.7984357053        2.8322874476       15.5776437609
 Ga         4.9895349140        4.6000901292       16.4857386879
  N         6.4320622134        3.7673103168       17.6137130189
  N         3.2057825869        7.6005860715        2.4107790105
  N         3.2131461336        5.6298657328        5.1474175018
 Ga         3.2202124491        7.4266348821        5.8267438816
  N         3.2105109859        7.4875220229        7.8209801557
 Ga         3.2128002265        5.6258509116        8.4420924123
  N         3.2118076481        5.6273590117       10.4190857514
 Ga         3.2134963429        7.4651113832       11.0724553762
  N         3.2114859114        7.4472421273       13.0631584454
 Ga         3.2118620000        5.6262580654       13.8725353721
  N         3.2125440663        5.6262198522       16.0669099686
 Ga         3.2105650545        7.6676792789       16.4832952231
 Ga         3.2380946388        9.3902868418        1.4418141626
  N         1.7088701150       10.1945246850        2.5166443865
 Ga         1.6048392160        8.3681080584        3.3141430115
  N         1.5992739758        8.4012175682        5.2390667538
 Ga         1.5808891041       10.2830657224        5.8043625532
  N         1.5925714430       10.2718557713        7.7913007395
 Ga         1.6160206379        8.4217607292        8.4579206538
  N         1.6122728165        8.4205649698       10.4406252306
 Ga         1.5881756832       10.2801737160       11.0755638390
  N         1.5708256987       10.2887368618       13.0636920564
 Ga         1.6148867332        8.4195013194       13.6228495546
  N         1.5880021091        8.4052223144       15.5822270078
 Ga         1.7653665373       10.1758689593       16.4831104137
  N         3.2164107367        9.3381092860       17.6257316416
  N         9.6542348340        1.9167854413        2.6075483277
 Ga         9.6528584678        0.1766116585        3.2891430625
  N         9.6428005845        0.0551208900        5.2465105405
 Ga         9.6523872388        1.9158147967        5.8752280037
  N         9.6440932359        1.9120208857        7.8452590337
 Ga         9.6462849010        0.0438695955        8.4348746547
  N         9.6436907400        0.0419233677       10.4249981936
 Ga         9.6435110796        1.9122946763       11.0246511681
  N         9.6435771690        1.9123549391       12.9928631175
 Ga         9.6432853556        0.0443280027       13.6227294449
  N         9.6425418691        0.0734123465       15.5816733871
 Ga         9.6444570701        1.9127400653       15.8617849493
  N         7.9310713492        4.6337455929        2.5237101511
 Ga         8.1487083007        2.7818354494        3.2998031291
  N         8.0396433336        2.8393989567        5.2530724999
 Ga         8.0541155915        4.7156326319        5.7910780320
  N         8.0461039620        4.7064157683        7.7861285177
 Ga         8.0254321000        2.8480369630        8.4336420045
  N         8.0243965962        2.8481274051       10.4250215147
 Ga         8.0510063165        4.7064008448       11.0734519442
  N         8.0677732909        4.7166739668       13.0626861408
 Ga         8.0247389407        2.8474433065       13.6222331187
  N         8.0553152945        2.8301752748       15.5793767034
 Ga         7.8689433098        4.6034650817       16.4845389512
  N         6.4222544660        7.4783254765        2.5740792042
 Ga         6.3986146416        5.7377262405        3.2660684159
  N         6.4214197634        5.6225741914        5.2263044509
 Ga         6.4196393053        7.4787298947        5.8598321175
  N         6.4257569322        7.4825796736        7.8336884086
 Ga         6.4299813007        5.6154818819        8.4436325476
  N         6.4308346183        5.6158204497       10.4321653750
 Ga         6.4298855301        7.4842884410       11.0290074137
  N         6.4274502431        7.4849073969       12.9948329663
 Ga         6.4268484173        5.6150385625       13.6212450786
  N         6.4249947395        5.6496177914       15.5779106528
 Ga         6.4248762228        7.4850742221       15.8639017848
  N         4.7161656594       10.2072876197        2.5173583720
 Ga         4.9054933894        8.3327472705        3.2623102241
  N         4.8097113095        8.4086100414        5.2241209388
 Ga         4.8476212430       10.2772410742        5.7908774335
  N         4.8309913552       10.2727935719        7.7855889665
 Ga         4.8129725436        8.4205106749        8.4450851296
  N         4.8117990339        8.4198316620       10.4326418246
 Ga         4.8354891272       10.2781816907       11.0722098544
  N         4.8508790626       10.2880311566       13.0619987238
 Ga         4.8082740692        8.4189068326       13.6223272211
  N         4.8325667267        8.4051729784       15.5825723349
 Ga         4.6596661936       10.1780626087       16.4833740935
  O         0.7122377832        3.8562830023       -0.3733549525
  H        -0.0105507141        7.4570718558        1.6634929348
  C         1.1416619740        2.5950128856       -0.9366914653
  H         1.8462482335        2.0679100095       -0.2714236685
  H         0.2837458583        1.9359136622       -1.1344267083
  H         1.6419653832        2.8069770506       -1.8921827794
 Ga         3.1703014523        5.5904616005        2.2604136005
  O         2.8244768299        5.4630627625        0.1333279715
  H         2.0495291635        4.8299123049       -0.0651526868
  C         3.8915260171        5.2548095478       -0.8125151035
  H         3.5272419913        5.4315805824       -1.8331072263
  H         4.6857145483        5.9735939545       -0.5771512397
  H         4.2946083153        4.2330073029       -0.7370260750
