     212
 i =       14, E =     -8504.7308639761
  N         0.0020175530        2.0533487086        2.5032209403
 Ga        -0.0020321399        0.0925790834        2.8545226421
  N        -0.0052496164        0.0592289218        5.0083490397
 Ga        -0.0033778047        1.8908162273        5.7982773761
  N        -0.0057954100        1.8999633527        7.7939620018
 Ga        -0.0042983824        0.0556567280        8.4403944390
  N        -0.0046648416        0.0550993403       10.4126039747
 Ga        -0.0047454316        1.8939404168       11.0718806797
  N        -0.0057801106        1.8754560796       13.0621708146
 Ga        -0.0044836121        0.0558740497       13.8730979543
  N        -0.0040539857        0.0559149402       16.0666683560
 Ga        -0.0059219220        2.0970221900       16.4828425979
 Ga         0.0315064951        3.7351726761        1.3686311079
  N        -1.4720694804        4.6345574411        2.4727092538
 Ga        -1.6799249624        2.7957502006        3.2637813201
  N        -1.6139680953        2.8438257452        5.2410371657
 Ga        -1.6400234692        4.7061019405        5.8106619054
  N        -1.6238476041        4.7047583254        7.7990256753
 Ga        -1.6019389623        2.8448659464        8.4399425476
  N        -1.6015704067        2.8478798147       10.4290488386
 Ga        -1.6304466019        4.7061986367       11.0750710575
  N        -1.6465365817        4.7165232685       13.0637367750
 Ga        -1.6029059610        2.8473397948       13.6218083231
  N        -1.6281287645        2.8341102709       15.5811574109
 Ga        -1.4513817297        4.6047794660       16.4826210503
  N        -0.0002463904        3.7668885162       17.6253734574
  N        -3.2115162432        7.6023086131        2.5044953051
 Ga        -3.1956629210        5.6033916451        2.8516439861
  N        -3.2154394235        5.6236695962        5.0067650998
 Ga        -3.2275921481        7.4467722106        5.7987305772
  N        -3.2192640644        7.4725596197        7.7868227879
 Ga        -3.2226680479        5.6256960757        8.4463959874
  N        -3.2216966134        5.6273914629       10.4157666521
 Ga        -3.2231703754        7.4661524524       11.0726714872
  N        -3.2221062636        7.4465488660       13.0619064811
 Ga        -3.2217255788        5.6266701375       13.8772735591
  N        -3.2220055410        5.6269513393       16.0655778327
 Ga        -3.2222231703        7.6745024546       16.4853494388
 Ga        -3.2482571181        9.3601746253        1.4368245377
  N        -4.7256413386       10.2109481112        2.5145293487
 Ga        -4.9340161420        8.3519052509        3.2658251702
  N        -4.8296810572        8.4083410920        5.2300231192
 Ga        -4.8544668991       10.2843143835        5.7878079673
  N        -4.8374285204       10.2735680663        7.7827355806
 Ga        -4.8221348123        8.4175231459        8.4305099962
  N        -4.8174040013        8.4181749482       10.4211488525
 Ga        -4.8442587859       10.2765509522       11.0688053718
  N        -4.8614681172       10.2870230836       13.0591542390
 Ga        -4.8191719959        8.4188303343       13.6229675029
  N        -4.8495756331        8.4036931212       15.5795024871
 Ga        -4.6595483607       10.1712314321       16.4867086602
  N        -3.2165450888        9.3381353020       17.6135267137
  N         3.1961478129        1.9289876929        2.5923316765
 Ga         3.2071655109        0.1832138116        3.2718646200
  N         3.2148666688        0.0593350268        5.2354813320
 Ga         3.2105076088        1.9223438186        5.8713711722
  N         3.2140026264        1.9133011982        7.8443054211
 Ga         3.2095573674        0.0469856116        8.4352175222
  N         3.2112989070        0.0418610587       10.4246745437
 Ga         3.2111657040        1.9107573889       11.0292301283
  N         3.2100137497        1.9122808158       12.9953492292
 Ga         3.2101344343        0.0439932323       13.6222582092
  N         3.2082290275        0.0781146488       15.5789512236
 Ga         3.2087220707        1.9144877071       15.8629971850
  N         1.4719874410        4.6376427526        2.5136120172
 Ga         1.6860954330        2.8119338444        3.2945849180
  N         1.6040906154        2.8458193433        5.2571779401
 Ga         1.6543116741        4.7202925048        5.8243718558
  N         1.6018844586        4.6996581062        7.8237098897
 Ga         1.5924428208        2.8439761514        8.4439271935
  N         1.5923210650        2.8443074125       10.4337164445
 Ga         1.6200264467        4.7059239622       11.0711833583
  N         1.6349139153        4.7165854550       13.0627334007
 Ga         1.5914607470        2.8476976688       13.6217121928
  N         1.6157752685        2.8338484475       15.5823160219
 Ga         1.4438389671        4.6072720904       16.4830363430
  N        -0.0041663669        7.4711726324        2.6893293331
 Ga         0.0096928949        5.6188056777        3.3403132585
  N        -0.0063554224        5.6393491737        5.2657229742
 Ga         0.0022212069        7.4781791037        5.9069077821
  N        -0.0030330044        7.4855910638        7.8608149422
 Ga        -0.0063115116        5.6112689782        8.4549713877
  N        -0.0079823761        5.6153592582       10.4398645327
 Ga        -0.0063723645        7.4839955782       11.0348211497
  N        -0.0055160130        7.4840794233       13.0006671893
 Ga        -0.0054850127        5.6127840271       13.6224999052
  N        -0.0064220816        5.6433492156       15.5820283586
 Ga        -0.0041281393        7.4831651164       15.8599680115
  N        -1.7111646617       10.2050150761        2.5108531993
 Ga        -1.5952682763        8.4005231676        3.3248620454
  N        -1.5982261462        8.4055184039        5.2496199343
 Ga        -1.5887674798       10.2921537123        5.8050649063
  N        -1.6031608975       10.2724909565        7.7909086184
 Ga        -1.6251210437        8.4187204686        8.4456566535
  N        -1.6251032951        8.4186173087       10.4307753512
 Ga        -1.5982751136       10.2788085393       11.0728128148
  N        -1.5810145720       10.2881097954       13.0619492252
 Ga        -1.6257592782        8.4193325083       13.6237111800
  N        -1.5942857636        8.4012918672       15.5811170205
 Ga        -1.7787283611       10.1747709348       16.4850894914
  N         6.4282238164        2.0367051127        2.5329683584
 Ga         6.4302532222        0.0636930619        2.8839692807
  N         6.4299338777        0.0558435152        5.0178141073
 Ga         6.4219437478        1.8945112167        5.7973774707
  N         6.4266381373        1.9005675386        7.7899803071
 Ga         6.4281130883        0.0576853489        8.4451016684
  N         6.4276072202        0.0558911467       10.4146121410
 Ga         6.4286129397        1.8953197178       11.0734319505
  N         6.4277227660        1.8754222260       13.0626614510
 Ga         6.4270545498        0.0567856459       13.8775836116
  N         6.4269332583        0.0571973776       16.0655970925
 Ga         6.4263737763        2.1049255869       16.4843581424
 Ga         6.4686682999        3.7411750191        1.4886907223
  N         4.9252044428        4.6367969707        2.4137069353
 Ga         4.6993779269        2.8128269592        3.2730268174
  N         4.8191040490        2.8496590167        5.2326024125
 Ga         4.7764470495        4.7241904636        5.8161683126
  N         4.8217783364        4.6972915352        7.8178930268
 Ga         4.8309086380        2.8454493785        8.4475185468
  N         4.8310826168        2.8445853762       10.4351216451
 Ga         4.8045684112        4.7074181823       11.0699078439
  N         4.7874503060        4.7169500099       13.0611379633
 Ga         4.8292188754        2.8477359202       13.6207683417
  N         4.7984357053        2.8322874476       15.5776437609
 Ga         4.9895349140        4.6000901292       16.4857386879
  N         6.4320622134        3.7673103168       17.6137130189
  N         3.2057825869        7.6005860715        2.4107790105
  N         3.2131461336        5.6298657328        5.1474175018
 Ga         3.2202124491        7.4266348821        5.8267438816
  N         3.2105109859        7.4875220229        7.8209801557
 Ga         3.2128002265        5.6258509116        8.4420924123
  N         3.2118076481        5.6273590117       10.4190857514
 Ga         3.2134963429        7.4651113832       11.0724553762
  N         3.2114859114        7.4472421273       13.0631584454
 Ga         3.2118620000        5.6262580654       13.8725353721
  N         3.2125440663        5.6262198522       16.0669099686
 Ga         3.2105650545        7.6676792789       16.4832952231
 Ga         3.2380946388        9.3902868418        1.4418141626
  N         1.7088701150       10.1945246850        2.5166443865
 Ga         1.6048392160        8.3681080584        3.3141430115
  N         1.5992739758        8.4012175682        5.2390667538
 Ga         1.5808891041       10.2830657224        5.8043625532
  N         1.5925714430       10.2718557713        7.7913007395
 Ga         1.6160206379        8.4217607292        8.4579206538
  N         1.6122728165        8.4205649698       10.4406252306
 Ga         1.5881756832       10.2801737160       11.0755638390
  N         1.5708256987       10.2887368618       13.0636920564
 Ga         1.6148867332        8.4195013194       13.6228495546
  N         1.5880021091        8.4052223144       15.5822270078
 Ga         1.7653665373       10.1758689593       16.4831104137
  N         3.2164107367        9.3381092860       17.6257316416
  N         9.6542348340        1.9167854413        2.6075483277
 Ga         9.6528584678        0.1766116585        3.2891430625
  N         9.6428005845        0.0551208900        5.2465105405
 Ga         9.6523872388        1.9158147967        5.8752280037
  N         9.6440932359        1.9120208857        7.8452590337
 Ga         9.6462849010        0.0438695955        8.4348746547
  N         9.6436907400        0.0419233677       10.4249981936
 Ga         9.6435110796        1.9122946763       11.0246511681
  N         9.6435771690        1.9123549391       12.9928631175
 Ga         9.6432853556        0.0443280027       13.6227294449
  N         9.6425418691        0.0734123465       15.5816733871
 Ga         9.6444570701        1.9127400653       15.8617849493
  N         7.9310713492        4.6337455929        2.5237101511
 Ga         8.1487083007        2.7818354494        3.2998031291
  N         8.0396433336        2.8393989567        5.2530724999
 Ga         8.0541155915        4.7156326319        5.7910780320
  N         8.0461039620        4.7064157683        7.7861285177
 Ga         8.0254321000        2.8480369630        8.4336420045
  N         8.0243965962        2.8481274051       10.4250215147
 Ga         8.0510063165        4.7064008448       11.0734519442
  N         8.0677732909        4.7166739668       13.0626861408
 Ga         8.0247389407        2.8474433065       13.6222331187
  N         8.0553152945        2.8301752748       15.5793767034
 Ga         7.8689433098        4.6034650817       16.4845389512
  N         6.4222544660        7.4783254765        2.5740792042
 Ga         6.3986146416        5.7377262405        3.2660684159
  N         6.4214197634        5.6225741914        5.2263044509
 Ga         6.4196393053        7.4787298947        5.8598321175
  N         6.4257569322        7.4825796736        7.8336884086
 Ga         6.4299813007        5.6154818819        8.4436325476
  N         6.4308346183        5.6158204497       10.4321653750
 Ga         6.4298855301        7.4842884410       11.0290074137
  N         6.4274502431        7.4849073969       12.9948329663
 Ga         6.4268484173        5.6150385625       13.6212450786
  N         6.4249947395        5.6496177914       15.5779106528
 Ga         6.4248762228        7.4850742221       15.8639017848
  N         4.7161656594       10.2072876197        2.5173583720
 Ga         4.9054933894        8.3327472705        3.2623102241
  N         4.8097113095        8.4086100414        5.2241209388
 Ga         4.8476212430       10.2772410742        5.7908774335
  N         4.8309913552       10.2727935719        7.7855889665
 Ga         4.8129725436        8.4205106749        8.4450851296
  N         4.8117990339        8.4198316620       10.4326418246
 Ga         4.8354891272       10.2781816907       11.0722098544
  N         4.8508790626       10.2880311566       13.0619987238
 Ga         4.8082740692        8.4189068326       13.6223272211
  N         4.8325667267        8.4051729784       15.5825723349
 Ga         4.6596661936       10.1780626087       16.4833740935
  O         0.7122377832        3.8562830023       -0.3733549525
  H        -0.0105507141        7.4570718558        1.6634929348
  C         1.1416619740        2.5950128856       -0.9366914653
  H         1.8462482335        2.0679100095       -0.2714236685
  H         0.2837458583        1.9359136622       -1.1344267083
  H         1.6419653832        2.8069770506       -1.8921827794
 Ga         3.1703014523        5.5904616005        2.2604136005
  O         2.8244768299        5.4630627625        0.1333279715
  H         2.0495291635        4.8299123049       -0.0651526868
  C         3.8915260171        5.2548095478       -0.8125151035
  H         3.5272419913        5.4315805824       -1.8331072263
  H         4.6857145483        5.9735939545       -0.5771512397
  H         4.2946083153        4.2330073029       -0.7370260750
     212
 i =       58, E =     -8504.7359832237
  N         0.0036175072        2.0474784839        2.4970806719
 Ga         0.0213097012        0.0808558858        2.8366653205
  N        -0.0081083438        0.0546049689        5.0095188744
 Ga        -0.0042855535        1.8822418079        5.7939806943
  N        -0.0062698379        1.8946521448        7.7954431143
 Ga        -0.0017423668        0.0492674230        8.4346985016
  N        -0.0043241950        0.0496472217       10.4127957437
 Ga        -0.0043518660        1.8878936774       11.0678417245
  N        -0.0058758569        1.8697987610       13.0636741314
 Ga        -0.0026644907        0.0495375880       13.8729048898
  N        -0.0037324094        0.0496452210       16.0668421023
 Ga        -0.0056613450        2.0911929762       16.4838162181
 Ga         0.0504177498        3.7349261037        1.3646554223
  N        -1.4701196907        4.6268194340        2.4654618038
 Ga        -1.6746194723        2.7926708965        3.2555379959
  N        -1.6129972801        2.8379024720        5.2391011038
 Ga        -1.6424708550        4.7003804621        5.8064778501
  N        -1.6234677271        4.6981383183        7.8004783720
 Ga        -1.6008912095        2.8394750660        8.4366605869
  N        -1.6019021654        2.8419067389       10.4313486736
 Ga        -1.6295341185        4.7013516249       11.0670330024
  N        -1.6453539645        4.7113499419       13.0607099517
 Ga        -1.6023304907        2.8428626098       13.6186350041
  N        -1.6356190098        2.8307428145       15.5797797094
 Ga        -1.4406449777        4.5955997385       16.4852123384
  N        -0.0049485731        3.7535361260       17.6243546842
  N        -3.2153817614        7.5878644526        2.4914213177
 Ga        -3.1917367026        5.6156224960        2.8334568411
  N        -3.2154916525        5.6130517264        5.0097097899
 Ga        -3.2292339283        7.4433895281        5.7801286921
  N        -3.2203565780        7.4673613040        7.7809990219
 Ga        -3.2222740996        5.6227782766        8.4384266706
  N        -3.2218529824        5.6226708339       10.4146752711
 Ga        -3.2231084240        7.4630729364       11.0635148023
  N        -3.2216552829        7.4440634151       13.0569031915
 Ga        -3.2140858162        5.6285188191       13.8591644184
  N        -3.2125568051        5.6286529517       16.0658796328
 Ga        -3.2205186379        7.6882348826       16.4994914044
 Ga        -3.2528318909        9.3583088795        1.2863485688
  N        -4.7271893773       10.2034709761        2.4998578208
 Ga        -4.9139836342        8.3545376692        3.2283497359
  N        -4.8328138710        8.4004881968        5.2152639980
 Ga        -4.8522996316       10.2750854788        5.7699137831
  N        -4.8378410473       10.2672447487        7.7777271360
 Ga        -4.8210114976        8.4130793879        8.4215676702
  N        -4.8183674601        8.4131932855       10.4201328407
 Ga        -4.8439707076       10.2711785436       11.0640136532
  N        -4.8606531665       10.2811579402       13.0591909834
 Ga        -4.8172080154        8.4141897287       13.6215643245
  N        -4.8463421868        8.3923014243       15.5789441414
 Ga        -4.6569095821       10.1638764472       16.4983718479
  N        -3.2262717652        9.3380120296       17.6515338060
  N         3.1952375624        1.9162821810        2.5999911016
 Ga         3.2073508389        0.1482993657        3.2413592469
  N         3.2143483483        0.0531162405        5.2260835598
 Ga         3.2093553734        1.9075419170        5.8626191158
  N         3.2139136786        1.9071275149        7.8431978969
 Ga         3.2086799902        0.0397075709        8.4246056603
  N         3.2103724384        0.0369679908       10.4226822975
 Ga         3.2104117970        1.9045140417       11.0233759432
  N         3.2123389523        1.9075583458       12.9978613709
 Ga         3.2105057258        0.0364783362       13.6207884030
  N         3.2146885477        0.0725942633       15.5784053964
 Ga         3.2090887437        1.9056581689       15.8570988776
  N         1.4726124086        4.6314833416        2.5318132301
 Ga         1.6855086855        2.7974942496        3.2957460150
  N         1.6034587425        2.8386684458        5.2610169295
 Ga         1.6519510155        4.7136382153        5.8158482654
  N         1.6027949658        4.6946481343        7.8212703050
 Ga         1.5930794900        2.8379235562        8.4356400877
  N         1.5924445805        2.8384680927       10.4330225097
 Ga         1.6180163152        4.7000865695       11.0627771144
  N         1.6326552850        4.7109038399       13.0587959871
 Ga         1.5910169549        2.8428808956       13.6177415216
  N         1.6237113202        2.8308553716       15.5796959889
 Ga         1.4292035491        4.5950944603       16.4851582098
  N        -0.0120573136        7.4670295602        2.6890005962
 Ga         0.0006162800        5.6162363974        3.3386263419
  N        -0.0078419741        5.6338433324        5.2672169037
 Ga        -0.0078102008        7.4751384117        5.8997185661
  N        -0.0040448459        7.4801742371        7.8588525006
 Ga        -0.0062773531        5.6065367766        8.4470846629
  N        -0.0080580009        5.6107094657       10.4373958175
 Ga        -0.0080469647        7.4794464680       11.0275147806
  N        -0.0067626980        7.4791986822       12.9973522190
 Ga        -0.0057003268        5.6095923143       13.6173857516
  N        -0.0055417538        5.6408864379       15.5775867870
 Ga        -0.0072998610        7.4794712908       15.8551741211
  N        -1.7066643339       10.2040318828        2.5023727601
 Ga        -1.6223565880        8.4078765817        3.2943412500
  N        -1.5995522827        8.3993980113        5.2365146117
 Ga        -1.5924692898       10.2835043033        5.7893885561
  N        -1.6030161560       10.2672586358        7.7862889857
 Ga        -1.6272257305        8.4137936906        8.4341011357
  N        -1.6257096308        8.4133891590       10.4261061168
 Ga        -1.6008039802       10.2719901546       11.0635864447
  N        -1.5832914200       10.2807863256       13.0569149948
 Ga        -1.6255289836        8.4137679063       13.6209690930
  N        -1.5970603795        8.3971379262       15.5778961523
 Ga        -1.7948006756       10.1578169819       16.4992210371
  N         6.4297285589        2.0300776988        2.5396383852
 Ga         6.4103372327        0.0494732506        2.8777771615
  N         6.4339686303        0.0516467089        5.0217100400
 Ga         6.4231923368        1.8862060440        5.7960720298
  N         6.4271445787        1.8956497209        7.7934129430
 Ga         6.4260150879        0.0510443663        8.4389072268
  N         6.4268164087        0.0502921630       10.4144947689
 Ga         6.4280004535        1.8892478695       11.0652560891
  N         6.4275076208        1.8688746777       13.0652563218
 Ga         6.4247465281        0.0411266783       13.8596043777
  N         6.4253330345        0.0395011104       16.0658048927
 Ga         6.4255682098        2.0444007978       16.4346285744
 Ga         6.4610074649        3.7348936270        1.5157734968
  N         4.9247584166        4.6287653214        2.4342046117
 Ga         4.6947795969        2.7963225026        3.2807971914
  N         4.8196203518        2.8424571143        5.2399776065
 Ga         4.7782821243        4.7174809356        5.8116375379
  N         4.8210608557        4.6922795671        7.8179679385
 Ga         4.8293155890        2.8392574811        8.4400125634
  N         4.8306917877        2.8394127550       10.4360195984
 Ga         4.8040490169        4.7023070905       11.0615723907
  N         4.7867400404        4.7119751465       13.0633102600
 Ga         4.8291701954        2.8422215410       13.6087956531
  N         4.8099818096        2.8330539853       15.5856274443
 Ga         4.9416115757        4.6222296590       16.4346747481
  N         6.4313476056        3.7617734541       17.5572620284
  N         3.2041470975        7.5975796479        2.4338278330
  N         3.2141402381        5.6245902947        5.1416843653
 Ga         3.2202821988        7.4219254049        5.8228879571
  N         3.2107499901        7.4813264563        7.8206855018
 Ga         3.2122134640        5.6202534930        8.4362068361
  N         3.2114117824        5.6220112014       10.4185335233
 Ga         3.2128152520        7.4612241303       11.0645090547
  N         3.2105763221        7.4439671277       13.0594243433
 Ga         3.2035776727        5.6257425146       13.8535664107
  N         3.2021995093        5.6266315505       16.0658845972
 Ga         3.2087672356        7.6782149094       16.4859901308
 Ga         3.2348721619        9.3774701268        1.4913452339
  N         1.7104464552       10.1889325062        2.5234869243
 Ga         1.5876256890        8.3609305208        3.3237243868
  N         1.5976240373        8.3957875507        5.2466245437
 Ga         1.5792757388       10.2793057633        5.8042685397
  N         1.5934806842       10.2667620423        7.7946318312
 Ga         1.6144717852        8.4153548047        8.4512641971
  N         1.6115373392        8.4149496037       10.4387689394
 Ga         1.5884581822       10.2740393952       11.0679883228
  N         1.5714445293       10.2822065606       13.0608821275
 Ga         1.6126203616        8.4130658821       13.6177337111
  N         1.5857316135        8.3971936389       15.5775762754
 Ga         1.7740243998       10.1622486268       16.4863007851
  N         3.2203379115        9.3399188770       17.6255488578
  N         9.6557882956        1.9119979103        2.6078565140
 Ga         9.6553720041        0.1774592788        3.2960144542
  N         9.6438112555        0.0492218516        5.2518851930
 Ga         9.6547210268        1.9119392887        5.8732556428
  N         9.6445614233        1.9068354458        7.8475533006
 Ga         9.6471557719        0.0384346808        8.4320616756
  N         9.6441143525        0.0376807045       10.4274860131
 Ga         9.6435910454        1.9073683189       11.0216614713
  N         9.6406982615        1.9087069921       12.9966981728
 Ga         9.6429250287        0.0381115161       13.6199480525
  N         9.6367554609        0.0732401764       15.5805368439
 Ga         9.6435960117        1.9076882746       15.8608291699
  N         7.9312820111        4.6258374513        2.5245154369
 Ga         8.1522090268        2.7761587247        3.3027195026
  N         8.0403743195        2.8334279049        5.2570867412
 Ga         8.0576167311        4.7111233499        5.7886336262
  N         8.0453243561        4.7002791051        7.7891202645
 Ga         8.0256853619        2.8428709688        8.4297266917
  N         8.0242106833        2.8429140237       10.4279121479
 Ga         8.0514405123        4.7021204940       11.0651052112
  N         8.0686893264        4.7121938964       13.0651975313
 Ga         8.0240552296        2.8426305715       13.6112361823
  N         8.0424824136        2.8320774262       15.5880356017
 Ga         7.9157931994        4.6258799064       16.4349348830
  N         6.4211508406        7.4701793859        2.5620822883
 Ga         6.4057343467        5.7376230888        3.2702703301
  N         6.4226798318        5.6173289812        5.2306131366
 Ga         6.4277220978        7.4761504647        5.8545198216
  N         6.4259036241        7.4768728911        7.8340922551
 Ga         6.4298520572        5.6108512534        8.4371138652
  N         6.4303092372        5.6107590758       10.4336408297
 Ga         6.4303668957        7.4799362568       11.0241463490
  N         6.4278961008        7.4770155992       12.9980000190
 Ga         6.4269886488        5.6095264993       13.6096570059
  N         6.4253269079        5.6310244390       15.5861656821
 Ga         6.4278718127        7.4809937504       15.8580795755
  N         4.7167721340       10.2023888024        2.5199727427
 Ga         4.9188862378        8.3267569809        3.2712633487
  N         4.8113938693        8.4032978804        5.2301743844
 Ga         4.8517507482       10.2737048152        5.7900548818
  N         4.8307809421       10.2671666046        7.7886888038
 Ga         4.8140020689        8.4147699396        8.4395179926
  N         4.8122553696        8.4146124896       10.4334188139
 Ga         4.8363357045       10.2733166694       11.0686152428
  N         4.8511213889       10.2830099560       13.0637561617
 Ga         4.8075439463        8.4137684712       13.6186064943
  N         4.8341757887        8.3911606666       15.5800011345
 Ga         4.6590148203       10.1714751939       16.4850697040
  O         0.7600982252        3.8675448291       -0.3653336376
  H        -0.0080492169        7.4502705902        1.6628892927
  C         1.1540112867        2.6068756117       -0.9552535400
  H         1.8567912096        2.0544440930       -0.3089860247
  H         0.2798754722        1.9685275302       -1.1513352270
  H         1.6438201909        2.8243754938       -1.9151073562
 Ga         3.1671154021        5.5827703932        2.2989136642
  O         2.8530962878        5.5034995153        0.1796080535
  H         2.1154657966        4.8455556326       -0.0705688532
  C         3.9760112695        5.4305852294       -0.7210600534
  H         3.6811206543        5.7720853059       -1.7222547143
  H         4.7565237563        6.0912027159       -0.3169930347
  H         4.3694628165        4.4042445264       -0.7822873021
     212
 i =       57, E =     -8504.7349122543
  N         0.0075203401        2.0430347024        2.4919219863
 Ga         0.0229310013        0.0773251185        2.8322228907
  N        -0.0066808003        0.0497005725        5.0082930758
 Ga        -0.0043104484        1.8767585605        5.7932987413
  N        -0.0060617877        1.8892235583        7.7947554274
 Ga        -0.0007760682        0.0434472506        8.4324262335
  N        -0.0039684432        0.0435928011       10.4109068998
 Ga        -0.0039449529        1.8829850023       11.0632466269
  N        -0.0058272999        1.8637303977       13.0593936257
 Ga        -0.0046450190        0.0441488641       13.8605484877
  N        -0.0059832188        0.0441297511       16.0663237891
 Ga        -0.0063741005        2.0862873249       16.4748495683
 Ga         0.0717635661        3.7354452662        1.3589881715
  N        -1.4666114129        4.6227396471        2.4595550987
 Ga        -1.6697493594        2.7900316474        3.2480666857
  N        -1.6108630872        2.8332961166        5.2344984613
 Ga        -1.6421355551        4.6945282845        5.8056897550
  N        -1.6227745796        4.6924712943        7.7997139172
 Ga        -1.6009050850        2.8340610333        8.4352768986
  N        -1.6018321407        2.8366708224       10.4298164429
 Ga        -1.6299066761        4.6956130249       11.0670280406
  N        -1.6462821422        4.7042792243       13.0622724969
 Ga        -1.6024851189        2.8347123397       13.6157517921
  N        -1.6286419878        2.8183179163       15.5795672622
 Ga        -1.4600932167        4.5958660393       16.4745012522
  N        -0.0069889446        3.7656259113       17.6080827731
  N        -3.2152938360        7.5816397128        2.4881363392
 Ga        -3.1887530578        5.6086057483        2.8282359150
  N        -3.2140129479        5.6076681110        5.0074683507
 Ga        -3.2296904481        7.4377523096        5.7768498362
  N        -3.2200311151        7.4618528655        7.7787203147
 Ga        -3.2217973131        5.6172851299        8.4370287236
  N        -3.2215702910        5.6165088740       10.4132332901
 Ga        -3.2232356927        7.4555977073       11.0634365581
  N        -3.2221509158        7.4352989128       13.0583872440